<?xml version="1.0" encoding="ISO-8859-1"?>
<modeling>
 <generator>
  <i name="program" type="string">vasp </i>
  <i name="version" type="string">6.4.2  </i>
  <i name="subversion" type="string">20Jul23 (build Aug 26 2025 15:10:52) complex                          parallel </i>
  <i name="platform" type="string">LinuxIFC </i>
  <i name="date" type="string">2025 12 19 </i>
  <i name="time" type="string">05:36:37 </i>
 </generator>
 <incar>
  <i type="int" name="ISTART">     0</i>
  <i type="string" name="ALGO">Normal</i>
  <i type="logical" name="ADDGRID"> T  </i>
  <i type="int" name="ISPIN">     2</i>
  <i type="int" name="IMIX">     4</i>
  <i name="AMIX">      0.20000000</i>
  <i name="BMIX">      0.00010000</i>
  <i name="AMIX_MAG">      0.80000000</i>
  <i name="BMIX_MAG">      0.00010000</i>
  <i type="int" name="ICHARG">     2</i>
  <i type="int" name="NELM">   200</i>
  <i type="int" name="IBRION">     3</i>
  <i name="EDIFF">      0.00000100</i>
  <i name="EDIFFG">     -0.03000000</i>
  <i type="int" name="NSW">  1000</i>
  <i type="int" name="ISIF">     2</i>
  <i type="int" name="ISYM">     0</i>
  <i name="ENCUT">    520.00000000</i>
  <i name="POTIM">      0.00000000</i>
  <v name="MAGMOM">      0.60000000      0.60000000      0.60000000      0.60000000      0.60000000      0.60000000      0.60000000      0.60000000      0.60000000      0.60000000      0.60000000      0.60000000      0.60000000      0.60000000      0.60000000      0.60000000      0.60000000      0.60000000      0.60000000      0.60000000
      0.60000000      0.60000000      0.60000000      0.60000000      0.60000000      0.60000000      0.60000000      0.60000000      0.60000000      0.60000000      0.60000000      0.60000000      0.60000000      0.60000000      0.60000000      0.60000000      0.60000000      0.60000000      0.60000000      0.60000000
      0.60000000      0.60000000      0.60000000      0.60000000      0.60000000      0.60000000      0.60000000      0.60000000      0.60000000      0.60000000      0.60000000      0.60000000      0.60000000      0.60000000      0.60000000      0.60000000      0.60000000      0.60000000      0.60000000      0.60000000
      0.60000000      0.60000000      0.60000000      0.60000000      0.60000000      0.60000000      0.60000000      0.60000000      0.60000000      0.60000000      0.60000000      0.60000000      0.60000000      0.60000000      0.60000000      0.60000000      0.60000000      0.60000000      0.60000000      0.60000000
      0.60000000      0.60000000      0.60000000      0.60000000      0.60000000      0.60000000      0.60000000      0.60000000      0.60000000      0.60000000      0.60000000      0.60000000      0.60000000      0.60000000      0.60000000      0.60000000      0.60000000      0.60000000</v>
  <i type="string" name="LREAL">Auto</i>
  <i type="int" name="ISMEAR">     0</i>
  <i name="SIGMA">      0.05000000</i>
  <i type="logical" name="LWAVE"> F  </i>
  <i type="logical" name="LCHARG"> F  </i>
  <i type="logical" name="LASPH"> T  </i>
  <i type="int" name="IVDW">    12</i>
  <i name="SPRING">     -5.00000000</i>
 </incar>
 <primitive_cell>
  <structure name="primitive_cell" >
   <crystal>
    <varray name="basis" >
     <v>      17.27103806       0.00000000       0.00000000 </v>
     <v>      -8.63551903      14.95715771       0.00000000 </v>
     <v>       0.00000000       0.00000000      15.00000000 </v>
    </varray>
    <i name="volume">   3874.88459904 </i>
    <varray name="rec_basis" >
     <v>       0.05790040       0.03342881       0.00000000 </v>
     <v>       0.00000000       0.06685762       0.00000000 </v>
     <v>       0.00000000       0.00000000       0.06666667 </v>
    </varray>
   </crystal>
   <varray name="positions" >
    <v>       0.99984466       0.99997927       0.50208149 </v>
    <v>       0.99927339       0.14248545       0.50050935 </v>
    <v>       0.99942706       0.28552490       0.49850034 </v>
    <v>       0.99988769       0.42855932       0.49755037 </v>
    <v>       0.00054382       0.57162738       0.49872554 </v>
    <v>       0.00147553       0.71488486       0.50097361 </v>
    <v>       0.00113475       0.85793503       0.50236660 </v>
    <v>       0.14321441       0.00063317       0.50230303 </v>
    <v>       0.14245527       0.14309227       0.50319643 </v>
    <v>       0.14191953       0.28559567       0.50262702 </v>
    <v>       0.14254327       0.42912112       0.50057100 </v>
    <v>       0.14311416       0.57166233       0.49900480 </v>
    <v>       0.14358438       0.71455744       0.49916259 </v>
    <v>       0.14345095       0.85769939       0.50049505 </v>
    <v>       0.28582929       0.00025320       0.50111438 </v>
    <v>       0.28562290       0.14296880       0.50412064 </v>
    <v>       0.28535220       0.28710874       0.50698603 </v>
    <v>       0.28430464       0.42863787       0.50677140 </v>
    <v>       0.28705694       0.57232980       0.50294599 </v>
    <v>       0.28622048       0.71522948       0.50003142 </v>
    <v>       0.28562413       0.85779519       0.49945215 </v>
    <v>       0.42865132       0.99993880       0.49940019 </v>
    <v>       0.42848262       0.14259648       0.50190996 </v>
    <v>       0.42684897       0.28239077       0.50559095 </v>
    <v>       0.42772624       0.85671423       0.49966050 </v>
    <v>       0.57084337       0.99938774       0.49845981 </v>
    <v>       0.57130560       0.14228456       0.49896559 </v>
    <v>       0.57238141       0.28592298       0.50225116 </v>
    <v>       0.56994647       0.85524224       0.50081114 </v>
    <v>       0.71305158       0.99865181       0.49916203 </v>
    <v>       0.71399060       0.14224018       0.49721083 </v>
    <v>       0.71432810       0.28537378       0.49871800 </v>
    <v>       0.71427278       0.42769865       0.50323550 </v>
    <v>       0.71899195       0.57355329       0.51029618 </v>
    <v>       0.71867948       0.71542199       0.51019501 </v>
    <v>       0.71237461       0.85585608       0.50351201 </v>
    <v>       0.85641591       0.99936159       0.50100367 </v>
    <v>       0.85629579       0.14213431       0.49799646 </v>
    <v>       0.85679112       0.28524253       0.49691493 </v>
    <v>       0.85751823       0.42842371       0.49885095 </v>
    <v>       0.85852220       0.57197435       0.50248771 </v>
    <v>       0.85991321       0.71540375       0.50514638 </v>
    <v>       0.85766385       0.85706884       0.50397425 </v>
    <v>       0.04728699       0.09522243       0.50186785 </v>
    <v>       0.04658250       0.23761854       0.50032232 </v>
    <v>       0.04706969       0.38092732       0.49848960 </v>
    <v>       0.04792632       0.52391207       0.49806962 </v>
    <v>       0.04844617       0.66699461       0.49941239 </v>
    <v>       0.04841656       0.81005024       0.50128116 </v>
    <v>       0.04801061       0.95282415       0.50223745 </v>
    <v>       0.19039617       0.09546465       0.50342503 </v>
    <v>       0.18967469       0.23821311       0.50423534 </v>
    <v>       0.18887858       0.38072529       0.50313263 </v>
    <v>       0.19089894       0.52464762       0.50059301 </v>
    <v>       0.19093699       0.66705458       0.49930550 </v>
    <v>       0.19081202       0.80999571       0.49959120 </v>
    <v>       0.19087765       0.95284787       0.50131611 </v>
    <v>       0.33339169       0.09556939       0.50248552 </v>
    <v>       0.33385568       0.23820306       0.50600567 </v>
    <v>       0.32964684       0.37987971       0.50950917 </v>
    <v>       0.33031860       0.52314882       0.50665044 </v>
    <v>       0.33692586       0.67060723       0.50159862 </v>
    <v>       0.33301408       0.81001499       0.49959733 </v>
    <v>       0.33331074       0.95272487       0.49988038 </v>
    <v>       0.47616581       0.09492766       0.49994419 </v>
    <v>       0.47552245       0.23769274       0.50333033 </v>
    <v>       0.47230980       0.80603406       0.50071086 </v>
    <v>       0.47591546       0.95211559       0.49899213 </v>
    <v>       0.61860170       0.09454530       0.49788374 </v>
    <v>       0.61922752       0.23765975       0.49984239 </v>
    <v>       0.62128843       0.37927222       0.50382884 </v>
    <v>       0.61898227       0.81094608       0.50276750 </v>
    <v>       0.61765465       0.95093392       0.49929700 </v>
    <v>       0.76114091       0.09436948       0.49771230 </v>
    <v>       0.76176315       0.23744731       0.49715733 </v>
    <v>       0.76227217       0.38058690       0.50009208 </v>
    <v>       0.76292692       0.52501523       0.50549922 </v>
    <v>       0.76488736       0.66758426       0.50904758 </v>
    <v>       0.76183167       0.80791278       0.50606153 </v>
    <v>       0.76087055       0.95134440       0.50113741 </v>
    <v>       0.90388030       0.09435950       0.49961547 </v>
    <v>       0.90409806       0.23749906       0.49735464 </v>
    <v>       0.90461145       0.38079042       0.49735324 </v>
    <v>       0.90547034       0.52404683       0.49970402 </v>
    <v>       0.90640977       0.66714800       0.50294318 </v>
    <v>       0.90598769       0.81018696       0.50391728 </v>
    <v>       0.90463845       0.95205251       0.50221035 </v>
    <v>       0.46304635       0.35492861       0.50634706 </v>
    <v>       0.40210073       0.41810771       0.51210907 </v>
    <v>       0.40276512       0.56063112       0.50867875 </v>
    <v>       0.64635226       0.67641703       0.51286786 </v>
    <v>       0.64667806       0.54022945       0.51352814 </v>
    <v>       0.58543219       0.41591186       0.50540436 </v>
    <v>       0.58032015       0.73832590       0.50356801 </v>
    <v>       0.51640284       0.55436487       0.42922610 </v>
    <v>       0.51062254       0.56949552       0.52981232 </v>
    <v>       0.42702654       0.71542787       0.50194001 </v>
    <v>       0.52666595       0.53694363       0.48774402 </v>
   </varray>
  </structure>
  <varray name="primitive_index" >
   <v type="int" >        1 </v>
   <v type="int" >        2 </v>
   <v type="int" >        3 </v>
   <v type="int" >        4 </v>
   <v type="int" >        5 </v>
   <v type="int" >        6 </v>
   <v type="int" >        7 </v>
   <v type="int" >        8 </v>
   <v type="int" >        9 </v>
   <v type="int" >       10 </v>
   <v type="int" >       11 </v>
   <v type="int" >       12 </v>
   <v type="int" >       13 </v>
   <v type="int" >       14 </v>
   <v type="int" >       15 </v>
   <v type="int" >       16 </v>
   <v type="int" >       17 </v>
   <v type="int" >       18 </v>
   <v type="int" >       19 </v>
   <v type="int" >       20 </v>
   <v type="int" >       21 </v>
   <v type="int" >       22 </v>
   <v type="int" >       23 </v>
   <v type="int" >       24 </v>
   <v type="int" >       25 </v>
   <v type="int" >       26 </v>
   <v type="int" >       27 </v>
   <v type="int" >       28 </v>
   <v type="int" >       29 </v>
   <v type="int" >       30 </v>
   <v type="int" >       31 </v>
   <v type="int" >       32 </v>
   <v type="int" >       33 </v>
   <v type="int" >       34 </v>
   <v type="int" >       35 </v>
   <v type="int" >       36 </v>
   <v type="int" >       37 </v>
   <v type="int" >       38 </v>
   <v type="int" >       39 </v>
   <v type="int" >       40 </v>
   <v type="int" >       41 </v>
   <v type="int" >       42 </v>
   <v type="int" >       43 </v>
   <v type="int" >       44 </v>
   <v type="int" >       45 </v>
   <v type="int" >       46 </v>
   <v type="int" >       47 </v>
   <v type="int" >       48 </v>
   <v type="int" >       49 </v>
   <v type="int" >       50 </v>
   <v type="int" >       51 </v>
   <v type="int" >       52 </v>
   <v type="int" >       53 </v>
   <v type="int" >       54 </v>
   <v type="int" >       55 </v>
   <v type="int" >       56 </v>
   <v type="int" >       57 </v>
   <v type="int" >       58 </v>
   <v type="int" >       59 </v>
   <v type="int" >       60 </v>
   <v type="int" >       61 </v>
   <v type="int" >       62 </v>
   <v type="int" >       63 </v>
   <v type="int" >       64 </v>
   <v type="int" >       65 </v>
   <v type="int" >       66 </v>
   <v type="int" >       67 </v>
   <v type="int" >       68 </v>
   <v type="int" >       69 </v>
   <v type="int" >       70 </v>
   <v type="int" >       71 </v>
   <v type="int" >       72 </v>
   <v type="int" >       73 </v>
   <v type="int" >       74 </v>
   <v type="int" >       75 </v>
   <v type="int" >       76 </v>
   <v type="int" >       77 </v>
   <v type="int" >       78 </v>
   <v type="int" >       79 </v>
   <v type="int" >       80 </v>
   <v type="int" >       81 </v>
   <v type="int" >       82 </v>
   <v type="int" >       83 </v>
   <v type="int" >       84 </v>
   <v type="int" >       85 </v>
   <v type="int" >       86 </v>
   <v type="int" >       87 </v>
   <v type="int" >       88 </v>
   <v type="int" >       89 </v>
   <v type="int" >       90 </v>
   <v type="int" >       91 </v>
   <v type="int" >       92 </v>
   <v type="int" >       93 </v>
   <v type="int" >       94 </v>
   <v type="int" >       95 </v>
   <v type="int" >       96 </v>
   <v type="int" >       97 </v>
   <v type="int" >       98 </v>
  </varray>
 </primitive_cell>
 <kpoints>
  <generation param="Gamma">
   <v type="int" name="divisions">       2        2        1 </v>
   <v name="usershift">      0.00000000       0.00000000       0.00000000 </v>
   <v name="genvec1">      0.50000000       0.00000000       0.00000000 </v>
   <v name="genvec2">      0.00000000       0.50000000       0.00000000 </v>
   <v name="genvec3">      0.00000000       0.00000000       1.00000000 </v>
   <v name="shift">      0.00000000       0.00000000       0.00000000 </v>
  </generation>
  <varray name="kpointlist" >
   <v>       0.00000000       0.00000000       0.00000000 </v>
   <v>       0.50000000       0.00000000       0.00000000 </v>
   <v>       0.00000000       0.50000000       0.00000000 </v>
   <v>       0.50000000       0.50000000       0.00000000 </v>
  </varray>
  <varray name="weights" >
   <v>       0.25000000 </v>
   <v>       0.25000000 </v>
   <v>       0.25000000 </v>
   <v>       0.25000000 </v>
  </varray>
 </kpoints>
 <parameters>
  <separator name="general" >
   <i type="string" name="SYSTEM">unknown system</i>
   <i type="logical" name="LCOMPAT"> F  </i>
  </separator>
  <separator name="electronic" >
   <i type="string" name="PREC">normal</i>
   <i name="ENMAX">    520.00000000</i>
   <i name="ENAUG">    644.87300000</i>
   <i name="EDIFF">      0.00000100</i>
   <i type="int" name="IALGO">    38</i>
   <i type="int" name="IWAVPR">    11</i>
   <i type="int" name="NBANDS">   270</i>
   <i type="int" name="NBANDSLOW">    -1</i>
   <i type="int" name="NBANDSHIGH">    -1</i>
   <i name="NELECT">    368.00000000</i>
   <i type="int" name="TURBO">     0</i>
   <i type="int" name="IRESTART">     0</i>
   <i type="int" name="NREBOOT">     0</i>
   <i type="int" name="NMIN">     0</i>
   <i name="EREF">      0.00000000</i>
   <separator name="electronic smearing" >
    <i type="int" name="ISMEAR">     0</i>
    <i name="SIGMA">      0.05000000</i>
    <i name="KSPACING">      0.50000000</i>
    <i type="logical" name="KGAMMA"> T  </i>
    <i type="logical" name="KBLOWUP"> T  </i>
   </separator>
   <separator name="electronic projectors" >
    <i type="logical" name="LREAL"> T  </i>
    <v name="ROPT">     -0.00050000     -0.00050000     -0.00050000     -0.00050000</v>
    <i type="int" name="LMAXPAW">  -100</i>
    <i type="int" name="LMAXMIX">     2</i>
    <i type="logical" name="NLSPLINE"> F  </i>
   </separator>
   <separator name="electronic startup" >
    <i type="int" name="ISTART">     0</i>
    <i type="int" name="ICHARG">     2</i>
    <i type="int" name="INIWAV">     1</i>
   </separator>
   <separator name="electronic spin" >
    <i type="int" name="ISPIN">     2</i>
    <i type="logical" name="LNONCOLLINEAR"> F  </i>
    <v name="MAGMOM">      0.60000000      0.60000000      0.60000000      0.60000000      0.60000000      0.60000000      0.60000000      0.60000000      0.60000000      0.60000000      0.60000000      0.60000000      0.60000000      0.60000000      0.60000000      0.60000000      0.60000000      0.60000000      0.60000000      0.60000000
      0.60000000      0.60000000      0.60000000      0.60000000      0.60000000      0.60000000      0.60000000      0.60000000      0.60000000      0.60000000      0.60000000      0.60000000      0.60000000      0.60000000      0.60000000      0.60000000      0.60000000      0.60000000      0.60000000      0.60000000
      0.60000000      0.60000000      0.60000000      0.60000000      0.60000000      0.60000000      0.60000000      0.60000000      0.60000000      0.60000000      0.60000000      0.60000000      0.60000000      0.60000000      0.60000000      0.60000000      0.60000000      0.60000000      0.60000000      0.60000000
      0.60000000      0.60000000      0.60000000      0.60000000      0.60000000      0.60000000      0.60000000      0.60000000      0.60000000      0.60000000      0.60000000      0.60000000      0.60000000      0.60000000      0.60000000      0.60000000      0.60000000      0.60000000      0.60000000      0.60000000
      0.60000000      0.60000000      0.60000000      0.60000000      0.60000000      0.60000000      0.60000000      0.60000000      0.60000000      0.60000000      0.60000000      0.60000000      0.60000000      0.60000000      0.60000000      0.60000000      0.60000000      0.60000000</v>
    <i name="NUPDOWN">     -1.00000000</i>
    <i type="logical" name="LSORBIT"> F  </i>
    <v name="SAXIS">      0.00000000      0.00000000      1.00000000</v>
    <i type="logical" name="LSPIRAL"> F  </i>
    <v name="QSPIRAL">      0.00000000      0.00000000      0.00000000</v>
    <i type="logical" name="LZEROZ"> F  </i>
   </separator>
   <separator name="electronic exchange-correlation" >
    <i type="logical" name="LASPH"> T  </i>
    <i type="logical" name="LMETAGGA"> F  </i>
   </separator>
   <separator name="electronic convergence" >
    <i type="int" name="NELM">   200</i>
    <i type="int" name="NELMDL">    -5</i>
    <i type="int" name="NELMIN">     2</i>
    <i name="ENINI">    520.00000000</i>
    <separator name="electronic convergence detail" >
     <i type="logical" name="LDIAG"> T  </i>
     <i type="logical" name="LSUBROT"> F  </i>
     <i name="WEIMIN">      0.00100000</i>
     <i name="EBREAK">      0.00000000</i>
     <i name="DEPER">      0.30000000</i>
     <i type="int" name="NRMM">     4</i>
     <i name="TIME">      0.40000000</i>
    </separator>
   </separator>
   <separator name="electronic mixer" >
    <i name="AMIX">      0.20000000</i>
    <i name="BMIX">      0.00010000</i>
    <i name="AMIN">      0.10000000</i>
    <i name="AMIX_MAG">      0.80000000</i>
    <i name="BMIX_MAG">      0.00010000</i>
    <separator name="electronic mixer details" >
     <i type="int" name="IMIX">     4</i>
     <i type="logical" name="MIXFIRST"> F  </i>
     <i type="int" name="MAXMIX">   -45</i>
     <i name="WC">    100.00000000</i>
     <i type="int" name="INIMIX">     1</i>
     <i type="int" name="MIXPRE">     1</i>
     <i type="int" name="MREMOVE">     5</i>
    </separator>
   </separator>
   <separator name="electronic dipolcorrection" >
    <i type="logical" name="LDIPOL"> F  </i>
    <i type="logical" name="LMONO"> F  </i>
    <i type="int" name="IDIPOL">     0</i>
    <i name="EPSILON">      1.00000000</i>
    <v name="DIPOL">   -100.00000000   -100.00000000   -100.00000000</v>
    <i name="EFIELD">      0.00000000</i>
   </separator>
  </separator>
  <separator name="grids" >
   <i type="int" name="NGX">    96</i>
   <i type="int" name="NGY">    96</i>
   <i type="int" name="NGZ">    84</i>
   <i type="int" name="NGXF">   192</i>
   <i type="int" name="NGYF">   192</i>
   <i type="int" name="NGZF">   168</i>
   <i type="logical" name="ADDGRID"> T  </i>
  </separator>
  <separator name="ionic" >
   <i type="int" name="NSW">  1000</i>
   <i type="int" name="IBRION">     3</i>
   <i type="int" name="MDALGO">     0</i>
   <i type="int" name="ISIF">     2</i>
   <i name="PSTRESS">      0.00000000</i>
   <i name="EDIFFG">     -0.03000000</i>
   <i type="int" name="NFREE">     0</i>
   <i name="POTIM">      0.00000000</i>
   <i name="SMASS">     -3.00000000</i>
   <i name="SCALEE">      1.00000000</i>
  </separator>
  <separator name="ionic md" >
   <i name="TEBEG">      0.00010000</i>
   <i name="TEEND">      0.00010000</i>
   <i type="int" name="NBLOCK">     1</i>
   <i type="int" name="KBLOCK">  1000</i>
   <i type="int" name="NPACO">   256</i>
   <i name="APACO">     10.00000000</i>
  </separator>
  <separator name="symmetry" >
   <i type="int" name="ISYM">     0</i>
   <i name="SYMPREC">      0.00001000</i>
  </separator>
  <separator name="dos" >
   <i type="int" name="LORBIT">     0</i>
   <v name="RWIGS">     -1.00000000     -1.00000000     -1.00000000     -1.00000000</v>
   <i type="int" name="NEDOS">   301</i>
   <i name="EMIN">     10.00000000</i>
   <i name="EMAX">    -10.00000000</i>
   <i name="EFERMI">      0.00000000</i>
  </separator>
  <separator name="writing" >
   <i type="int" name="NWRITE">     2</i>
   <i type="logical" name="LWAVE"> F  </i>
   <i type="logical" name="LDOWNSAMPLE"> F  </i>
   <i type="logical" name="LCHARG"> F  </i>
   <i type="logical" name="LPARD"> F  </i>
   <i type="logical" name="LVTOT"> F  </i>
   <i type="logical" name="LVHAR"> F  </i>
   <i type="logical" name="LELF"> F  </i>
   <i type="logical" name="LOPTICS"> F  </i>
   <v name="STM">      0.00000000      0.00000000      0.00000000      0.00000000      0.00000000      0.00000000      0.00000000</v>
  </separator>
  <separator name="performance" >
   <i type="int" name="NPAR">    10</i>
   <i type="int" name="NSIM">     4</i>
   <i type="int" name="NBLK">    -1</i>
   <i type="logical" name="LPLANE"> T  </i>
   <i type="logical" name="LSCALAPACK"> T  </i>
   <i type="logical" name="LSCAAWARE"> F  </i>
   <i type="logical" name="LSCALU"> F  </i>
   <i type="logical" name="LASYNC"> F  </i>
   <i type="logical" name="LORBITALREAL"> F  </i>
  </separator>
  <separator name="miscellaneous" >
   <i type="int" name="IDIOT">     3</i>
   <i type="int" name="PHON_NSTRUCT">    -1</i>
   <i type="logical" name="LMUSIC"> F  </i>
   <v name="POMASS">     12.01100000      1.00000000     14.00100000     16.00000000</v>
   <v name="DARWINR">      0.00000000      0.00000000      0.00000000      0.00000000</v>
   <v name="DARWINV">      1.00000000      1.00000000      1.00000000      1.00000000</v>
   <i type="logical" name="LCORR"> T  </i>
  </separator>
  <i type="logical" name="GGA_COMPAT"> T  </i>
  <i type="logical" name="LBERRY"> F  </i>
  <i type="int" name="ICORELEVEL">     0</i>
  <i type="logical" name="LDAU"> F  </i>
  <i type="int" name="I_CONSTRAINED_M">     0</i>
  <separator name="electronic exchange-correlation" >
   <i type="string" name="GGA">--</i>
   <i type="int" name="VOSKOWN">     0</i>
   <i type="logical" name="LHFCALC"> F  </i>
   <i type="string" name="PRECFOCK"></i>
   <i type="logical" name="LSYMGRAD"> F  </i>
   <i type="logical" name="LHFONE"> F  </i>
   <i type="logical" name="LRHFCALC"> F  </i>
   <i type="logical" name="LTHOMAS"> F  </i>
   <i type="logical" name="LMODELHF"> F  </i>
   <i type="logical" name="LFOCKACE"> F  </i>
   <i name="ENCUT4O">     -1.00000000</i>
   <i type="int" name="EXXOEP">     0</i>
   <i type="int" name="FOURORBIT">     0</i>
   <i name="AEXX">      0.00000000</i>
   <i name="HFALPHA">      0.00000000</i>
   <i name="MCALPHA">      0.00000000</i>
   <i name="ALDAX">      1.00000000</i>
   <i name="AGGAX">      1.00000000</i>
   <i name="ALDAC">      1.00000000</i>
   <i name="AGGAC">      1.00000000</i>
   <i type="int" name="NKREDX">     1</i>
   <i type="int" name="NKREDY">     1</i>
   <i type="int" name="NKREDZ">     1</i>
   <i type="logical" name="SHIFTRED"> F  </i>
   <i type="logical" name="ODDONLY"> F  </i>
   <i type="logical" name="EVENONLY"> F  </i>
   <i type="int" name="LMAXFOCK">     0</i>
   <i type="int" name="NMAXFOCKAE">     0</i>
   <i type="logical" name="LFOCKAEDFT"> F  </i>
   <i name="HFSCREEN">      0.00000000</i>
   <i name="HFSCREENC">      0.00000000</i>
   <i type="int" name="NBANDSGWLOW">     0</i>
  </separator>
  <separator name="vdW DFT" >
   <i type="logical" name="LUSE_VDW"> F  </i>
   <i type="int" name="IVDW_NL">     1</i>
   <i type="logical" name="LSPIN_VDW"> F  </i>
   <i name="Zab_VDW">     -0.84910000</i>
   <i name="PARAM1">      0.12340000</i>
   <i name="PARAM2">      1.00000000</i>
   <i name="PARAM3">      0.00000000</i>
  </separator>
  <separator name="model GW" >
   <i type="int" name="MODEL_GW">     0</i>
   <i name="MODEL_EPS0">     23.72378326</i>
   <i name="MODEL_ALPHA">      1.00000000</i>
  </separator>
  <separator name="linear response parameters" >
   <i type="logical" name="LEPSILON"> F  </i>
   <i type="logical" name="LRPA"> F  </i>
   <i type="logical" name="LNABLA"> F  </i>
   <i type="logical" name="LVEL"> F  </i>
   <i name="CSHIFT">      0.10000000</i>
   <i name="OMEGAMAX">     -1.00000000</i>
   <i name="DEG_THRESHOLD">      0.00200000</i>
   <i name="RTIME">     -0.10000000</i>
   <i name="WPLASMAI">      0.00000000</i>
   <v name="DFIELD">      0.00000000      0.00000000      0.00000000</v>
   <v name="WPLASMA">      0.00000000      0.00000000      0.00000000      0.00000000      0.00000000      0.00000000      0.00000000      0.00000000      0.00000000</v>
  </separator>
  <separator name="orbital magnetization" >
   <i type="logical" name="NUCIND"> F  </i>
   <v name="MAGPOS">      0.00000000      0.00000000      0.00000000</v>
   <i type="logical" name="LNICSALL"> T  </i>
   <i type="logical" name="ORBITALMAG"> F  </i>
   <i type="logical" name="LMAGBLOCH"> F  </i>
   <i type="logical" name="LCHIMAG"> F  </i>
   <i type="logical" name="LGAUGE"> T  </i>
   <i type="int" name="MAGATOM">     0</i>
   <v name="MAGDIPOL">      0.00000000      0.00000000      0.00000000</v>
   <v name="AVECCONST">      0.00000000      0.00000000      0.00000000</v>
  </separator>
  <separator name="response functions" >
   <i type="logical" name="LALL_IN_ONE"> F  </i>
   <i type="int" name="IALL_IN_ONE">    -1</i>
   <i type="int" name="NBANDS_WAVE">    -1</i>
   <i type="logical" name="LFINITE_TEMPERATURE"> F  </i>
   <i type="logical" name="LADDER"> F  </i>
   <i type="logical" name="LRPAFORCE"> F  </i>
   <i type="logical" name="LFXC"> F  </i>
   <i type="logical" name="LHARTREE"> T  </i>
   <i type="int" name="IBSE">     0</i>
   <v type="int" name="KPOINT">    -1     0     0     0</v>
   <i type="logical" name="LTCTC"> F  </i>
   <i type="logical" name="LTCTE"> F  </i>
   <i type="logical" name="LTETE"> F  </i>
   <i type="logical" name="LTRIPLET"> F  </i>
   <i type="logical" name="LFXCEPS"> F  </i>
   <i type="logical" name="LFXHEG"> F  </i>
   <i type="int" name="NATURALO">     2</i>
   <i type="logical" name="LHOLEGF"> F  </i>
   <i type="logical" name="L2ORDER"> F  </i>
   <i type="logical" name="LDMP1"> F  </i>
   <i type="logical" name="LMP2LT"> F  </i>
   <i type="logical" name="LSMP2LT"> F  </i>
   <i type="logical" name="LGWLF"> F  </i>
   <i name="ENCUTGW">     -1.60000002</i>
   <i name="ENCUTGWSOFT">     -1.60000002</i>
   <i name="ENCUTLF">     -1.00000000</i>
   <i type="logical" name="LESF_SPLINES"> F  </i>
   <i type="int" name="LMAXMP2">    -1</i>
   <i name="SCISSOR">      0.00000000</i>
   <i type="int" name="NOMEGA">     0</i>
   <i type="int" name="NOMEGAR">     0</i>
   <i type="int" name="NBANDSGW">    -1</i>
   <i type="int" name="NBANDSO">    -1</i>
   <i type="int" name="NBANDSV">    -1</i>
   <i type="int" name="NELMGW">     1</i>
   <i type="int" name="NELMHF">     1</i>
   <i type="int" name="DIM">     3</i>
   <i type="int" name="IESPILON">     4</i>
   <i type="int" name="ANTIRES">     0</i>
   <i name="OMEGAMAX">    -30.00000000</i>
   <i name="OMEGAMIN">    -30.00000000</i>
   <i name="OMEGATL">   -200.00000000</i>
   <i type="int" name="OMEGAGRID">     0</i>
   <i name="CSHIFT">     -0.10000000</i>
   <i type="logical" name="LSELFENERGY"> F  </i>
   <i type="logical" name="LSPECTRAL"> F  </i>
   <i type="logical" name="LSPECTRALGW"> F  </i>
   <i type="logical" name="LSINGLES"> F  </i>
   <i type="logical" name="LFERMIGW"> F  </i>
   <i type="logical" name="ODDONLYGW"> F  </i>
   <i type="logical" name="EVENONLYGW"> F  </i>
   <i type="int" name="NKREDLFX">     1</i>
   <i type="int" name="NKREDLFY">     1</i>
   <i type="int" name="NKREDLFZ">     1</i>
   <i type="int" name="MAXMEM">  2800</i>
   <i type="int" name="TELESCOPE">     0</i>
   <i type="int" name="NTAUPAR">    -1</i>
   <i type="int" name="NOMEGAPAR">    -1</i>
   <i name="DAMP_NEWTON">      0.80000001</i>
   <i name="LAMBDA">      1.00000000</i>
  </separator>
  <separator name="External order field" >
   <i name="OFIELD_KAPPA">      0.00000000</i>
   <v name="OFIELD_K">      0.00000000      0.00000000      0.00000000</v>
   <i name="OFIELD_Q6_NEAR">      0.00000000</i>
   <i name="OFIELD_Q6_FAR">      0.00000000</i>
   <i name="OFIELD_A">      0.00000000</i>
  </separator>
  <separator name="optional k-points parameters" >
   <i type="int" name="KPOINTS_OPT_MODE">     1</i>
   <i type="logical" name="LKPOINTS_OPT"> F  </i>
  </separator>
 </parameters>
 <atominfo>
  <atoms>      98 </atoms>
  <types>       4 </types>
  <array name="atoms" >
   <dimension dim="1">ion</dimension>
   <field type="string">element</field>
   <field type="int">atomtype</field>
   <set>
    <rc><c>C </c><c>   1</c></rc>
    <rc><c>C </c><c>   1</c></rc>
    <rc><c>C </c><c>   1</c></rc>
    <rc><c>C </c><c>   1</c></rc>
    <rc><c>C </c><c>   1</c></rc>
    <rc><c>C </c><c>   1</c></rc>
    <rc><c>C </c><c>   1</c></rc>
    <rc><c>C </c><c>   1</c></rc>
    <rc><c>C </c><c>   1</c></rc>
    <rc><c>C </c><c>   1</c></rc>
    <rc><c>C </c><c>   1</c></rc>
    <rc><c>C </c><c>   1</c></rc>
    <rc><c>C </c><c>   1</c></rc>
    <rc><c>C </c><c>   1</c></rc>
    <rc><c>C </c><c>   1</c></rc>
    <rc><c>C </c><c>   1</c></rc>
    <rc><c>C </c><c>   1</c></rc>
    <rc><c>C </c><c>   1</c></rc>
    <rc><c>C </c><c>   1</c></rc>
    <rc><c>C </c><c>   1</c></rc>
    <rc><c>C </c><c>   1</c></rc>
    <rc><c>C </c><c>   1</c></rc>
    <rc><c>C </c><c>   1</c></rc>
    <rc><c>C </c><c>   1</c></rc>
    <rc><c>C </c><c>   1</c></rc>
    <rc><c>C </c><c>   1</c></rc>
    <rc><c>C </c><c>   1</c></rc>
    <rc><c>C </c><c>   1</c></rc>
    <rc><c>C </c><c>   1</c></rc>
    <rc><c>C </c><c>   1</c></rc>
    <rc><c>C </c><c>   1</c></rc>
    <rc><c>C </c><c>   1</c></rc>
    <rc><c>C </c><c>   1</c></rc>
    <rc><c>C </c><c>   1</c></rc>
    <rc><c>C </c><c>   1</c></rc>
    <rc><c>C </c><c>   1</c></rc>
    <rc><c>C </c><c>   1</c></rc>
    <rc><c>C </c><c>   1</c></rc>
    <rc><c>C </c><c>   1</c></rc>
    <rc><c>C </c><c>   1</c></rc>
    <rc><c>C </c><c>   1</c></rc>
    <rc><c>C </c><c>   1</c></rc>
    <rc><c>C </c><c>   1</c></rc>
    <rc><c>C </c><c>   1</c></rc>
    <rc><c>C </c><c>   1</c></rc>
    <rc><c>C </c><c>   1</c></rc>
    <rc><c>C </c><c>   1</c></rc>
    <rc><c>C </c><c>   1</c></rc>
    <rc><c>C </c><c>   1</c></rc>
    <rc><c>C </c><c>   1</c></rc>
    <rc><c>C </c><c>   1</c></rc>
    <rc><c>C </c><c>   1</c></rc>
    <rc><c>C </c><c>   1</c></rc>
    <rc><c>C </c><c>   1</c></rc>
    <rc><c>C </c><c>   1</c></rc>
    <rc><c>C </c><c>   1</c></rc>
    <rc><c>C </c><c>   1</c></rc>
    <rc><c>C </c><c>   1</c></rc>
    <rc><c>C </c><c>   1</c></rc>
    <rc><c>C </c><c>   1</c></rc>
    <rc><c>C </c><c>   1</c></rc>
    <rc><c>C </c><c>   1</c></rc>
    <rc><c>C </c><c>   1</c></rc>
    <rc><c>C </c><c>   1</c></rc>
    <rc><c>C </c><c>   1</c></rc>
    <rc><c>C </c><c>   1</c></rc>
    <rc><c>C </c><c>   1</c></rc>
    <rc><c>C </c><c>   1</c></rc>
    <rc><c>C </c><c>   1</c></rc>
    <rc><c>C </c><c>   1</c></rc>
    <rc><c>C </c><c>   1</c></rc>
    <rc><c>C </c><c>   1</c></rc>
    <rc><c>C </c><c>   1</c></rc>
    <rc><c>C </c><c>   1</c></rc>
    <rc><c>C </c><c>   1</c></rc>
    <rc><c>C </c><c>   1</c></rc>
    <rc><c>C </c><c>   1</c></rc>
    <rc><c>C </c><c>   1</c></rc>
    <rc><c>C </c><c>   1</c></rc>
    <rc><c>C </c><c>   1</c></rc>
    <rc><c>C </c><c>   1</c></rc>
    <rc><c>C </c><c>   1</c></rc>
    <rc><c>C </c><c>   1</c></rc>
    <rc><c>C </c><c>   1</c></rc>
    <rc><c>C </c><c>   1</c></rc>
    <rc><c>C </c><c>   1</c></rc>
    <rc><c>C </c><c>   1</c></rc>
    <rc><c>H </c><c>   2</c></rc>
    <rc><c>H </c><c>   2</c></rc>
    <rc><c>H </c><c>   2</c></rc>
    <rc><c>H </c><c>   2</c></rc>
    <rc><c>H </c><c>   2</c></rc>
    <rc><c>H </c><c>   2</c></rc>
    <rc><c>H </c><c>   2</c></rc>
    <rc><c>H </c><c>   2</c></rc>
    <rc><c>H </c><c>   2</c></rc>
    <rc><c>N </c><c>   3</c></rc>
    <rc><c>O </c><c>   4</c></rc>
   </set>
  </array>
  <array name="atomtypes" >
   <dimension dim="1">type</dimension>
   <field type="int">atomspertype</field>
   <field type="string">element</field>
   <field>mass</field>
   <field>valence</field>
   <field type="string">pseudopotential</field>
   <set>
    <rc><c>  87</c><c>C </c><c>     12.01100000</c><c>      4.00000000</c><c>  PAW_PBE C 08Apr2002                   </c></rc>
    <rc><c>   9</c><c>H </c><c>      1.00000000</c><c>      1.00000000</c><c>  PAW_PBE H 15Jun2001                   </c></rc>
    <rc><c>   1</c><c>N </c><c>     14.00100000</c><c>      5.00000000</c><c>  PAW_PBE N 08Apr2002                   </c></rc>
    <rc><c>   1</c><c>O </c><c>     16.00000000</c><c>      6.00000000</c><c>  PAW_PBE O 08Apr2002                   </c></rc>
   </set>
  </array>
 </atominfo>
 <structure name="initialpos" >
  <crystal>
   <varray name="basis" >
    <v>      17.27103806       0.00000000       0.00000000 </v>
    <v>      -8.63551903      14.95715771       0.00000000 </v>
    <v>       0.00000000       0.00000000      15.00000000 </v>
   </varray>
   <i name="volume">   3874.88459904 </i>
   <varray name="rec_basis" >
    <v>       0.05790040       0.03342881       0.00000000 </v>
    <v>       0.00000000       0.06685762       0.00000000 </v>
    <v>       0.00000000       0.00000000       0.06666667 </v>
   </varray>
  </crystal>
  <varray name="positions" >
   <v>       0.99984466       0.99997927       0.50208149 </v>
   <v>       0.99927339       0.14248545       0.50050935 </v>
   <v>       0.99942706       0.28552490       0.49850034 </v>
   <v>       0.99988769       0.42855932       0.49755037 </v>
   <v>       0.00054382       0.57162738       0.49872554 </v>
   <v>       0.00147553       0.71488486       0.50097361 </v>
   <v>       0.00113475       0.85793503       0.50236660 </v>
   <v>       0.14321441       0.00063317       0.50230303 </v>
   <v>       0.14245527       0.14309227       0.50319643 </v>
   <v>       0.14191953       0.28559567       0.50262702 </v>
   <v>       0.14254327       0.42912112       0.50057100 </v>
   <v>       0.14311416       0.57166233       0.49900480 </v>
   <v>       0.14358438       0.71455744       0.49916259 </v>
   <v>       0.14345095       0.85769939       0.50049505 </v>
   <v>       0.28582929       0.00025320       0.50111438 </v>
   <v>       0.28562290       0.14296880       0.50412064 </v>
   <v>       0.28535220       0.28710874       0.50698603 </v>
   <v>       0.28430464       0.42863787       0.50677140 </v>
   <v>       0.28705694       0.57232980       0.50294599 </v>
   <v>       0.28622048       0.71522948       0.50003142 </v>
   <v>       0.28562413       0.85779519       0.49945215 </v>
   <v>       0.42865132       0.99993880       0.49940019 </v>
   <v>       0.42848262       0.14259648       0.50190996 </v>
   <v>       0.42684897       0.28239077       0.50559095 </v>
   <v>       0.42772624       0.85671423       0.49966050 </v>
   <v>       0.57084337       0.99938774       0.49845981 </v>
   <v>       0.57130560       0.14228456       0.49896559 </v>
   <v>       0.57238141       0.28592298       0.50225116 </v>
   <v>       0.56994647       0.85524224       0.50081114 </v>
   <v>       0.71305158       0.99865181       0.49916203 </v>
   <v>       0.71399060       0.14224018       0.49721083 </v>
   <v>       0.71432810       0.28537378       0.49871800 </v>
   <v>       0.71427278       0.42769865       0.50323550 </v>
   <v>       0.71899195       0.57355329       0.51029618 </v>
   <v>       0.71867948       0.71542199       0.51019501 </v>
   <v>       0.71237461       0.85585608       0.50351201 </v>
   <v>       0.85641591       0.99936159       0.50100367 </v>
   <v>       0.85629579       0.14213431       0.49799646 </v>
   <v>       0.85679112       0.28524253       0.49691493 </v>
   <v>       0.85751823       0.42842371       0.49885095 </v>
   <v>       0.85852220       0.57197435       0.50248771 </v>
   <v>       0.85991321       0.71540375       0.50514638 </v>
   <v>       0.85766385       0.85706884       0.50397425 </v>
   <v>       0.04728699       0.09522243       0.50186785 </v>
   <v>       0.04658250       0.23761854       0.50032232 </v>
   <v>       0.04706969       0.38092732       0.49848960 </v>
   <v>       0.04792632       0.52391207       0.49806962 </v>
   <v>       0.04844617       0.66699461       0.49941239 </v>
   <v>       0.04841656       0.81005024       0.50128116 </v>
   <v>       0.04801061       0.95282415       0.50223745 </v>
   <v>       0.19039617       0.09546465       0.50342503 </v>
   <v>       0.18967469       0.23821311       0.50423534 </v>
   <v>       0.18887858       0.38072529       0.50313263 </v>
   <v>       0.19089894       0.52464762       0.50059301 </v>
   <v>       0.19093699       0.66705458       0.49930550 </v>
   <v>       0.19081202       0.80999571       0.49959120 </v>
   <v>       0.19087765       0.95284787       0.50131611 </v>
   <v>       0.33339169       0.09556939       0.50248552 </v>
   <v>       0.33385568       0.23820306       0.50600567 </v>
   <v>       0.32964684       0.37987971       0.50950917 </v>
   <v>       0.33031860       0.52314882       0.50665044 </v>
   <v>       0.33692586       0.67060723       0.50159862 </v>
   <v>       0.33301408       0.81001499       0.49959733 </v>
   <v>       0.33331074       0.95272487       0.49988038 </v>
   <v>       0.47616581       0.09492766       0.49994419 </v>
   <v>       0.47552245       0.23769274       0.50333033 </v>
   <v>       0.47230980       0.80603406       0.50071086 </v>
   <v>       0.47591546       0.95211559       0.49899213 </v>
   <v>       0.61860170       0.09454530       0.49788374 </v>
   <v>       0.61922752       0.23765975       0.49984239 </v>
   <v>       0.62128843       0.37927222       0.50382884 </v>
   <v>       0.61898227       0.81094608       0.50276750 </v>
   <v>       0.61765465       0.95093392       0.49929700 </v>
   <v>       0.76114091       0.09436948       0.49771230 </v>
   <v>       0.76176315       0.23744731       0.49715733 </v>
   <v>       0.76227217       0.38058690       0.50009208 </v>
   <v>       0.76292692       0.52501523       0.50549922 </v>
   <v>       0.76488736       0.66758426       0.50904758 </v>
   <v>       0.76183167       0.80791278       0.50606153 </v>
   <v>       0.76087055       0.95134440       0.50113741 </v>
   <v>       0.90388030       0.09435950       0.49961547 </v>
   <v>       0.90409806       0.23749906       0.49735464 </v>
   <v>       0.90461145       0.38079042       0.49735324 </v>
   <v>       0.90547034       0.52404683       0.49970402 </v>
   <v>       0.90640977       0.66714800       0.50294318 </v>
   <v>       0.90598769       0.81018696       0.50391728 </v>
   <v>       0.90463845       0.95205251       0.50221035 </v>
   <v>       0.46304635       0.35492861       0.50634706 </v>
   <v>       0.40210073       0.41810771       0.51210907 </v>
   <v>       0.40276512       0.56063112       0.50867875 </v>
   <v>       0.64635226       0.67641703       0.51286786 </v>
   <v>       0.64667806       0.54022945       0.51352814 </v>
   <v>       0.58543219       0.41591186       0.50540436 </v>
   <v>       0.58032015       0.73832590       0.50356801 </v>
   <v>       0.51640284       0.55436487       0.42922610 </v>
   <v>       0.51062254       0.56949552       0.52981232 </v>
   <v>       0.42702654       0.71542787       0.50194001 </v>
   <v>       0.52666595       0.53694363       0.48774402 </v>
  </varray>
  <varray name="selective"  type="logical" >
   <v type="logical" >  T  T  T </v>
   <v type="logical" >  T  T  T </v>
   <v type="logical" >  T  T  T </v>
   <v type="logical" >  T  T  T </v>
   <v type="logical" >  T  T  T </v>
   <v type="logical" >  T  T  T </v>
   <v type="logical" >  T  T  T </v>
   <v type="logical" >  T  T  T </v>
   <v type="logical" >  T  T  T </v>
   <v type="logical" >  T  T  T </v>
   <v type="logical" >  T  T  T </v>
   <v type="logical" >  T  T  T </v>
   <v type="logical" >  T  T  T </v>
   <v type="logical" >  T  T  T </v>
   <v type="logical" >  T  T  T </v>
   <v type="logical" >  T  T  T </v>
   <v type="logical" >  T  T  T </v>
   <v type="logical" >  T  T  T </v>
   <v type="logical" >  T  T  T </v>
   <v type="logical" >  T  T  T </v>
   <v type="logical" >  T  T  T </v>
   <v type="logical" >  T  T  T </v>
   <v type="logical" >  T  T  T </v>
   <v type="logical" >  T  T  T </v>
   <v type="logical" >  T  T  T </v>
   <v type="logical" >  T  T  T </v>
   <v type="logical" >  T  T  T </v>
   <v type="logical" >  T  T  T </v>
   <v type="logical" >  T  T  T </v>
   <v type="logical" >  T  T  T </v>
   <v type="logical" >  T  T  T </v>
   <v type="logical" >  T  T  T </v>
   <v type="logical" >  T  T  T </v>
   <v type="logical" >  T  T  T </v>
   <v type="logical" >  T  T  T </v>
   <v type="logical" >  T  T  T </v>
   <v type="logical" >  T  T  T </v>
   <v type="logical" >  T  T  T </v>
   <v type="logical" >  T  T  T </v>
   <v type="logical" >  T  T  T </v>
   <v type="logical" >  T  T  T </v>
   <v type="logical" >  T  T  T </v>
   <v type="logical" >  T  T  T </v>
   <v type="logical" >  T  T  T </v>
   <v type="logical" >  T  T  T </v>
   <v type="logical" >  T  T  T </v>
   <v type="logical" >  T  T  T </v>
   <v type="logical" >  T  T  T </v>
   <v type="logical" >  T  T  T </v>
   <v type="logical" >  T  T  T </v>
   <v type="logical" >  T  T  T </v>
   <v type="logical" >  T  T  T </v>
   <v type="logical" >  T  T  T </v>
   <v type="logical" >  T  T  T </v>
   <v type="logical" >  T  T  T </v>
   <v type="logical" >  T  T  T </v>
   <v type="logical" >  T  T  T </v>
   <v type="logical" >  T  T  T </v>
   <v type="logical" >  T  T  T </v>
   <v type="logical" >  T  T  T </v>
   <v type="logical" >  T  T  T </v>
   <v type="logical" >  T  T  T </v>
   <v type="logical" >  T  T  T </v>
   <v type="logical" >  T  T  T </v>
   <v type="logical" >  T  T  T </v>
   <v type="logical" >  T  T  T </v>
   <v type="logical" >  T  T  T </v>
   <v type="logical" >  T  T  T </v>
   <v type="logical" >  T  T  T </v>
   <v type="logical" >  T  T  T </v>
   <v type="logical" >  T  T  T </v>
   <v type="logical" >  T  T  T </v>
   <v type="logical" >  T  T  T </v>
   <v type="logical" >  T  T  T </v>
   <v type="logical" >  T  T  T </v>
   <v type="logical" >  T  T  T </v>
   <v type="logical" >  T  T  T </v>
   <v type="logical" >  T  T  T </v>
   <v type="logical" >  T  T  T </v>
   <v type="logical" >  T  T  T </v>
   <v type="logical" >  T  T  T </v>
   <v type="logical" >  T  T  T </v>
   <v type="logical" >  T  T  T </v>
   <v type="logical" >  T  T  T </v>
   <v type="logical" >  T  T  T </v>
   <v type="logical" >  T  T  T </v>
   <v type="logical" >  T  T  T </v>
   <v type="logical" >  T  T  T </v>
   <v type="logical" >  T  T  T </v>
   <v type="logical" >  T  T  T </v>
   <v type="logical" >  T  T  T </v>
   <v type="logical" >  T  T  T </v>
   <v type="logical" >  T  T  T </v>
   <v type="logical" >  T  T  T </v>
   <v type="logical" >  T  T  T </v>
   <v type="logical" >  T  T  T </v>
   <v type="logical" >  T  T  T </v>
   <v type="logical" >  T  T  T </v>
  </varray>
  <nose>
   <v>      -3.00000000       0.00000000       0.00010000       0.00010000 </v>
  </nose>
 </structure>
 <calculation>
  <scstep>
   <time name="dav">   43.49   44.05</time>
   <time name="total">   47.19   47.94</time>
   <energy>
    <i name="alphaZ">    176.01131809 </i>
    <i name="ewald">  36688.34888267 </i>
    <i name="hartreedc"> -46776.80442174 </i>
    <i name="XCdc">   1220.91983017 </i>
    <i name="pawpsdc">  10007.03170968 </i>
    <i name="pawaedc"> -10059.36457306 </i>
    <i name="eentropy">     -0.04003247 </i>
    <i name="bandstr">  -1612.39743858 </i>
    <i name="atom">  13611.23051297 </i>
    <i name="e_fr_energy">   3254.93578772 </i>
    <i name="e_wo_entrp">   3254.97582018 </i>
    <i name="e_0_energy">   3254.95580395 </i>
   </energy>
  </scstep>
  <scstep>
   <time name="dav">   56.37   57.39</time>
   <time name="total">   56.37   57.42</time>
   <energy>
    <i name="e_fr_energy">   -259.49676177 </i>
    <i name="e_wo_entrp">   -259.49630230 </i>
    <i name="e_0_energy">   -259.49653203 </i>
   </energy>
  </scstep>
  <scstep>
   <time name="dav">   48.45   49.48</time>
   <time name="total">   48.46   49.51</time>
   <energy>
    <i name="e_fr_energy">   -870.16557889 </i>
    <i name="e_wo_entrp">   -870.16556830 </i>
    <i name="e_0_energy">   -870.16557360 </i>
   </energy>
  </scstep>
  <scstep>
   <time name="dav">   48.95   49.81</time>
   <time name="total">   48.96   49.84</time>
   <energy>
    <i name="e_fr_energy">   -892.18733216 </i>
    <i name="e_wo_entrp">   -892.18731500 </i>
    <i name="e_0_energy">   -892.18732358 </i>
   </energy>
  </scstep>
  <scstep>
   <time name="dav">   53.57   54.50</time>
   <time name="total">   56.66   57.90</time>
   <energy>
    <i name="e_fr_energy">   -892.80309194 </i>
    <i name="e_wo_entrp">   -892.80307353 </i>
    <i name="e_0_energy">   -892.80308273 </i>
   </energy>
  </scstep>
  <scstep>
   <time name="dav">   46.69   48.20</time>
   <time name="total">   53.17   54.89</time>
   <energy>
    <i name="e_fr_energy">   -874.97880617 </i>
    <i name="e_wo_entrp">   -874.97624971 </i>
    <i name="e_0_energy">   -874.97752794 </i>
   </energy>
  </scstep>
  <scstep>
   <time name="dav">   46.38   47.28</time>
   <time name="total">   52.83   53.97</time>
   <energy>
    <i name="e_fr_energy">   -852.07128512 </i>
    <i name="e_wo_entrp">   -852.07126776 </i>
    <i name="e_0_energy">   -852.07127644 </i>
   </energy>
  </scstep>
  <scstep>
   <time name="dav">   47.06   47.83</time>
   <time name="total">   53.53   54.49</time>
   <energy>
    <i name="e_fr_energy">   -847.17752723 </i>
    <i name="e_wo_entrp">   -847.17752703 </i>
    <i name="e_0_energy">   -847.17752713 </i>
   </energy>
  </scstep>
  <scstep>
   <time name="dav">   45.72   46.21</time>
   <time name="total">   52.41   53.06</time>
   <energy>
    <i name="e_fr_energy">   -847.02094648 </i>
    <i name="e_wo_entrp">   -847.02094631 </i>
    <i name="e_0_energy">   -847.02094639 </i>
   </energy>
  </scstep>
  <scstep>
   <time name="dav">   44.68   45.58</time>
   <time name="total">   51.01   52.19</time>
   <energy>
    <i name="e_fr_energy">   -846.94923845 </i>
    <i name="e_wo_entrp">   -846.94923832 </i>
    <i name="e_0_energy">   -846.94923839 </i>
   </energy>
  </scstep>
  <scstep>
   <time name="dav">   45.37   46.09</time>
   <time name="total">   51.88   52.80</time>
   <energy>
    <i name="e_fr_energy">   -846.93654195 </i>
    <i name="e_wo_entrp">   -846.93654183 </i>
    <i name="e_0_energy">   -846.93654189 </i>
   </energy>
  </scstep>
  <scstep>
   <time name="dav">   49.23   50.01</time>
   <time name="total">   55.56   56.57</time>
   <energy>
    <i name="e_fr_energy">   -846.93516610 </i>
    <i name="e_wo_entrp">   -846.93516599 </i>
    <i name="e_0_energy">   -846.93516604 </i>
   </energy>
  </scstep>
  <scstep>
   <time name="dav">   46.82   47.32</time>
   <time name="total">   53.19   53.86</time>
   <energy>
    <i name="e_fr_energy">   -846.93487842 </i>
    <i name="e_wo_entrp">   -846.93487831 </i>
    <i name="e_0_energy">   -846.93487837 </i>
   </energy>
  </scstep>
  <scstep>
   <time name="dav">   44.67   45.26</time>
   <time name="total">   51.21   52.02</time>
   <energy>
    <i name="e_fr_energy">   -846.93499498 </i>
    <i name="e_wo_entrp">   -846.93499487 </i>
    <i name="e_0_energy">   -846.93499493 </i>
   </energy>
  </scstep>
  <scstep>
   <time name="dav">   46.63   47.34</time>
   <time name="total">   53.07   54.03</time>
   <energy>
    <i name="e_fr_energy">   -846.93503717 </i>
    <i name="e_wo_entrp">   -846.93503706 </i>
    <i name="e_0_energy">   -846.93503712 </i>
   </energy>
  </scstep>
  <scstep>
   <time name="dav">   41.55   42.43</time>
   <time name="total">   48.13   49.20</time>
   <energy>
    <i name="e_fr_energy">   -846.93504487 </i>
    <i name="e_wo_entrp">   -846.93504476 </i>
    <i name="e_0_energy">   -846.93504481 </i>
   </energy>
  </scstep>
  <scstep>
   <time name="dav">   39.61   40.03</time>
   <time name="total">   42.67   43.19</time>
   <energy>
    <i name="alphaZ">    176.01131809 </i>
    <i name="ewald">  36688.34888267 </i>
    <i name="hartreedc"> -48320.73605316 </i>
    <i name="XCdc">   1271.47882236 </i>
    <i name="pawpsdc">  37416.22491752 </i>
    <i name="pawaedc"> -37479.47309497 </i>
    <i name="eentropy">     -0.00000012 </i>
    <i name="bandstr">  -4210.02035000 </i>
    <i name="atom">  13611.23051297 </i>
    <i name="e_fr_energy">   -846.93504464 </i>
    <i name="e_wo_entrp">   -846.93504453 </i>
    <i name="e_0_energy">   -846.93504458 </i>
   </energy>
  </scstep>
  <structure>
   <crystal>
    <varray name="basis" >
     <v>      17.27103806       0.00000000       0.00000000 </v>
     <v>      -8.63551903      14.95715771       0.00000000 </v>
     <v>       0.00000000       0.00000000      15.00000000 </v>
    </varray>
    <i name="volume">   3874.88459904 </i>
    <varray name="rec_basis" >
     <v>       0.05790040       0.03342881       0.00000000 </v>
     <v>       0.00000000       0.06685762       0.00000000 </v>
     <v>       0.00000000       0.00000000       0.06666667 </v>
    </varray>
   </crystal>
   <varray name="positions" >
    <v>       0.99984466       0.99997927       0.50208149 </v>
    <v>       0.99927339       0.14248545       0.50050935 </v>
    <v>       0.99942706       0.28552490       0.49850034 </v>
    <v>       0.99988769       0.42855932       0.49755037 </v>
    <v>       0.00054382       0.57162738       0.49872554 </v>
    <v>       0.00147553       0.71488486       0.50097361 </v>
    <v>       0.00113475       0.85793503       0.50236660 </v>
    <v>       0.14321441       0.00063317       0.50230303 </v>
    <v>       0.14245527       0.14309227       0.50319643 </v>
    <v>       0.14191953       0.28559567       0.50262702 </v>
    <v>       0.14254327       0.42912112       0.50057100 </v>
    <v>       0.14311416       0.57166233       0.49900480 </v>
    <v>       0.14358438       0.71455744       0.49916259 </v>
    <v>       0.14345095       0.85769939       0.50049505 </v>
    <v>       0.28582929       0.00025320       0.50111438 </v>
    <v>       0.28562290       0.14296880       0.50412064 </v>
    <v>       0.28535220       0.28710874       0.50698603 </v>
    <v>       0.28430464       0.42863787       0.50677140 </v>
    <v>       0.28705694       0.57232980       0.50294599 </v>
    <v>       0.28622048       0.71522948       0.50003142 </v>
    <v>       0.28562413       0.85779519       0.49945215 </v>
    <v>       0.42865132       0.99993880       0.49940019 </v>
    <v>       0.42848262       0.14259648       0.50190996 </v>
    <v>       0.42684897       0.28239077       0.50559095 </v>
    <v>       0.42772624       0.85671423       0.49966050 </v>
    <v>       0.57084337       0.99938774       0.49845981 </v>
    <v>       0.57130560       0.14228456       0.49896559 </v>
    <v>       0.57238141       0.28592298       0.50225116 </v>
    <v>       0.56994647       0.85524224       0.50081114 </v>
    <v>       0.71305158       0.99865181       0.49916203 </v>
    <v>       0.71399060       0.14224018       0.49721083 </v>
    <v>       0.71432810       0.28537378       0.49871800 </v>
    <v>       0.71427278       0.42769865       0.50323550 </v>
    <v>       0.71899195       0.57355329       0.51029618 </v>
    <v>       0.71867948       0.71542199       0.51019501 </v>
    <v>       0.71237461       0.85585608       0.50351201 </v>
    <v>       0.85641591       0.99936159       0.50100367 </v>
    <v>       0.85629579       0.14213431       0.49799646 </v>
    <v>       0.85679112       0.28524253       0.49691493 </v>
    <v>       0.85751823       0.42842371       0.49885095 </v>
    <v>       0.85852220       0.57197435       0.50248771 </v>
    <v>       0.85991321       0.71540375       0.50514638 </v>
    <v>       0.85766385       0.85706884       0.50397425 </v>
    <v>       0.04728699       0.09522243       0.50186785 </v>
    <v>       0.04658250       0.23761854       0.50032232 </v>
    <v>       0.04706969       0.38092732       0.49848960 </v>
    <v>       0.04792632       0.52391207       0.49806962 </v>
    <v>       0.04844617       0.66699461       0.49941239 </v>
    <v>       0.04841656       0.81005024       0.50128116 </v>
    <v>       0.04801061       0.95282415       0.50223745 </v>
    <v>       0.19039617       0.09546465       0.50342503 </v>
    <v>       0.18967469       0.23821311       0.50423534 </v>
    <v>       0.18887858       0.38072529       0.50313263 </v>
    <v>       0.19089894       0.52464762       0.50059301 </v>
    <v>       0.19093699       0.66705458       0.49930550 </v>
    <v>       0.19081202       0.80999571       0.49959120 </v>
    <v>       0.19087765       0.95284787       0.50131611 </v>
    <v>       0.33339169       0.09556939       0.50248552 </v>
    <v>       0.33385568       0.23820306       0.50600567 </v>
    <v>       0.32964684       0.37987971       0.50950917 </v>
    <v>       0.33031860       0.52314882       0.50665044 </v>
    <v>       0.33692586       0.67060723       0.50159862 </v>
    <v>       0.33301408       0.81001499       0.49959733 </v>
    <v>       0.33331074       0.95272487       0.49988038 </v>
    <v>       0.47616581       0.09492766       0.49994419 </v>
    <v>       0.47552245       0.23769274       0.50333033 </v>
    <v>       0.47230980       0.80603406       0.50071086 </v>
    <v>       0.47591546       0.95211559       0.49899213 </v>
    <v>       0.61860170       0.09454530       0.49788374 </v>
    <v>       0.61922752       0.23765975       0.49984239 </v>
    <v>       0.62128843       0.37927222       0.50382884 </v>
    <v>       0.61898227       0.81094608       0.50276750 </v>
    <v>       0.61765465       0.95093392       0.49929700 </v>
    <v>       0.76114091       0.09436948       0.49771230 </v>
    <v>       0.76176315       0.23744731       0.49715733 </v>
    <v>       0.76227217       0.38058690       0.50009208 </v>
    <v>       0.76292692       0.52501523       0.50549922 </v>
    <v>       0.76488736       0.66758426       0.50904758 </v>
    <v>       0.76183167       0.80791278       0.50606153 </v>
    <v>       0.76087055       0.95134440       0.50113741 </v>
    <v>       0.90388030       0.09435950       0.49961547 </v>
    <v>       0.90409806       0.23749906       0.49735464 </v>
    <v>       0.90461145       0.38079042       0.49735324 </v>
    <v>       0.90547034       0.52404683       0.49970402 </v>
    <v>       0.90640977       0.66714800       0.50294318 </v>
    <v>       0.90598769       0.81018696       0.50391728 </v>
    <v>       0.90463845       0.95205251       0.50221035 </v>
    <v>       0.46304635       0.35492861       0.50634706 </v>
    <v>       0.40210073       0.41810771       0.51210907 </v>
    <v>       0.40276512       0.56063112       0.50867875 </v>
    <v>       0.64635226       0.67641703       0.51286786 </v>
    <v>       0.64667806       0.54022945       0.51352814 </v>
    <v>       0.58543219       0.41591186       0.50540436 </v>
    <v>       0.58032015       0.73832590       0.50356801 </v>
    <v>       0.51640284       0.55436487       0.42922610 </v>
    <v>       0.51062254       0.56949552       0.52981232 </v>
    <v>       0.42702654       0.71542787       0.50194001 </v>
    <v>       0.52666595       0.53694363       0.48774402 </v>
   </varray>
  </structure>
  <varray name="forces" >
   <v>      -0.00048026       0.00058441       0.00242080 </v>
   <v>       0.00000396      -0.00092792       0.00126556 </v>
   <v>      -0.00068290       0.00029015       0.00107624 </v>
   <v>      -0.00063006       0.00088628       0.00048334 </v>
   <v>      -0.00020467       0.00044408       0.00116225 </v>
   <v>      -0.00096484      -0.00109664       0.00300040 </v>
   <v>      -0.00131769       0.00128930       0.00387119 </v>
   <v>      -0.00103511       0.00330206       0.00203030 </v>
   <v>       0.00145120      -0.00099377       0.00143151 </v>
   <v>      -0.00119917      -0.00204127      -0.00037893 </v>
   <v>      -0.00108250       0.00061202       0.00026982 </v>
   <v>      -0.00107236       0.00236377      -0.00010337 </v>
   <v>       0.00078568      -0.00109242       0.00031945 </v>
   <v>       0.00111964       0.00194348       0.00160560 </v>
   <v>      -0.00097383       0.00189645       0.00147541 </v>
   <v>      -0.00030420       0.00249531       0.00074678 </v>
   <v>       0.00765045       0.00526392      -0.00203315 </v>
   <v>       0.00797538      -0.00237966      -0.00090142 </v>
   <v>       0.00095352      -0.00022930      -0.00080879 </v>
   <v>      -0.00003044       0.00111556      -0.00084630 </v>
   <v>       0.00161326      -0.00157705       0.00086152 </v>
   <v>       0.00490730      -0.00643183       0.00320334 </v>
   <v>      -0.00286104       0.00257850       0.00146716 </v>
   <v>      -0.00165786       0.00518924       0.00004264 </v>
   <v>       0.00110173      -0.00070729       0.00060222 </v>
   <v>       0.00434558      -0.00654314       0.00324718 </v>
   <v>       0.00133910      -0.00032851       0.00239363 </v>
   <v>      -0.00343171       0.00982887       0.00175749 </v>
   <v>       0.00039227      -0.00056406       0.00130493 </v>
   <v>      -0.00144129      -0.00258803       0.00117320 </v>
   <v>       0.00116131      -0.00133748       0.00149403 </v>
   <v>      -0.00047369       0.00256345       0.00151638 </v>
   <v>      -0.00686710       0.00213196       0.00143515 </v>
   <v>      -0.00784594      -0.00115535       0.00022793 </v>
   <v>      -0.00357198      -0.00432858      -0.00156948 </v>
   <v>      -0.00210568      -0.00216548       0.00126703 </v>
   <v>      -0.00160832      -0.00058924       0.00143495 </v>
   <v>       0.00052460      -0.00095655       0.00025056 </v>
   <v>       0.00006709       0.00065840       0.00106970 </v>
   <v>      -0.00136730       0.00059367       0.00161153 </v>
   <v>      -0.00406191      -0.00041403       0.00283029 </v>
   <v>      -0.00524326      -0.00219933       0.00266864 </v>
   <v>      -0.00400246      -0.00066166       0.00299435 </v>
   <v>       0.00006928       0.00058317       0.00193325 </v>
   <v>       0.00182179       0.00147466       0.00045749 </v>
   <v>       0.00136731      -0.00019068       0.00077634 </v>
   <v>       0.00077253      -0.00052322       0.00027470 </v>
   <v>      -0.00027134       0.00031114       0.00146800 </v>
   <v>       0.00141323      -0.00142370       0.00020932 </v>
   <v>       0.00055763      -0.00186469       0.00274006 </v>
   <v>      -0.00035042      -0.00019887       0.00157100 </v>
   <v>      -0.00317332      -0.00007956       0.00002586 </v>
   <v>      -0.00019230      -0.00031694      -0.00078010 </v>
   <v>       0.00290542      -0.00020434      -0.00074857 </v>
   <v>       0.00168208      -0.00261010       0.00033504 </v>
   <v>      -0.00241704       0.00601294      -0.00095704 </v>
   <v>       0.00253901      -0.00666259       0.00152911 </v>
   <v>       0.00400100      -0.00106952       0.00109862 </v>
   <v>      -0.00382555      -0.00315199       0.00202078 </v>
   <v>      -0.01022768      -0.00456080      -0.00451288 </v>
   <v>      -0.00180314       0.00030480      -0.00113222 </v>
   <v>      -0.00031317      -0.00107379      -0.00101410 </v>
   <v>      -0.00058607       0.00084789       0.00004006 </v>
   <v>      -0.00013584       0.00152767       0.00184151 </v>
   <v>       0.00126751       0.00273917       0.00226122 </v>
   <v>       0.00554957      -0.00593793      -0.00074177 </v>
   <v>      -0.00034125      -0.00002250       0.00011362 </v>
   <v>      -0.00357585       0.00402008       0.00237438 </v>
   <v>      -0.00156397       0.00423246       0.00253781 </v>
   <v>       0.00204967      -0.00262811       0.00178357 </v>
   <v>       0.00899015      -0.01140784       0.00041334 </v>
   <v>       0.00126492       0.00150336       0.00146994 </v>
   <v>      -0.00038696       0.00314520       0.00181870 </v>
   <v>       0.00050890       0.00229717       0.00174750 </v>
   <v>       0.00020184      -0.00021158       0.00110811 </v>
   <v>       0.00357121      -0.00286020       0.00129608 </v>
   <v>       0.00790503      -0.00053569       0.00090608 </v>
   <v>       0.00603504       0.00424936       0.00051292 </v>
   <v>       0.00337253       0.00487043       0.00015946 </v>
   <v>       0.00214446       0.00150209       0.00141195 </v>
   <v>       0.00082908       0.00098068       0.00154107 </v>
   <v>       0.00067427       0.00010536       0.00150510 </v>
   <v>       0.00057006      -0.00057363       0.00064811 </v>
   <v>       0.00232826      -0.00031190       0.00195701 </v>
   <v>       0.00543005       0.00134300       0.00207838 </v>
   <v>       0.00312459       0.00148460       0.00327310 </v>
   <v>       0.00335903      -0.00129835       0.00283552 </v>
   <v>       0.00043099      -0.00165684      -0.00100066 </v>
   <v>       0.00421823       0.00132232      -0.00766874 </v>
   <v>       0.00102680       0.00055979      -0.00145855 </v>
   <v>       0.00162382       0.00105848      -0.00451345 </v>
   <v>       0.00207807       0.00090023      -0.00840914 </v>
   <v>      -0.00413683       0.00274536       0.00123777 </v>
   <v>       0.00000859      -0.00047068       0.00139138 </v>
   <v>      -0.03537915       0.01149515      -0.02192251 </v>
   <v>       0.00462641      -0.01779658      -0.01062555 </v>
   <v>       0.00116231       0.00101493      -0.00093803 </v>
   <v>      -0.00167528       0.00228884      -0.03565101 </v>
  </varray>
  <varray name="stress" >
   <v>       5.09357161      -0.06548383       0.01905142 </v>
   <v>      -0.06548390       0.13289182      -0.00403025 </v>
   <v>       0.01905183      -0.00403061      -0.29518769 </v>
  </varray>
  <energy>
   <i name="e_fr_energy">   -854.76405746 </i>
   <i name="e_wo_entrp">   -854.76405735 </i>
   <i name="e_0_energy">   -854.76405741 </i>
  </energy>
  <time name="totalsc">  946.65  965.18</time>
 </calculation>
 <calculation>
  <scstep>
   <time name="dav">   41.95   43.19</time>
   <time name="total">   47.47   48.84</time>
   <energy>
    <i name="alphaZ">    176.01131809 </i>
    <i name="ewald">  36688.35261375 </i>
    <i name="hartreedc"> -48320.72653037 </i>
    <i name="XCdc">   1271.47879929 </i>
    <i name="pawpsdc">  37416.01981709 </i>
    <i name="pawaedc"> -37479.26784552 </i>
    <i name="eentropy">     -0.00000012 </i>
    <i name="bandstr">  -4210.03376859 </i>
    <i name="atom">  13611.23051297 </i>
    <i name="e_fr_energy">   -846.93508340 </i>
    <i name="e_wo_entrp">   -846.93508328 </i>
    <i name="e_0_energy">   -846.93508334 </i>
   </energy>
  </scstep>
  <scstep>
   <time name="dav">   43.49   44.55</time>
   <time name="total">   49.26   50.68</time>
   <energy>
    <i name="e_fr_energy">   -846.93508392 </i>
    <i name="e_wo_entrp">   -846.93508380 </i>
    <i name="e_0_energy">   -846.93508386 </i>
   </energy>
  </scstep>
  <scstep>
   <time name="dav">   30.62   30.91</time>
   <time name="total">   33.69   34.05</time>
   <energy>
    <i name="alphaZ">    176.01131809 </i>
    <i name="ewald">  36688.35261375 </i>
    <i name="hartreedc"> -48320.71277084 </i>
    <i name="XCdc">   1271.47858879 </i>
    <i name="pawpsdc">  37415.87356554 </i>
    <i name="pawaedc"> -37479.12158691 </i>
    <i name="eentropy">     -0.00000012 </i>
    <i name="bandstr">  -4210.04732470 </i>
    <i name="atom">  13611.23051297 </i>
    <i name="e_fr_energy">   -846.93508342 </i>
    <i name="e_wo_entrp">   -846.93508330 </i>
    <i name="e_0_energy">   -846.93508336 </i>
   </energy>
  </scstep>
  <structure>
   <crystal>
    <varray name="basis" >
     <v>      17.27103806       0.00000000       0.00000000 </v>
     <v>      -8.63551903      14.95715771       0.00000000 </v>
     <v>       0.00000000       0.00000000      15.00000000 </v>
    </varray>
    <i name="volume">   3874.88459904 </i>
    <varray name="rec_basis" >
     <v>       0.05790040       0.03342881       0.00000000 </v>
     <v>       0.00000000       0.06685762       0.00000000 </v>
     <v>       0.00000000       0.00000000       0.06666667 </v>
    </varray>
   </crystal>
   <varray name="positions" >
    <v>       0.99984455       0.99997962       0.50208296 </v>
    <v>       0.99927307       0.14248480       0.50051010 </v>
    <v>       0.99942676       0.28552508       0.49850105 </v>
    <v>       0.99988762       0.42855989       0.49755073 </v>
    <v>       0.00054384       0.57162765       0.49872626 </v>
    <v>       0.00147458       0.71488409       0.50097525 </v>
    <v>       0.00113438       0.85793584       0.50236880 </v>
    <v>       0.14321488       0.00063533       0.50230473 </v>
    <v>       0.14245576       0.14309157       0.50319752 </v>
    <v>       0.14191814       0.28559427       0.50262676 </v>
    <v>       0.14254284       0.42912151       0.50057125 </v>
    <v>       0.14311433       0.57166388       0.49900499 </v>
    <v>       0.14358446       0.71455668       0.49916323 </v>
    <v>       0.14345222       0.85770065       0.50049655 </v>
    <v>       0.28582933       0.00025443       0.50111590 </v>
    <v>       0.28562353       0.14297043       0.50412142 </v>
    <v>       0.28535838       0.28711223       0.50698473 </v>
    <v>       0.28430845       0.42863624       0.50677081 </v>
    <v>       0.28705744       0.57232961       0.50294556 </v>
    <v>       0.28622083       0.71523020       0.50003122 </v>
    <v>       0.28562452       0.85779409       0.49945330 </v>
    <v>       0.42865199       0.99993447       0.49940271 </v>
    <v>       0.42848180       0.14259817       0.50191118 </v>
    <v>       0.42684973       0.28239421       0.50559105 </v>
    <v>       0.42772664       0.85671374       0.49966110 </v>
    <v>       0.57084369       0.99938335       0.49846193 </v>
    <v>       0.57130625       0.14228432       0.49896720 </v>
    <v>       0.57238270       0.28592954       0.50225184 </v>
    <v>       0.56994650       0.85524185       0.50081143 </v>
    <v>       0.71304987       0.99865007       0.49916225 </v>
    <v>       0.71399082       0.14223927       0.49721172 </v>
    <v>       0.71432867       0.28537547       0.49871855 </v>
    <v>       0.71426950       0.42770005       0.50323453 </v>
    <v>       0.71898698       0.57355248       0.51029071 </v>
    <v>       0.71867599       0.71541910       0.51018842 </v>
    <v>       0.71237266       0.85585461       0.50351089 </v>
    <v>       0.85641477       0.99936117       0.50100382 </v>
    <v>       0.85629577       0.14213365       0.49799640 </v>
    <v>       0.85679137       0.28524296       0.49691553 </v>
    <v>       0.85751762       0.42842408       0.49885135 </v>
    <v>       0.85851968       0.57197404       0.50248796 </v>
    <v>       0.85990940       0.71540223       0.50514577 </v>
    <v>       0.85766129       0.85706837       0.50397460 </v>
    <v>       0.04728721       0.09522279       0.50186916 </v>
    <v>       0.04658404       0.23761950       0.50032261 </v>
    <v>       0.04707042       0.38092717       0.49849018 </v>
    <v>       0.04792660       0.52391170       0.49806995 </v>
    <v>       0.04844610       0.66699478       0.49941346 </v>
    <v>       0.04841687       0.81004924       0.50128125 </v>
    <v>       0.04801028       0.95282286       0.50223931 </v>
    <v>       0.19039587       0.09546447       0.50342637 </v>
    <v>       0.18967282       0.23821302       0.50423540 </v>
    <v>       0.18887835       0.38072505       0.50313210 </v>
    <v>       0.19090057       0.52464746       0.50059265 </v>
    <v>       0.19093708       0.66705281       0.49930612 </v>
    <v>       0.19081261       0.80999969       0.49959110 </v>
    <v>       0.19087686       0.95284337       0.50131762 </v>
    <v>       0.33339363       0.09556863       0.50248665 </v>
    <v>       0.33385240       0.23820092       0.50600716 </v>
    <v>       0.32963939       0.37987664       0.50950620 </v>
    <v>       0.33031770       0.52314899       0.50664980 </v>
    <v>       0.33692533       0.67060648       0.50159809 </v>
    <v>       0.33301402       0.81001553       0.49959778 </v>
    <v>       0.33331115       0.95272585       0.49988216 </v>
    <v>       0.47616745       0.09492947       0.49994592 </v>
    <v>       0.47552367       0.23768874       0.50332984 </v>
    <v>       0.47230959       0.80603403       0.50071083 </v>
    <v>       0.47591471       0.95211826       0.49899390 </v>
    <v>       0.61860219       0.09454812       0.49788540 </v>
    <v>       0.61922781       0.23765798       0.49984325 </v>
    <v>       0.62128981       0.37926459       0.50382782 </v>
    <v>       0.61898349       0.81094707       0.50276713 </v>
    <v>       0.61765546       0.95093601       0.49929779 </v>
    <v>       0.76114196       0.09437100       0.49771321 </v>
    <v>       0.76176319       0.23744715       0.49715791 </v>
    <v>       0.76227327       0.38058496       0.50009192 </v>
    <v>       0.76293129       0.52501483       0.50549669 </v>
    <v>       0.76489224       0.66758705       0.50904316 </v>
    <v>       0.76183524       0.80791602       0.50605853 </v>
    <v>       0.76087228       0.95134539       0.50113722 </v>
    <v>       0.90388110       0.09436014       0.49961615 </v>
    <v>       0.90409848       0.23749911       0.49735558 </v>
    <v>       0.90461159       0.38079002       0.49735348 </v>
    <v>       0.90547157       0.52404658       0.49970466 </v>
    <v>       0.90641333       0.66714886       0.50294310 </v>
    <v>       0.90598996       0.81018790       0.50391800 </v>
    <v>       0.90463994       0.95205161       0.50221149 </v>
    <v>       0.46304603       0.35492747       0.50634650 </v>
    <v>       0.40210357       0.41810860       0.51210460 </v>
    <v>       0.40276594       0.56063130       0.50867832 </v>
    <v>       0.64635361       0.67641790       0.51285716 </v>
    <v>       0.64667951       0.54022996       0.51351525 </v>
    <v>       0.58543072       0.41591371       0.50540398 </v>
    <v>       0.58031995       0.73832557       0.50356760 </v>
    <v>       0.51638411       0.55437485       0.42922478 </v>
    <v>       0.51062744       0.56948592       0.52981987 </v>
    <v>       0.42702757       0.71542853       0.50193929 </v>
    <v>       0.52666586       0.53694507       0.48773156 </v>
   </varray>
  </structure>
  <varray name="forces" >
   <v>       0.00053474      -0.00012657       0.00259090 </v>
   <v>       0.00051295       0.00019739       0.00135105 </v>
   <v>       0.00153762      -0.00198973       0.00029188 </v>
   <v>       0.00022091       0.00005211       0.00053884 </v>
   <v>       0.00044818       0.00009685       0.00125470 </v>
   <v>       0.00060730       0.00006021       0.00280500 </v>
   <v>       0.00077669      -0.00024947       0.00374612 </v>
   <v>       0.00052141      -0.00018776       0.00210253 </v>
   <v>       0.00023192       0.00002346       0.00153177 </v>
   <v>      -0.00062846      -0.00052906      -0.00033188 </v>
   <v>       0.00056137       0.00018876       0.00027361 </v>
   <v>       0.00071622      -0.00009898      -0.00004049 </v>
   <v>       0.00024936       0.00056162       0.00034772 </v>
   <v>       0.00010305       0.00005219       0.00144923 </v>
   <v>       0.00043183       0.00009168       0.00156754 </v>
   <v>       0.00039232      -0.00033368       0.00093544 </v>
   <v>      -0.00223151      -0.00180760      -0.00114010 </v>
   <v>      -0.00159081       0.00128906      -0.00274377 </v>
   <v>       0.00041964       0.00007516      -0.00087011 </v>
   <v>       0.00063459      -0.00001632      -0.00074739 </v>
   <v>       0.00006633       0.00060150       0.00085890 </v>
   <v>      -0.00151432       0.00235770       0.00220913 </v>
   <v>       0.00105042      -0.00035584       0.00137437 </v>
   <v>       0.00043850      -0.00113340       0.00001836 </v>
   <v>       0.00014609       0.00031412       0.00068849 </v>
   <v>      -0.00114069       0.00201869       0.00253154 </v>
   <v>       0.00035830       0.00049022       0.00249895 </v>
   <v>       0.00089767      -0.00120190       0.00139437 </v>
   <v>      -0.00001686       0.00004867       0.00131548 </v>
   <v>       0.00016600       0.00021545       0.00127828 </v>
   <v>       0.00021575       0.00029557       0.00162249 </v>
   <v>       0.00045634      -0.00032251       0.00152473 </v>
   <v>       0.00110483      -0.00018330       0.00112083 </v>
   <v>       0.00064765       0.00042336      -0.00069997 </v>
   <v>       0.00057587       0.00052933      -0.00213196 </v>
   <v>       0.00052508       0.00006409       0.00117658 </v>
   <v>       0.00058794      -0.00008379       0.00155370 </v>
   <v>       0.00076209       0.00007344       0.00047428 </v>
   <v>       0.00024975      -0.00004528       0.00112477 </v>
   <v>       0.00034419      -0.00011014       0.00158038 </v>
   <v>       0.00120014       0.00023594       0.00264055 </v>
   <v>       0.00150380       0.00067057       0.00240889 </v>
   <v>       0.00030432       0.00038139       0.00293190 </v>
   <v>       0.00024120       0.00001407       0.00201281 </v>
   <v>       0.00016609      -0.00010322       0.00050315 </v>
   <v>       0.00012628       0.00009403       0.00080169 </v>
   <v>       0.00030836       0.00024423       0.00034134 </v>
   <v>       0.00067747      -0.00008125       0.00156498 </v>
   <v>      -0.00003038       0.00031961       0.00216520 </v>
   <v>       0.00024825       0.00038120       0.00290158 </v>
   <v>       0.00060890       0.00040639       0.00164094 </v>
   <v>       0.00057724       0.00008074       0.00008182 </v>
   <v>       0.00074699      -0.00012217      -0.00065962 </v>
   <v>       0.00058338       0.00032318      -0.00072295 </v>
   <v>       0.00063917      -0.00057176       0.00029245 </v>
   <v>       0.00136362      -0.00026215       0.00023793 </v>
   <v>       0.00055454      -0.00135281       0.00172541 </v>
   <v>       0.00041538       0.00049300       0.00127007 </v>
   <v>       0.00177271       0.00098250      -0.00125499 </v>
   <v>       0.00059745      -0.00019694      -0.00408805 </v>
   <v>       0.00154899      -0.00066426      -0.00100469 </v>
   <v>       0.00071555       0.00023036      -0.00100918 </v>
   <v>       0.00046979       0.00013971       0.00010301 </v>
   <v>       0.00077184      -0.00005902       0.00197394 </v>
   <v>       0.00068904      -0.00016659       0.00243715 </v>
   <v>      -0.00069511       0.00164621       0.00129428 </v>
   <v>       0.00039647       0.00010745       0.00017198 </v>
   <v>       0.00080383      -0.00030285       0.00254939 </v>
   <v>       0.00076129      -0.00051938       0.00266615 </v>
   <v>       0.00028151       0.00063368       0.00193377 </v>
   <v>      -0.00016193       0.00122656       0.00110744 </v>
   <v>       0.00032049      -0.00032349       0.00148497 </v>
   <v>       0.00050278      -0.00011616       0.00193851 </v>
   <v>       0.00066688      -0.00040749       0.00170847 </v>
   <v>       0.00042941       0.00006637       0.00119397 </v>
   <v>      -0.00015906       0.00043848       0.00148015 </v>
   <v>      -0.00088784       0.00010919       0.00127538 </v>
   <v>      -0.00037083      -0.00017483       0.00052837 </v>
   <v>      -0.00024767      -0.00021497       0.00031799 </v>
   <v>       0.00019476      -0.00014681       0.00140860 </v>
   <v>       0.00040897      -0.00014368       0.00150364 </v>
   <v>       0.00046311      -0.00014281       0.00146533 </v>
   <v>       0.00019019       0.00012470       0.00075640 </v>
   <v>       0.00020274       0.00000955       0.00207050 </v>
   <v>       0.00044826       0.00023250       0.00239691 </v>
   <v>      -0.00004537      -0.00007540       0.00344580 </v>
   <v>      -0.00085024       0.00084885       0.00139132 </v>
   <v>       0.00045875       0.00032927      -0.00095194 </v>
   <v>       0.00017696      -0.00100970      -0.00782045 </v>
   <v>       0.00046552       0.00028015      -0.00140628 </v>
   <v>      -0.00003198      -0.00036333      -0.00449749 </v>
   <v>      -0.00066473      -0.00039296      -0.00825241 </v>
   <v>       0.00063853      -0.00046696       0.00112147 </v>
   <v>       0.00015038      -0.00000968       0.00143360 </v>
   <v>      -0.03498183       0.01120436      -0.02137166 </v>
   <v>       0.00470274      -0.01789950      -0.01077136 </v>
   <v>       0.00001682      -0.00000699      -0.00089615 </v>
   <v>      -0.00075414       0.00269761      -0.03639831 </v>
  </varray>
  <varray name="stress" >
   <v>       5.09050904      -0.06344653       0.01985226 </v>
   <v>      -0.06344659       0.13220593      -0.00489131 </v>
   <v>       0.01985267      -0.00489167      -0.29401799 </v>
  </varray>
  <energy>
   <i name="e_fr_energy">   -854.76409397 </i>
   <i name="e_wo_entrp">   -854.76409386 </i>
   <i name="e_0_energy">   -854.76409391 </i>
  </energy>
  <time name="totalsc">  201.84  206.14</time>
 </calculation>
 <calculation>
  <scstep>
   <time name="dav">   42.39   43.18</time>
   <time name="total">   48.36   49.27</time>
   <energy>
    <i name="alphaZ">    176.01131809 </i>
    <i name="ewald">  36688.35715417 </i>
    <i name="hartreedc"> -48320.70451611 </i>
    <i name="XCdc">   1271.47828792 </i>
    <i name="pawpsdc">  37415.69985435 </i>
    <i name="pawaedc"> -37478.94787834 </i>
    <i name="eentropy">     -0.00000012 </i>
    <i name="bandstr">  -4210.05987099 </i>
    <i name="atom">  13611.23051297 </i>
    <i name="e_fr_energy">   -846.93513805 </i>
    <i name="e_wo_entrp">   -846.93513794 </i>
    <i name="e_0_energy">   -846.93513800 </i>
   </energy>
  </scstep>
  <scstep>
   <time name="dav">   40.87   42.92</time>
   <time name="total">   47.22   49.51</time>
   <energy>
    <i name="e_fr_energy">   -846.93513732 </i>
    <i name="e_wo_entrp">   -846.93513720 </i>
    <i name="e_0_energy">   -846.93513726 </i>
   </energy>
  </scstep>
  <scstep>
   <time name="dav">   30.64   31.24</time>
   <time name="total">   33.70   34.39</time>
   <energy>
    <i name="alphaZ">    176.01131809 </i>
    <i name="ewald">  36688.35715417 </i>
[...]
       <r>   -14.1835    10.4582    55.7253 </r>
       <r>   -14.0768    10.6241    56.8586 </r>
       <r>   -13.9702     8.0234    57.7144 </r>
       <r>   -13.8635     6.1629    58.3717 </r>
       <r>   -13.7568     4.0682    58.8057 </r>
       <r>   -13.6502     4.2561    59.2596 </r>
       <r>   -13.5435     7.0158    60.0080 </r>
       <r>   -13.4368     8.7191    60.9380 </r>
       <r>   -13.3302     8.6839    61.8642 </r>
       <r>   -13.2235     9.3257    62.8590 </r>
       <r>   -13.1168     5.9194    63.4903 </r>
       <r>   -13.0102     6.4660    64.1800 </r>
       <r>   -12.9035     2.9926    64.4992 </r>
       <r>   -12.7968     2.0327    64.7161 </r>
       <r>   -12.6902     9.7091    65.7517 </r>
       <r>   -12.5835     6.1516    66.4078 </r>
       <r>   -12.4769    12.1022    67.6987 </r>
       <r>   -12.3702    16.3147    69.4389 </r>
       <r>   -12.2635    18.2550    71.3860 </r>
       <r>   -12.1569     9.0797    72.3545 </r>
       <r>   -12.0502     3.6188    72.7405 </r>
       <r>   -11.9435     2.1647    72.9714 </r>
       <r>   -11.8369     9.6135    73.9968 </r>
       <r>   -11.7302     6.5369    74.6941 </r>
       <r>   -11.6235     9.1838    75.6737 </r>
       <r>   -11.5169     5.3858    76.2481 </r>
       <r>   -11.4102    12.5562    77.5874 </r>
       <r>   -11.3036    11.2132    78.7835 </r>
       <r>   -11.1969    11.7599    80.0378 </r>
       <r>   -11.0902    12.0412    81.3222 </r>
       <r>   -10.9836     6.6244    82.0288 </r>
       <r>   -10.8769     9.9702    83.0923 </r>
       <r>   -10.7702    13.0053    84.4795 </r>
       <r>   -10.6636    10.0752    85.5541 </r>
       <r>   -10.5569     6.6598    86.2645 </r>
       <r>   -10.4502     5.5963    86.8614 </r>
       <r>   -10.3436     3.1816    87.2008 </r>
       <r>   -10.2369     3.8261    87.6089 </r>
       <r>   -10.1302    14.8783    89.1958 </r>
       <r>   -10.0236    17.6153    91.0748 </r>
       <r>    -9.9169    15.1993    92.6960 </r>
       <r>    -9.8103    18.1173    94.6284 </r>
       <r>    -9.7036    18.6472    96.6174 </r>
       <r>    -9.5969    16.7510    98.4042 </r>
       <r>    -9.4903    11.0487    99.5827 </r>
       <r>    -9.3836    18.4243   101.5479 </r>
       <r>    -9.2769    17.7855   103.4450 </r>
       <r>    -9.1703    14.9333   105.0378 </r>
       <r>    -9.0636    19.9275   107.1633 </r>
       <r>    -8.9569    19.6217   109.2563 </r>
       <r>    -8.8503    32.8509   112.7603 </r>
       <r>    -8.7436    26.9033   115.6299 </r>
       <r>    -8.6369    19.8916   117.7516 </r>
       <r>    -8.5303    16.8451   119.5484 </r>
       <r>    -8.4236    22.1769   121.9139 </r>
       <r>    -8.3170    16.3736   123.6603 </r>
       <r>    -8.2103    18.9319   125.6797 </r>
       <r>    -8.1036    25.6754   128.4183 </r>
       <r>    -7.9970    20.9280   130.6506 </r>
       <r>    -7.8903    14.1620   132.1612 </r>
       <r>    -7.7836    14.8161   133.7415 </r>
       <r>    -7.6770    19.4706   135.8183 </r>
       <r>    -7.5703    17.8391   137.7211 </r>
       <r>    -7.4636     9.3854   138.7222 </r>
       <r>    -7.3570     4.9328   139.2484 </r>
       <r>    -7.2503    16.1586   140.9719 </r>
       <r>    -7.1437    27.0606   143.8583 </r>
       <r>    -7.0370    20.4969   146.0446 </r>
       <r>    -6.9303    15.1951   147.6654 </r>
       <r>    -6.8237    10.3521   148.7695 </r>
       <r>    -6.7170    14.4486   150.3107 </r>
       <r>    -6.6103    14.4360   151.8505 </r>
       <r>    -6.5037     5.3614   152.4224 </r>
       <r>    -6.3970    10.7910   153.5734 </r>
       <r>    -6.2903    14.1584   155.0836 </r>
       <r>    -6.1837    13.3661   156.5093 </r>
       <r>    -6.0770    21.8526   158.8401 </r>
       <r>    -5.9703    15.5193   160.4955 </r>
       <r>    -5.8637    12.2981   161.8073 </r>
       <r>    -5.7570    13.0562   163.1999 </r>
       <r>    -5.6504    13.1370   164.6011 </r>
       <r>    -5.5437    15.9559   166.3031 </r>
       <r>    -5.4370     7.8337   167.1386 </r>
       <r>    -5.3304     4.6714   167.6369 </r>
       <r>    -5.2237     2.2635   167.8783 </r>
       <r>    -5.1170     2.2980   168.1235 </r>
       <r>    -5.0104    14.0598   169.6231 </r>
       <r>    -4.9037    21.2429   171.8890 </r>
       <r>    -4.7970    16.6856   173.6687 </r>
       <r>    -4.6904    13.0376   175.0594 </r>
       <r>    -4.5837     6.8287   175.7878 </r>
       <r>    -4.4771    12.6535   177.1374 </r>
       <r>    -4.3704     1.0578   177.2503 </r>
       <r>    -4.2637     2.3457   177.5005 </r>
       <r>    -4.1571     9.4868   178.5124 </r>
       <r>    -4.0504     6.8968   179.2480 </r>
       <r>    -3.9437     7.4207   180.0395 </r>
       <r>    -3.8371     9.0122   181.0008 </r>
       <r>    -3.7304     5.3290   181.5692 </r>
       <r>    -3.6237     3.9141   181.9867 </r>
       <r>    -3.5171     0.1245   182.0000 </r>
       <r>    -3.4104     0.1651   182.0176 </r>
       <r>    -3.3037     2.1867   182.2509 </r>
       <r>    -3.1971     5.8514   182.8750 </r>
       <r>    -3.0904     3.3580   183.2332 </r>
       <r>    -2.9838     2.2463   183.4728 </r>
       <r>    -2.8771     0.2554   183.5000 </r>
       <r>    -2.7704     0.0000   183.5000 </r>
       <r>    -2.6638     0.1108   183.5118 </r>
       <r>    -2.5571     3.0755   183.8399 </r>
       <r>    -2.4504     1.4968   183.9995 </r>
       <r>    -2.3438     0.0047   184.0000 </r>
       <r>    -2.2371     0.7209   184.0769 </r>
       <r>    -2.1304     3.8138   184.4837 </r>
       <r>    -2.0238     0.1527   184.5000 </r>
       <r>    -1.9171     0.0033   184.5004 </r>
       <r>    -1.8104     1.2056   184.6289 </r>
       <r>    -1.7038     2.5144   184.8971 </r>
       <r>    -1.5971     4.1170   185.3363 </r>
       <r>    -1.4905     5.5560   185.9289 </r>
       <r>    -1.3838     0.6976   186.0033 </r>
       <r>    -1.2771     2.5885   186.2794 </r>
       <r>    -1.1705     5.6882   186.8861 </r>
       <r>    -1.0638     5.4601   187.4685 </r>
       <r>    -0.9571     0.7421   187.5477 </r>
       <r>    -0.8505     6.8173   188.2749 </r>
       <r>    -0.7438    18.2511   190.2216 </r>
       <r>    -0.6371     7.3671   191.0074 </r>
       <r>    -0.5305     8.6764   191.9329 </r>
       <r>    -0.4238    10.5850   193.0619 </r>
       <r>    -0.3172     6.6458   193.7708 </r>
       <r>    -0.2105     4.4447   194.2449 </r>
       <r>    -0.1038     6.3209   194.9191 </r>
       <r>     0.0028    10.5907   196.0487 </r>
       <r>     0.1095     9.5031   197.0624 </r>
       <r>     0.2162    10.3656   198.1680 </r>
       <r>     0.3228    10.8759   199.3281 </r>
       <r>     0.4295     4.4776   199.8057 </r>
       <r>     0.5362     2.7853   200.1027 </r>
       <r>     0.6428    12.4760   201.4335 </r>
       <r>     0.7495     6.7698   202.1556 </r>
       <r>     0.8562     8.7950   203.0937 </r>
       <r>     0.9628     6.0879   203.7430 </r>
       <r>     1.0695    10.6086   204.8746 </r>
       <r>     1.1761     7.3846   205.6623 </r>
       <r>     1.2828     7.6705   206.4804 </r>
       <r>     1.3895     9.6700   207.5119 </r>
       <r>     1.4961     8.9512   208.4666 </r>
       <r>     1.6028    23.0975   210.9303 </r>
       <r>     1.7095    16.7717   212.7193 </r>
       <r>     1.8161     9.0941   213.6893 </r>
       <r>     1.9228     7.0623   214.4426 </r>
       <r>     2.0295    15.0890   216.0520 </r>
       <r>     2.1361    25.6083   218.7835 </r>
       <r>     2.2428    14.5295   220.3333 </r>
       <r>     2.3495    15.2748   221.9625 </r>
       <r>     2.4561    30.7527   225.2427 </r>
       <r>     2.5628     8.8440   226.1861 </r>
       <r>     2.6694     9.5590   227.2057 </r>
       <r>     2.7761    14.1697   228.7171 </r>
       <r>     2.8828    30.0043   231.9175 </r>
       <r>     2.9894    39.5477   236.1358 </r>
       <r>     3.0961    21.1158   238.3881 </r>
       <r>     3.2028    20.0802   240.5299 </r>
       <r>     3.3094    21.0520   242.7754 </r>
       <r>     3.4161    17.0448   244.5935 </r>
       <r>     3.5228    24.1281   247.1671 </r>
       <r>     3.6294    18.5992   249.1509 </r>
       <r>     3.7361    13.7079   250.6131 </r>
       <r>     3.8427    30.3876   253.8543 </r>
       <r>     3.9494    19.1551   255.8975 </r>
       <r>     4.0561    25.3306   258.5993 </r>
       <r>     4.1627    15.3381   260.2354 </r>
       <r>     4.2694    20.8287   262.4570 </r>
       <r>     4.3761    32.4180   265.9149 </r>
       <r>     4.4827    31.6621   269.2921 </r>
       <r>     4.5894     6.5568   269.9915 </r>
       <r>     4.6961     0.0800   270.0000 </r>
       <r>     4.8027     0.0000   270.0000 </r>
       <r>     4.9094     0.0000   270.0000 </r>
       <r>     5.0161     0.0000   270.0000 </r>
       <r>     5.1227     0.0000   270.0000 </r>
       <r>     5.2294     0.0000   270.0000 </r>
       <r>     5.3360     0.0000   270.0000 </r>
       <r>     5.4427     0.0000   270.0000 </r>
       <r>     5.5494     0.0000   270.0000 </r>
       <r>     5.6560     0.0000   270.0000 </r>
       <r>     5.7627     0.0000   270.0000 </r>
       <r>     5.8694     0.0000   270.0000 </r>
       <r>     5.9760     0.0000   270.0000 </r>
      </set>
     </set>
    </array>
   </total>
  </dos>
 </calculation>
 <structure name="finalpos" >
  <crystal>
   <varray name="basis" >
    <v>      17.27103806       0.00000000       0.00000000 </v>
    <v>      -8.63551903      14.95715771       0.00000000 </v>
    <v>       0.00000000       0.00000000      15.00000000 </v>
   </varray>
   <i name="volume">   3874.88459904 </i>
   <varray name="rec_basis" >
    <v>       0.05790040       0.03342881       0.00000000 </v>
    <v>       0.00000000       0.06685762       0.00000000 </v>
    <v>       0.00000000       0.00000000       0.06666667 </v>
   </varray>
  </crystal>
  <varray name="positions" >
   <v>       0.99992281       0.99997876       0.50260151 </v>
   <v>       0.99935407       0.14248565       0.50074058 </v>
   <v>       0.99951583       0.28553567       0.49856183 </v>
   <v>       0.99997407       0.42856389       0.49766891 </v>
   <v>       0.00062144       0.57162542       0.49898136 </v>
   <v>       0.00151378       0.71486259       0.50130102 </v>
   <v>       0.00117674       0.85790936       0.50276662 </v>
   <v>       0.14326508       0.00060843       0.50288900 </v>
   <v>       0.14253146       0.14309008       0.50346085 </v>
   <v>       0.14200383       0.28560712       0.50258436 </v>
   <v>       0.14264247       0.42913934       0.50052385 </v>
   <v>       0.14320117       0.57167722       0.49907185 </v>
   <v>       0.14364782       0.71456222       0.49950447 </v>
   <v>       0.14350051       0.85767854       0.50110632 </v>
   <v>       0.28587963       0.00024861       0.50173106 </v>
   <v>       0.28567014       0.14294860       0.50435671 </v>
   <v>       0.28543198       0.28709900       0.50675233 </v>
   <v>       0.28443690       0.42867654       0.50655534 </v>
   <v>       0.28715514       0.57235107       0.50280637 </v>
   <v>       0.28628723       0.71524587       0.50012833 </v>
   <v>       0.28568776       0.85780349       0.49996300 </v>
   <v>       0.42870569       0.99994454       0.49998283 </v>
   <v>       0.42854021       0.14259478       0.50226825 </v>
   <v>       0.42691600       0.28238408       0.50541051 </v>
   <v>       0.42778398       0.85672900       0.49993945 </v>
   <v>       0.57091220       0.99941223       0.49892943 </v>
   <v>       0.57138076       0.14229652       0.49937928 </v>
   <v>       0.57244571       0.28592872       0.50225259 </v>
   <v>       0.57001696       0.85528498       0.50083560 </v>
   <v>       0.71312923       0.99867606       0.49932903 </v>
   <v>       0.71407957       0.14226109       0.49763161 </v>
   <v>       0.71440904       0.28538562       0.49893190 </v>
   <v>       0.71431384       0.42769455       0.50284373 </v>
   <v>       0.71892778       0.57351373       0.50818990 </v>
   <v>       0.71862532       0.71538441       0.50808004 </v>
   <v>       0.71243470       0.85588657       0.50301513 </v>
   <v>       0.85649471       0.99937778       0.50113354 </v>
   <v>       0.85638829       0.14215889       0.49821211 </v>
   <v>       0.85688270       0.28526163       0.49712391 </v>
   <v>       0.85760007       0.42843769       0.49895168 </v>
   <v>       0.85856714       0.57196730       0.50240241 </v>
   <v>       0.85991315       0.71537834       0.50472049 </v>
   <v>       0.85771939       0.85707870       0.50384130 </v>
   <v>       0.04736565       0.09521941       0.50224511 </v>
   <v>       0.04666789       0.23762585       0.50038969 </v>
   <v>       0.04716750       0.38093786       0.49851837 </v>
   <v>       0.04801485       0.52391716       0.49822530 </v>
   <v>       0.04851156       0.66699603       0.49975435 </v>
   <v>       0.04846649       0.81002676       0.50175707 </v>
   <v>       0.04806172       0.95279431       0.50280439 </v>
   <v>       0.19044659       0.09544247       0.50380773 </v>
   <v>       0.18975005       0.23821207       0.50425115 </v>
   <v>       0.18898886       0.38074776       0.50302484 </v>
   <v>       0.19099548       0.52466350       0.50051685 </v>
   <v>       0.19100933       0.66706994       0.49947162 </v>
   <v>       0.19088062       0.81000483       0.50010701 </v>
   <v>       0.19093064       0.95282099       0.50196506 </v>
   <v>       0.33345167       0.09556064       0.50291259 </v>
   <v>       0.33391909       0.23818531       0.50591359 </v>
   <v>       0.32973816       0.37987047       0.50900252 </v>
   <v>       0.33045905       0.52320032       0.50652954 </v>
   <v>       0.33700167       0.67063146       0.50151621 </v>
   <v>       0.33307886       0.81002821       0.49986736 </v>
   <v>       0.33336448       0.95272800       0.50052213 </v>
   <v>       0.47623640       0.09494135       0.50044210 </v>
   <v>       0.47558791       0.23768345       0.50337880 </v>
   <v>       0.47238085       0.80606755       0.50077872 </v>
   <v>       0.47596918       0.95212890       0.49944408 </v>
   <v>       0.61868730       0.09457720       0.49839278 </v>
   <v>       0.61929811       0.23766944       0.50003976 </v>
   <v>       0.62134565       0.37926406       0.50356361 </v>
   <v>       0.61904379       0.81098273       0.50245530 </v>
   <v>       0.61773302       0.95097683       0.49954075 </v>
   <v>       0.76123297       0.09439353       0.49801976 </v>
   <v>       0.76185190       0.23746813       0.49747812 </v>
   <v>       0.76234863       0.38059415       0.50008819 </v>
   <v>       0.76295746       0.52499912       0.50468022 </v>
   <v>       0.76483924       0.66755073       0.50746990 </v>
   <v>       0.76187921       0.80792236       0.50512245 </v>
   <v>       0.76094396       0.95136879       0.50105001 </v>
   <v>       0.90396280       0.09437254       0.49982577 </v>
   <v>       0.90419046       0.23751859       0.49751670 </v>
   <v>       0.90469779       0.38079890       0.49750295 </v>
   <v>       0.90554539       0.52405673       0.49988466 </v>
   <v>       0.90644225       0.66713611       0.50292159 </v>
   <v>       0.90602326       0.81017254       0.50389465 </v>
   <v>       0.90471473       0.95206983       0.50246997 </v>
   <v>       0.46313012       0.35492055       0.50585711 </v>
   <v>       0.40222761       0.41802769       0.51095424 </v>
   <v>       0.40291384       0.56074493       0.50889855 </v>
   <v>       0.64626149       0.67634694       0.50929576 </v>
   <v>       0.64657220       0.54016163       0.50983078 </v>
   <v>       0.58547988       0.41590439       0.50498304 </v>
   <v>       0.58037777       0.73835903       0.50322706 </v>
   <v>       0.51073682       0.55630076       0.42949800 </v>
   <v>       0.51168647       0.56682684       0.53167278 </v>
   <v>       0.42710477       0.71546065       0.50179571 </v>
   <v>       0.52663817       0.53783182       0.48453526 </v>
  </varray>
  <varray name="selective"  type="logical" >
   <v type="logical" >  T  T  T </v>
   <v type="logical" >  T  T  T </v>
   <v type="logical" >  T  T  T </v>
   <v type="logical" >  T  T  T </v>
   <v type="logical" >  T  T  T </v>
   <v type="logical" >  T  T  T </v>
   <v type="logical" >  T  T  T </v>
   <v type="logical" >  T  T  T </v>
   <v type="logical" >  T  T  T </v>
   <v type="logical" >  T  T  T </v>
   <v type="logical" >  T  T  T </v>
   <v type="logical" >  T  T  T </v>
   <v type="logical" >  T  T  T </v>
   <v type="logical" >  T  T  T </v>
   <v type="logical" >  T  T  T </v>
   <v type="logical" >  T  T  T </v>
   <v type="logical" >  T  T  T </v>
   <v type="logical" >  T  T  T </v>
   <v type="logical" >  T  T  T </v>
   <v type="logical" >  T  T  T </v>
   <v type="logical" >  T  T  T </v>
   <v type="logical" >  T  T  T </v>
   <v type="logical" >  T  T  T </v>
   <v type="logical" >  T  T  T </v>
   <v type="logical" >  T  T  T </v>
   <v type="logical" >  T  T  T </v>
   <v type="logical" >  T  T  T </v>
   <v type="logical" >  T  T  T </v>
   <v type="logical" >  T  T  T </v>
   <v type="logical" >  T  T  T </v>
   <v type="logical" >  T  T  T </v>
   <v type="logical" >  T  T  T </v>
   <v type="logical" >  T  T  T </v>
   <v type="logical" >  T  T  T </v>
   <v type="logical" >  T  T  T </v>
   <v type="logical" >  T  T  T </v>
   <v type="logical" >  T  T  T </v>
   <v type="logical" >  T  T  T </v>
   <v type="logical" >  T  T  T </v>
   <v type="logical" >  T  T  T </v>
   <v type="logical" >  T  T  T </v>
   <v type="logical" >  T  T  T </v>
   <v type="logical" >  T  T  T </v>
   <v type="logical" >  T  T  T </v>
   <v type="logical" >  T  T  T </v>
   <v type="logical" >  T  T  T </v>
   <v type="logical" >  T  T  T </v>
   <v type="logical" >  T  T  T </v>
   <v type="logical" >  T  T  T </v>
   <v type="logical" >  T  T  T </v>
   <v type="logical" >  T  T  T </v>
   <v type="logical" >  T  T  T </v>
   <v type="logical" >  T  T  T </v>
   <v type="logical" >  T  T  T </v>
   <v type="logical" >  T  T  T </v>
   <v type="logical" >  T  T  T </v>
   <v type="logical" >  T  T  T </v>
   <v type="logical" >  T  T  T </v>
   <v type="logical" >  T  T  T </v>
   <v type="logical" >  T  T  T </v>
   <v type="logical" >  T  T  T </v>
   <v type="logical" >  T  T  T </v>
   <v type="logical" >  T  T  T </v>
   <v type="logical" >  T  T  T </v>
   <v type="logical" >  T  T  T </v>
   <v type="logical" >  T  T  T </v>
   <v type="logical" >  T  T  T </v>
   <v type="logical" >  T  T  T </v>
   <v type="logical" >  T  T  T </v>
   <v type="logical" >  T  T  T </v>
   <v type="logical" >  T  T  T </v>
   <v type="logical" >  T  T  T </v>
   <v type="logical" >  T  T  T </v>
   <v type="logical" >  T  T  T </v>
   <v type="logical" >  T  T  T </v>
   <v type="logical" >  T  T  T </v>
   <v type="logical" >  T  T  T </v>
   <v type="logical" >  T  T  T </v>
   <v type="logical" >  T  T  T </v>
   <v type="logical" >  T  T  T </v>
   <v type="logical" >  T  T  T </v>
   <v type="logical" >  T  T  T </v>
   <v type="logical" >  T  T  T </v>
   <v type="logical" >  T  T  T </v>
   <v type="logical" >  T  T  T </v>
   <v type="logical" >  T  T  T </v>
   <v type="logical" >  T  T  T </v>
   <v type="logical" >  T  T  T </v>
   <v type="logical" >  T  T  T </v>
   <v type="logical" >  T  T  T </v>
   <v type="logical" >  T  T  T </v>
   <v type="logical" >  T  T  T </v>
   <v type="logical" >  T  T  T </v>
   <v type="logical" >  T  T  T </v>
   <v type="logical" >  T  T  T </v>
   <v type="logical" >  T  T  T </v>
   <v type="logical" >  T  T  T </v>
   <v type="logical" >  T  T  T </v>
  </varray>
  <nose>
   <v>      -3.00000000       0.00000000       0.00010000       0.00010000 </v>
  </nose>
 </structure>
</modeling>
