unknown system                          
           1
    17.271038    0.000000    0.000000
    -8.635519   14.957158    0.000000
     0.000000    0.000000   15.000000
   C    H    N    O 
    87     9     1     1
Direct configuration=     1
   0.99984455  0.99997962  0.50208296
   0.99927307  0.14248480  0.50051010
   0.99942676  0.28552508  0.49850105
   0.99988762  0.42855989  0.49755073
   0.00054384  0.57162765  0.49872626
   0.00147458  0.71488409  0.50097525
   0.00113438  0.85793584  0.50236880
   0.14321488  0.00063533  0.50230473
   0.14245576  0.14309157  0.50319752
   0.14191814  0.28559427  0.50262676
   0.14254284  0.42912151  0.50057125
   0.14311433  0.57166388  0.49900499
   0.14358446  0.71455668  0.49916323
   0.14345222  0.85770065  0.50049655
   0.28582933  0.00025443  0.50111590
   0.28562353  0.14297043  0.50412142
   0.28535838  0.28711223  0.50698473
   0.28430845  0.42863624  0.50677081
   0.28705744  0.57232961  0.50294556
   0.28622083  0.71523020  0.50003122
   0.28562452  0.85779409  0.49945330
   0.42865199  0.99993447  0.49940271
   0.42848180  0.14259817  0.50191118
   0.42684973  0.28239421  0.50559105
   0.42772664  0.85671374  0.49966110
   0.57084369  0.99938335  0.49846193
   0.57130625  0.14228432  0.49896720
   0.57238270  0.28592954  0.50225184
   0.56994650  0.85524185  0.50081143
   0.71304987  0.99865007  0.49916225
   0.71399082  0.14223927  0.49721172
   0.71432867  0.28537547  0.49871855
   0.71426950  0.42770005  0.50323453
   0.71898698  0.57355248  0.51029071
   0.71867599  0.71541910  0.51018842
   0.71237266  0.85585461  0.50351089
   0.85641477  0.99936117  0.50100382
   0.85629577  0.14213365  0.49799640
   0.85679137  0.28524296  0.49691553
   0.85751762  0.42842408  0.49885135
   0.85851968  0.57197404  0.50248796
   0.85990940  0.71540223  0.50514577
   0.85766129  0.85706837  0.50397460
   0.04728721  0.09522279  0.50186916
   0.04658404  0.23761950  0.50032261
   0.04707042  0.38092717  0.49849018
   0.04792660  0.52391170  0.49806995
   0.04844610  0.66699478  0.49941346
   0.04841687  0.81004924  0.50128125
   0.04801028  0.95282286  0.50223931
   0.19039587  0.09546447  0.50342637
   0.18967282  0.23821302  0.50423540
   0.18887835  0.38072505  0.50313210
   0.19090057  0.52464746  0.50059265
   0.19093708  0.66705281  0.49930612
   0.19081261  0.80999969  0.49959110
   0.19087686  0.95284337  0.50131762
   0.33339363  0.09556863  0.50248665
   0.33385240  0.23820092  0.50600716
   0.32963939  0.37987664  0.50950620
   0.33031770  0.52314899  0.50664980
   0.33692533  0.67060648  0.50159809
   0.33301402  0.81001553  0.49959778
   0.33331115  0.95272585  0.49988216
   0.47616745  0.09492947  0.49994592
   0.47552367  0.23768874  0.50332984
   0.47230959  0.80603403  0.50071083
   0.47591471  0.95211826  0.49899390
   0.61860219  0.09454812  0.49788540
   0.61922781  0.23765798  0.49984325
   0.62128981  0.37926459  0.50382782
   0.61898349  0.81094707  0.50276713
   0.61765546  0.95093601  0.49929779
   0.76114196  0.09437100  0.49771321
   0.76176319  0.23744715  0.49715791
   0.76227327  0.38058496  0.50009192
   0.76293129  0.52501483  0.50549669
   0.76489224  0.66758705  0.50904316
   0.76183524  0.80791602  0.50605853
   0.76087228  0.95134539  0.50113722
   0.90388110  0.09436014  0.49961615
   0.90409848  0.23749911  0.49735558
   0.90461159  0.38079002  0.49735348
   0.90547157  0.52404658  0.49970466
   0.90641333  0.66714886  0.50294310
   0.90598996  0.81018790  0.50391800
   0.90463994  0.95205161  0.50221149
   0.46304603  0.35492747  0.50634650
   0.40210357  0.41810860  0.51210460
   0.40276594  0.56063130  0.50867832
   0.64635361  0.67641790  0.51285716
   0.64667951  0.54022996  0.51351525
   0.58543072  0.41591371  0.50540398
   0.58031995  0.73832557  0.50356760
   0.51638411  0.55437485  0.42922478
   0.51062744  0.56948592  0.52981987
   0.42702757  0.71542853  0.50193929
   0.52666586  0.53694507  0.48773156
Direct configuration=     2
   0.99984473  0.99997981  0.50208607
   0.99927318  0.14248434  0.50051168
   0.99942673  0.28552372  0.49850191
   0.99988772  0.42856042  0.49755150
   0.00054417  0.57162792  0.49872777
   0.00147410  0.71488339  0.50097843
   0.00113441  0.85793633  0.50237316
   0.14321554  0.00063708  0.50230821
   0.14245634  0.14309093  0.50319979
   0.14191628  0.28559259  0.50262628
   0.14254290  0.42912197  0.50057175
   0.14311492  0.57166517  0.49900543
   0.14358488  0.71455637  0.49916453
   0.14345342  0.85770177  0.50049947
   0.28582967  0.00025556  0.50111904
   0.28562420  0.14297160  0.50412313
   0.28536181  0.28711399  0.50698275
   0.28431132  0.42863570  0.50676824
   0.28705823  0.57232946  0.50294464
   0.28622156  0.71523079  0.50003088
   0.28562512  0.85779352  0.49945560
   0.42865248  0.99993231  0.49940704
   0.42848160  0.14259941  0.50191357
   0.42685026  0.28239642  0.50559123
   0.42772719  0.85671351  0.49966238
   0.57084397  0.99938090  0.49846568
   0.57130723  0.14228445  0.49897051
   0.57238397  0.28593453  0.50225294
   0.56994652  0.85524153  0.50081203
   0.71304851  0.99864865  0.49916276
   0.71399126  0.14223866  0.49721362
   0.71432935  0.28537673  0.49871966
   0.71426716  0.42770114  0.50323235
   0.71898306  0.57355202  0.51027897
   0.71867345  0.71541691  0.51017471
   0.71237124  0.85585332  0.50350856
   0.85641408  0.99936071  0.50100423
   0.85629627  0.14213310  0.49799644
   0.85679175  0.28524328  0.49691676
   0.85751725  0.42842429  0.49885214
   0.85851825  0.57197389  0.50248832
   0.85990713  0.71540131  0.50514435
   0.85765931  0.85706820  0.50397526
   0.04728755  0.09522309  0.50187185
   0.04658548  0.23762026  0.50032324
   0.04707119  0.38092708  0.49849139
   0.04792714  0.52391152  0.49807067
   0.04844643  0.66699484  0.49941568
   0.04841721  0.81004853  0.50128290
   0.04801023  0.95282192  0.50224318
   0.19039611  0.09546457  0.50342911
   0.18967152  0.23821298  0.50423554
   0.18887858  0.38072470  0.50313111
   0.19090256  0.52464753  0.50059194
   0.19093737  0.66705074  0.49930735
   0.19081390  0.81000303  0.49959179
   0.19087598  0.95283825  0.50132083
   0.33339581  0.09556828  0.50248906
   0.33385094  0.23819969  0.50600774
   0.32963299  0.37987369  0.50950052
   0.33031769  0.52314861  0.50664860
   0.33692542  0.67060594  0.50159703
   0.33301430  0.81001608  0.49959873
   0.33331198  0.95272665  0.49988584
   0.47616928  0.09493095  0.49994955
   0.47552491  0.23768636  0.50333035
   0.47230968  0.80603406  0.50071081
   0.47591444  0.95212041  0.49899762
   0.61860293  0.09455025  0.49788886
   0.61922848  0.23765684  0.49984509
   0.62129138  0.37925863  0.50382629
   0.61898467  0.81094771  0.50276640
   0.61765647  0.95093780  0.49929950
   0.76114319  0.09437206  0.49771500
   0.76176353  0.23744704  0.49715913
   0.76227430  0.38058351  0.50009174
   0.76293465  0.52501452  0.50549185
   0.76489628  0.66758938  0.50903426
   0.76183820  0.80791876  0.50605260
   0.76087391  0.95134615  0.50113684
   0.90388203  0.09436058  0.49961750
   0.90409910  0.23749903  0.49735744
   0.90461188  0.38078973  0.49735405
   0.90547279  0.52404633  0.49970604
   0.90641688  0.66714976  0.50294317
   0.90599189  0.81018864  0.50391959
   0.90464103  0.95205140  0.50221273
   0.46304614  0.35492666  0.50634541
   0.40210582  0.41810865  0.51209548
   0.40276711  0.56063147  0.50867751
   0.64635474  0.67641860  0.51283560
   0.64668018  0.54023003  0.51348938
   0.58542964  0.41591505  0.50540313
   0.58031981  0.73832526  0.50356680
   0.51634646  0.55439477  0.42922248
   0.51063732  0.56946646  0.52983496
   0.42702851  0.71542911  0.50193788
   0.52666643  0.53694829  0.48770582
Direct configuration=     3
   0.99984535  0.99997950  0.50209074
   0.99927412  0.14248458  0.50051405
   0.99942740  0.28552353  0.49850364
   0.99988820  0.42856023  0.49755267
   0.00054504  0.57162795  0.49873008
   0.00147551  0.71488364  0.50098279
   0.00113541  0.85793562  0.50237935
   0.14321613  0.00063595  0.50231340
   0.14245666  0.14309103  0.50320320
   0.14191721  0.28559324  0.50262586
   0.14254403  0.42912207  0.50057242
   0.14311595  0.57166439  0.49900611
   0.14358603  0.71455735  0.49916648
   0.14345304  0.85770088  0.50050354
   0.28583021  0.00025504  0.50112375
   0.28562478  0.14297081  0.50412575
   0.28535816  0.28711100  0.50698005
   0.28430983  0.42863662  0.50676358
   0.28705915  0.57232923  0.50294322
   0.28622207  0.71522986  0.50003170
   0.28562590  0.85779471  0.49945895
   0.42865290  0.99993519  0.49941311
   0.42848325  0.14259873  0.50191702
   0.42685010  0.28239409  0.50559141
   0.42772766  0.85671429  0.49966436
   0.57084432  0.99938339  0.49847092
   0.57130819  0.14228529  0.49897548
   0.57238396  0.28593098  0.50225419
   0.56994690  0.85524182  0.50081289
   0.71304941  0.99864923  0.49916367
   0.71399196  0.14223915  0.49721655
   0.71432966  0.28537586  0.49872128
   0.71426937  0.42770061  0.50322880
   0.71898532  0.57355276  0.51026065
   0.71867567  0.71541849  0.51015399
   0.71237250  0.85585377  0.50350497
   0.85641512  0.99936068  0.50100488
   0.85629743  0.14213315  0.49799684
   0.85679220  0.28524306  0.49691861
   0.85751944  0.42842431  0.49885215
   0.85852066  0.57197428  0.50248864
   0.85991062  0.71540255  0.50514202
   0.85766140  0.85706878  0.50397490
   0.04728795  0.09522289  0.50187586
   0.04658513  0.23761935  0.50032416
   0.04707123  0.38092684  0.49849312
   0.04792789  0.52391194  0.49807178
   0.04844751  0.66699470  0.49941901
   0.04841723  0.81004785  0.50128525
   0.04801110  0.95282271  0.50224902
   0.19039742  0.09546504  0.50343318
   0.18967234  0.23821270  0.50423581
   0.18887941  0.38072442  0.50312971
   0.19090264  0.52464774  0.50059210
   0.19093825  0.66705178  0.49930804
   0.19081481  0.81000173  0.49959462
   0.19087707  0.95284041  0.50132522
   0.33339456  0.09556941  0.50249350
   0.33385341  0.23820099  0.50600733
   0.32963749  0.37987438  0.50949270
   0.33031964  0.52314769  0.50664681
   0.33692668  0.67060624  0.50159546
   0.33301523  0.81001606  0.49960015
   0.33331290  0.95272664  0.49989132
   0.47616987  0.09493053  0.49995503
   0.47552531  0.23768909  0.50333207
   0.47231046  0.80603435  0.50071084
   0.47591538  0.95211958  0.49900319
   0.61860356  0.09454901  0.49789402
   0.61922980  0.23765882  0.49984677
   0.62129121  0.37926280  0.50382503
   0.61898431  0.81094694  0.50276528
   0.61765673  0.95093702  0.49930207
   0.76114369  0.09437111  0.49771750
   0.76176423  0.23744703  0.49716102
   0.76227418  0.38058456  0.50009162
   0.76293270  0.52501498  0.50548510
   0.76489476  0.66758853  0.50902106
   0.76183705  0.80791760  0.50604406
   0.76087361  0.95134555  0.50113622
   0.90388254  0.09436014  0.49961937
   0.90409960  0.23749854  0.49735999
   0.90461225  0.38078994  0.49735501
   0.90547293  0.52404634  0.49970816
   0.90641594  0.66714915  0.50294459
   0.90599132  0.81018835  0.50392208
   0.90464077  0.95205202  0.50221418
   0.46304713  0.35492719  0.50634380
   0.40210436  0.41810627  0.51208181
   0.40276823  0.56063140  0.50867637
   0.64635417  0.67641818  0.51280369
   0.64667816  0.54022886  0.51345131
   0.58543057  0.41591383  0.50540169
   0.58031988  0.73832521  0.50356563
   0.51629097  0.55442368  0.42921981
   0.51065207  0.56943713  0.52985676
   0.42702865  0.71542889  0.50193585
   0.52666727  0.53695388  0.48766710
Direct configuration=     4
   0.99984621  0.99997907  0.50209707
   0.99927541  0.14248490  0.50051730
   0.99942848  0.28552437  0.49850632
   0.99988914  0.42855959  0.49755433
   0.00054636  0.57162779  0.49873331
   0.00147761  0.71488308  0.50098690
   0.00113686  0.85793451  0.50238720
   0.14321691  0.00063364  0.50232043
   0.14245687  0.14309137  0.50320783
   0.14192041  0.28559533  0.50262552
   0.14254547  0.42912157  0.50057326
   0.14311709  0.57166268  0.49900704
   0.14358775  0.71455866  0.49916917
   0.14345215  0.85769881  0.50050872
   0.28583057  0.00025489  0.50112933
   0.28562538  0.14296963  0.50412940
   0.28535185  0.28710628  0.50697662
   0.28430697  0.42863753  0.50675701
   0.28706059  0.57232891  0.50294138
   0.28622299  0.71522911  0.50003220
   0.28562715  0.85779652  0.49946343
   0.42865354  0.99994031  0.49942108
   0.42848544  0.14259750  0.50192175
   0.42685025  0.28239074  0.50559165
   0.42772832  0.85671545  0.49966718
   0.57084481  0.99938812  0.49847777
   0.57130949  0.14228644  0.49898213
   0.57238372  0.28592448  0.50225568
   0.56994768  0.85524238  0.50081405
   0.71305184  0.99865075  0.49916519
   0.71399312  0.14223990  0.49722069
   0.71433038  0.28537447  0.49872340
   0.71427356  0.42769947  0.50322396
   0.71898921  0.57355243  0.51023617
   0.71868000  0.71542149  0.51012637
   0.71237503  0.85585513  0.50350003
   0.85641697  0.99936095  0.50100577
   0.85629813  0.14213344  0.49799922
   0.85679291  0.28524234  0.49692113
   0.85752082  0.42842384  0.49885274
   0.85852440  0.57197458  0.50248902
   0.85991630  0.71540440  0.50513905
   0.85766476  0.85706974  0.50397479
   0.04728862  0.09522221  0.50188128
   0.04658406  0.23761769  0.50032550
   0.04707119  0.38092662  0.49849541
   0.04792890  0.52391247  0.49807336
   0.04844916  0.66699466  0.49942353
   0.04841749  0.81004747  0.50128889
   0.04801253  0.95282389  0.50225703
   0.19039898  0.09546526  0.50343864
   0.18967375  0.23821191  0.50423621
   0.18888021  0.38072432  0.50312787
   0.19090171  0.52464773  0.50059312
   0.19093959  0.66705485  0.49930832
   0.19081579  0.80999879  0.49959840
   0.19087960  0.95284727  0.50133096
   0.33339402  0.09557045  0.50249911
   0.33385718  0.23820281  0.50600597
   0.32964697  0.37987663  0.50948254
   0.33032254  0.52314721  0.50664415
   0.33692839  0.67060655  0.50159349
   0.33301630  0.81001557  0.49960220
   0.33331381  0.95272658  0.49989861
   0.47617001  0.09492960  0.49996246
   0.47552536  0.23769315  0.50333499
   0.47231149  0.80603466  0.50071099
   0.47591688  0.95211771  0.49901062
   0.61860429  0.09454663  0.49790098
   0.61923164  0.23766134  0.49984725
   0.62129041  0.37927198  0.50382390
   0.61898325  0.81094553  0.50276369
   0.61765638  0.95093505  0.49930552
   0.76114384  0.09436934  0.49772055
   0.76176514  0.23744704  0.49716371
   0.76227423  0.38058675  0.50009143
   0.76292892  0.52501590  0.50547621
   0.76489089  0.66758627  0.50900305
   0.76183435  0.80791471  0.50603273
   0.76087233  0.95134419  0.50113534
   0.90388303  0.09435915  0.49962167
   0.90410005  0.23749798  0.49736311
   0.90461305  0.38079017  0.49735641
   0.90547301  0.52404660  0.49971097
   0.90641292  0.66714769  0.50294737
   0.90599041  0.81018874  0.50392409
   0.90464016  0.95205296  0.50221607
   0.46304847  0.35492795  0.50634164
   0.40210166  0.41810263  0.51206359
   0.40276976  0.56063116  0.50867501
   0.64635277  0.67641712  0.51276121
   0.64667477  0.54022708  0.51340093
   0.58543238  0.41591144  0.50539969
   0.58031999  0.73832514  0.50356410
   0.51621719  0.55446161  0.42921661
   0.51067202  0.56939723  0.52988504
   0.42702887  0.71542855  0.50193315
   0.52666799  0.53696278  0.48761602
Direct configuration=     5
   0.99984702  0.99997910  0.50210517
   0.99927619  0.14248437  0.50052148
   0.99942926  0.28552318  0.49850916
   0.99989032  0.42855941  0.49755662
   0.00054786  0.57162922  0.49873653
   0.00147835  0.71488107  0.50099107
   0.00113793  0.85793465  0.50239651
   0.14321803  0.00063396  0.50232951
   0.14245735  0.14309086  0.50321377
   0.14192143  0.28559516  0.50262500
   0.14254586  0.42912083  0.50057434
   0.14311810  0.57166289  0.49900830
   0.14358960  0.71455909  0.49917269
   0.14345323  0.85769870  0.50051503
   0.28583129  0.00025663  0.50113620
   0.28562654  0.14297017  0.50413418
   0.28535458  0.28710666  0.50697168
   0.28430934  0.42863524  0.50675021
   0.28706262  0.57232878  0.50293928
   0.28622446  0.71522956  0.50003233
   0.28562910  0.85779712  0.49946920
   0.42865441  0.99994239  0.49943120
   0.42848643  0.14259822  0.50192812
   0.42685183  0.28239194  0.50559205
   0.42772954  0.85671587  0.49967107
   0.57084511  0.99938897  0.49848504
   0.57131239  0.14228653  0.49898896
   0.57238520  0.28592599  0.50225756
   0.56994842  0.85524243  0.50081554
   0.71305309  0.99865069  0.49916754
   0.71399460  0.14223955  0.49722621
   0.71433242  0.28537527  0.49872589
   0.71427425  0.42770006  0.50321806
   0.71898783  0.57355089  0.51020481
   0.71868042  0.71542101  0.51009157
   0.71237555  0.85585514  0.50349364
   0.85641769  0.99936105  0.50100690
   0.85629896  0.14213293  0.49800232
   0.85679404  0.28524181  0.49692439
   0.85752071  0.42842366  0.49885406
   0.85852489  0.57197416  0.50248979
   0.85991732  0.71540460  0.50513575
   0.85766581  0.85707032  0.50397473
   0.04728971  0.09522161  0.50188822
   0.04658484  0.23761764  0.50032751
   0.04707227  0.38092674  0.49849834
   0.04793016  0.52391228  0.49807556
   0.04845090  0.66699481  0.49942920
   0.04841891  0.81004658  0.50129305
   0.04801369  0.95282332  0.50226740
   0.19039974  0.09546483  0.50344565
   0.18967335  0.23821080  0.50423686
   0.18888061  0.38072453  0.50312558
   0.19090177  0.52464702  0.50059486
   0.19094108  0.66705703  0.49930847
   0.19081663  0.80999965  0.49960249
   0.19088037  0.95284797  0.50133880
   0.33339621  0.09557031  0.50250591
   0.33385626  0.23820177  0.50600671
   0.32964613  0.37987530  0.50946943
   0.33032494  0.52314789  0.50664173
   0.33692944  0.67060595  0.50159131
   0.33301719  0.81001562  0.49960504
   0.33331457  0.95272783  0.49990771
   0.47617157  0.09493086  0.49997196
   0.47552530  0.23769053  0.50333646
   0.47231215  0.80603482  0.50071141
   0.47591767  0.95211875  0.49901995
   0.61860563  0.09454743  0.49790985
   0.61923346  0.23766135  0.49984716
   0.62129095  0.37927120  0.50382177
   0.61898356  0.81094522  0.50276160
   0.61765655  0.95093530  0.49930984
   0.76114459  0.09436917  0.49772421
   0.76176613  0.23744696  0.49716741
   0.76227582  0.38058698  0.50009100
   0.76293005  0.52501605  0.50546466
   0.76489123  0.66758597  0.50898075
   0.76183527  0.80791496  0.50601826
   0.76087262  0.95134383  0.50113418
   0.90388399  0.09435877  0.49962452
   0.90410072  0.23749791  0.49736687
   0.90461425  0.38078983  0.49735837
   0.90547458  0.52404686  0.49971445
   0.90641428  0.66714752  0.50295015
   0.90599228  0.81019039  0.50392584
   0.90464091  0.95205369  0.50221879
   0.46304933  0.35492738  0.50633898
   0.40210291  0.41810037  0.51204119
   0.40277230  0.56063102  0.50867367
   0.64635263  0.67641673  0.51270809
   0.64667268  0.54022594  0.51333847
   0.58543245  0.41591129  0.50539735
   0.58031984  0.73832461  0.50356230
   0.51612603  0.55450809  0.42921318
   0.51069688  0.56934796  0.52992066
   0.42703027  0.71542918  0.50192992
   0.52666927  0.53697630  0.48755141
Direct configuration=     6
   0.99984786  0.99997915  0.50211516
   0.99927675  0.14248314  0.50052665
   0.99942979  0.28552309  0.49851307
   0.99989166  0.42855983  0.49755962
   0.00054956  0.57163092  0.49874006
   0.00147830  0.71487913  0.50099560
   0.00113925  0.85793565  0.50240692
   0.14321917  0.00063650  0.50234083
   0.14245833  0.14308949  0.50322112
   0.14192006  0.28559289  0.50262428
   0.14254555  0.42912049  0.50057573
   0.14311936  0.57166550  0.49900991
   0.14359123  0.71455938  0.49917701
   0.14345636  0.85770116  0.50052248
   0.28583455  0.00025911  0.50114400
   0.28562798  0.14297137  0.50414017
   0.28535959  0.28710877  0.50696604
   0.28431533  0.42863205  0.50674293
   0.28706433  0.57232833  0.50293708
   0.28622634  0.71523093  0.50003201
   0.28563103  0.85779682  0.49947632
   0.42865558  0.99994084  0.49944377
   0.42848656  0.14259976  0.50193615
   0.42685347  0.28239505  0.50559248
   0.42773041  0.85671517  0.49967479
   0.57084558  0.99938579  0.49849322
   0.57131571  0.14228621  0.49899613
   0.57238781  0.28593307  0.50225933
   0.56994907  0.85524218  0.50081733
   0.71305236  0.99864897  0.49917083
   0.71399616  0.14223858  0.49723325
   0.71433530  0.28537758  0.49872848
   0.71427166  0.42770369  0.50321198
   0.71898205  0.57354940  0.51016623
   0.71867686  0.71541709  0.51004983
   0.71237397  0.85585357  0.50348561
   0.85641706  0.99936076  0.50100820
   0.85630001  0.14213193  0.49800622
   0.85679556  0.28524191  0.49692843
   0.85752080  0.42842407  0.49885610
   0.85852288  0.57197338  0.50249092
   0.85991425  0.71540358  0.50513204
   0.85766470  0.85707077  0.50397433
   0.04729084  0.09522125  0.50189675
   0.04658753  0.23761861  0.50033031
   0.04707405  0.38092633  0.49850184
   0.04793063  0.52391132  0.49807704
   0.04845289  0.66699506  0.49943576
   0.04842074  0.81004511  0.50129841
   0.04801449  0.95282164  0.50228028
   0.19040013  0.09546431  0.50345429
   0.18967277  0.23821026  0.50423775
   0.18888169  0.38072453  0.50312282
   0.19090529  0.52464676  0.50059554
   0.19094269  0.66705506  0.49930993
   0.19081830  0.81000403  0.49960714
   0.19087970  0.95284102  0.50134772
   0.33340015  0.09557004  0.50251400
   0.33385331  0.23819944  0.50600925
   0.32963793  0.37987102  0.50945349
   0.33032672  0.52314830  0.50663900
   0.33693014  0.67060507  0.50158888
   0.33301852  0.81001655  0.49960880
   0.33331345  0.95272884  0.49991782
   0.47617518  0.09493441  0.49998353
   0.47552606  0.23768470  0.50333700
   0.47231277  0.80603514  0.50071216
   0.47591746  0.95212254  0.49903105
   0.61860809  0.09455088  0.49792046
   0.61923547  0.23765973  0.49984730
   0.62129304  0.37926206  0.50381861
   0.61898537  0.81094598  0.50275882
   0.61765769  0.95093793  0.49931498
   0.76114637  0.09437045  0.49772863
   0.76176757  0.23744673  0.49717229
   0.76227821  0.38058557  0.50009032
   0.76293455  0.52501531  0.50545164
   0.76489554  0.66758709  0.50895352
   0.76183984  0.80791830  0.50600055
   0.76087489  0.95134471  0.50113272
   0.90388543  0.09435921  0.49962800
   0.90410188  0.23749774  0.49737128
   0.90461546  0.38078910  0.49736102
   0.90547720  0.52404705  0.49971851
   0.90641944  0.66714837  0.50295276
   0.90599606  0.81019206  0.50392765
   0.90464318  0.95205397  0.50222270
   0.46305016  0.35492626  0.50633571
   0.40210746  0.41809927  0.51201454
   0.40277606  0.56063119  0.50867241
   0.64635370  0.67641695  0.51264447
   0.64667173  0.54022537  0.51326436
   0.58543102  0.41591312  0.50539457
   0.58031952  0.73832375  0.50356020
   0.51601682  0.55456382  0.42920668
   0.51072605  0.56928978  0.52996384
   0.42703242  0.71543030  0.50192607
   0.52667181  0.53699373  0.48747565
Direct configuration=     7
   0.99984925  0.99997834  0.50212875
   0.99927825  0.14248248  0.50053363
   0.99942967  0.28552166  0.49851606
   0.99989307  0.42855975  0.49756379
   0.00055161  0.57163120  0.49874475
   0.00148041  0.71487954  0.50100154
   0.00114211  0.85793515  0.50241951
   0.14322031  0.00063621  0.50235623
   0.14245972  0.14308837  0.50323110
   0.14191869  0.28559075  0.50262340
   0.14254725  0.42912088  0.50057769
   0.14312144  0.57166662  0.49901205
   0.14359350  0.71456089  0.49918281
   0.14345876  0.85770246  0.50053198
   0.28583780  0.00025898  0.50115438
   0.28562924  0.14297039  0.50414857
   0.28535864  0.28710653  0.50695890
   0.28431640  0.42863356  0.50673371
   0.28706592  0.57232703  0.50293470
   0.28622853  0.71523158  0.50003136
   0.28563175  0.85779736  0.49948584
   0.42865681  0.99994024  0.49946098
   0.42848672  0.14259820  0.50194530
   0.42685321  0.28239266  0.50559285
   0.42773113  0.85671555  0.49967933
   0.57084675  0.99938412  0.49850409
   0.57131859  0.14228723  0.49900493
   0.57238907  0.28593173  0.50226016
   0.56995031  0.85524287  0.50081963
   0.71305204  0.99864839  0.49917554
   0.71399818  0.14223896  0.49724301
   0.71433775  0.28537810  0.49873122
   0.71427237  0.42770320  0.50320301
   0.71898088  0.57354974  0.51011437
   0.71867604  0.71541512  0.50999376
   0.71237505  0.85585244  0.50347626
   0.85641745  0.99936060  0.50100982
   0.85630189  0.14213164  0.49801145
   0.85679727  0.28524204  0.49693389
   0.85752321  0.42842452  0.49885909
   0.85852398  0.57197322  0.50249253
   0.85991510  0.71540383  0.50512689
   0.85766572  0.85707202  0.50397294
   0.04729107  0.09522245  0.50190653
   0.04658914  0.23761815  0.50033441
   0.04707522  0.38092531  0.49850644
   0.04793118  0.52391129  0.49807824
   0.04845581  0.66699531  0.49944369
   0.04842057  0.81004301  0.50130501
   0.04801597  0.95282166  0.50229764
   0.19040159  0.09546436  0.50346601
   0.18967434  0.23820988  0.50423910
   0.18888446  0.38072358  0.50311936
   0.19090829  0.52464718  0.50059666
   0.19094503  0.66705406  0.49931166
   0.19082180  0.81000803  0.49961341
   0.19088184  0.95284172  0.50135985
   0.33340294  0.09557128  0.50252473
   0.33385618  0.23819998  0.50600998
   0.32964187  0.37986990  0.50943495
   0.33033023  0.52314684  0.50663535
   0.33693210  0.67060564  0.50158585
   0.33302092  0.81001761  0.49961404
   0.33331319  0.95272883  0.49993038
   0.47617902  0.09493659  0.49999869
   0.47552694  0.23768555  0.50333962
   0.47231429  0.80603597  0.50071334
   0.47591735  0.95212448  0.49904521
   0.61861129  0.09455159  0.49793390
   0.61923774  0.23766092  0.49985036
   0.62129471  0.37926261  0.50381554
   0.61898628  0.81094579  0.50275481
   0.61765895  0.95093901  0.49932159
   0.76114848  0.09437040  0.49773474
   0.76177018  0.23744659  0.49717926
   0.76227933  0.38058679  0.50008952
   0.76293496  0.52501516  0.50543528
   0.76489611  0.66758585  0.50891607
   0.76184226  0.80791892  0.50597684
   0.76087642  0.95134495  0.50113070
   0.90388680  0.09435935  0.49963273
   0.90410360  0.23749692  0.49737705
   0.90461680  0.38078888  0.49736497
   0.90547893  0.52404742  0.49972376
   0.90642255  0.66714887  0.50295554
   0.90599773  0.81019181  0.50393029
   0.90464541  0.95205400  0.50222874
   0.46305220  0.35492649  0.50633135
   0.40210940  0.41809585  0.51197984
   0.40278069  0.56063142  0.50867142
   0.64635329  0.67641599  0.51256096
   0.64666847  0.54022382  0.51316834
   0.58543110  0.41591272  0.50539079
   0.58031938  0.73832312  0.50355750
   0.51587535  0.55463572  0.42919743
   0.51076304  0.56921623  0.53002190
   0.42703385  0.71543025  0.50192137
   0.52667546  0.53701670  0.48737569
Direct configuration=     8
   0.99985177  0.99997823  0.50214709
   0.99928015  0.14248358  0.50054277
   0.99943089  0.28552277  0.49851981
   0.99989466  0.42855863  0.49756916
   0.00055374  0.57162997  0.49875117
   0.00148515  0.71488134  0.50100972
   0.00114483  0.85793264  0.50243478
   0.14322235  0.00063305  0.50237703
   0.14246104  0.14308886  0.50324420
   0.14192478  0.28559321  0.50262288
   0.14255188  0.42912071  0.50058006
   0.14312385  0.57166367  0.49901436
   0.14359800  0.71456396  0.49919022
   0.14345909  0.85770093  0.50054175
   0.28583865  0.00025702  0.50116883
   0.28563217  0.14297127  0.50415778
   0.28535441  0.28710163  0.50694973
   0.28431549  0.42863384  0.50672364
   0.28706949  0.57232609  0.50293194
   0.28623061  0.71522982  0.50003283
   0.28563314  0.85779985  0.49949801
   0.42865794  0.99994417  0.49948398
   0.42849025  0.14259634  0.50195621
   0.42685383  0.28238814  0.50559275
   0.42773293  0.85671857  0.49968577
   0.57084850  0.99938812  0.49851926
   0.57132120  0.14228986  0.49901689
   0.57238854  0.28592212  0.50225985
   0.56995269  0.85524452  0.50082249
   0.71305484  0.99865064  0.49918202
   0.71400163  0.14224079  0.49725635
   0.71433975  0.28537689  0.49873441
   0.71427731  0.42770199  0.50319229
   0.71898709  0.57355051  0.51004849
   0.71868220  0.71541783  0.50992307
   0.71237993  0.85585334  0.50346455
   0.85642091  0.99936109  0.50101201
   0.85630444  0.14213212  0.49801845
   0.85679976  0.28524167  0.49694130
   0.85752741  0.42842510  0.49886318
   0.85852965  0.57197443  0.50249479
   0.85992280  0.71540523  0.50511951
   0.85767127  0.85707302  0.50397004
   0.04729184  0.09522296  0.50191863
   0.04658716  0.23761507  0.50033983
   0.04707569  0.38092436  0.49851200
   0.04793377  0.52391280  0.49807980
   0.04845986  0.66699632  0.49945279
   0.04842174  0.81004329  0.50131427
   0.04801776  0.95282232  0.50231830
   0.19040427  0.09546418  0.50348189
   0.18967602  0.23820810  0.50424083
   0.18888653  0.38072190  0.50311481
   0.19090906  0.52464808  0.50059788
   0.19094804  0.66705738  0.49931367
   0.19082498  0.81000731  0.49962220
   0.19088812  0.95285027  0.50137444
   0.33340228  0.09557169  0.50253878
   0.33386210  0.23820085  0.50600796
   0.32965111  0.37987148  0.50941240
   0.33033506  0.52314828  0.50662958
   0.33693520  0.67060688  0.50158169
   0.33302278  0.81001797  0.49962072
   0.33331708  0.95272768  0.49994626
   0.47618065  0.09493396  0.50001791
   0.47552906  0.23769086  0.50334273
   0.47231664  0.80603711  0.50071468
   0.47591923  0.95212151  0.49906280
   0.61861357  0.09454706  0.49795041
   0.61923467  0.23765979  0.49985495
   0.62129417  0.37927391  0.50381217
   0.61898563  0.81094402  0.50274920
   0.61765956  0.95093592  0.49933003
   0.76115007  0.09436824  0.49774356
   0.76177350  0.23744735  0.49718892
   0.76228006  0.38059014  0.50008846
   0.76293027  0.52501631  0.50541419
   0.76489125  0.66758228  0.50886733
   0.76183995  0.80791418  0.50594587
   0.76087527  0.95134309  0.50112831
   0.90388803  0.09435833  0.49963925
   0.90410496  0.23749574  0.49738433
   0.90461873  0.38078958  0.49737074
   0.90547980  0.52404806  0.49973055
   0.90642081  0.66714850  0.50295870
   0.90599667  0.81019034  0.50393447
   0.90464645  0.95205442  0.50223778
   0.46305478  0.35492670  0.50632513
   0.40210979  0.41809035  0.51193471
   0.40278594  0.56063144  0.50867062
   0.64634971  0.67641279  0.51245410