  99  99   0   0
  0.3914025E+02  0.1727104E-08  0.1727104E-08  0.1500000E-08  0.1000000E-15
   1.0000000000000000E-004
  CAR 
 unknown system                          
      4.61477346    -30.91559124  301     -2.32092770      1.00000000
    -30.916  0.0000E+00  0.0000E+00  0.0000E+00  0.0000E+00
    -30.797  0.0000E+00  0.0000E+00  0.0000E+00  0.0000E+00
    -30.679  0.0000E+00  0.0000E+00  0.0000E+00  0.0000E+00
    -30.560  0.0000E+00  0.0000E+00  0.0000E+00  0.0000E+00
    -30.442  0.0000E+00  0.0000E+00  0.0000E+00  0.0000E+00
    -30.323  0.0000E+00  0.0000E+00  0.0000E+00  0.0000E+00
    -30.205  0.0000E+00  0.0000E+00  0.0000E+00  0.0000E+00
    -30.087  0.0000E+00  0.0000E+00  0.0000E+00  0.0000E+00
    -29.968  0.0000E+00  0.0000E+00  0.0000E+00  0.0000E+00
    -29.850  0.0000E+00  0.0000E+00  0.0000E+00  0.0000E+00
    -29.731  0.0000E+00  0.0000E+00  0.0000E+00  0.0000E+00
    -29.613  0.0000E+00  0.0000E+00  0.0000E+00  0.0000E+00
    -29.494  0.8496E-09  0.8496E-09  0.1006E-09  0.1006E-09
    -29.376  0.7848E-03  0.7848E-03  0.9295E-04  0.9295E-04
    -29.258  0.4837E-01  0.4837E-01  0.5822E-02  0.5822E-02
    -29.139  0.7131E-02  0.7131E-02  0.6667E-02  0.6667E-02
    -29.021  0.2067E-06  0.2067E-06  0.6667E-02  0.6667E-02
    -28.902  0.1406E-15  0.1406E-15  0.6667E-02  0.6667E-02
    -28.784  0.0000E+00  0.0000E+00  0.6667E-02  0.6667E-02
    -28.665  0.0000E+00  0.0000E+00  0.6667E-02  0.6667E-02
    -28.547  0.0000E+00  0.0000E+00  0.6667E-02  0.6667E-02
    -28.428  0.0000E+00  0.0000E+00  0.6667E-02  0.6667E-02
    -28.310  0.0000E+00  0.0000E+00  0.6667E-02  0.6667E-02
    -28.192  0.0000E+00  0.0000E+00  0.6667E-02  0.6667E-02
    -28.073  0.0000E+00  0.0000E+00  0.6667E-02  0.6667E-02
    -27.955  0.0000E+00  0.0000E+00  0.6667E-02  0.6667E-02
    -27.836  0.0000E+00  0.0000E+00  0.6667E-02  0.6667E-02
    -27.718  0.0000E+00  0.0000E+00  0.6667E-02  0.6667E-02
    -27.599  0.0000E+00  0.0000E+00  0.6667E-02  0.6667E-02
    -27.481  0.0000E+00  0.0000E+00  0.6667E-02  0.6667E-02
    -27.363  0.0000E+00  0.0000E+00  0.6667E-02  0.6667E-02
    -27.244  0.0000E+00  0.0000E+00  0.6667E-02  0.6667E-02
    -27.126  0.0000E+00  0.0000E+00  0.6667E-02  0.6667E-02
    -27.007  0.0000E+00  0.0000E+00  0.6667E-02  0.6667E-02
    -26.889  0.0000E+00  0.0000E+00  0.6667E-02  0.6667E-02
    -26.770  0.0000E+00  0.0000E+00  0.6667E-02  0.6667E-02
    -26.652  0.0000E+00  0.0000E+00  0.6667E-02  0.6667E-02
    -26.534  0.0000E+00  0.0000E+00  0.6667E-02  0.6667E-02
    -26.415  0.0000E+00  0.0000E+00  0.6667E-02  0.6667E-02
    -26.297  0.0000E+00  0.0000E+00  0.6667E-02  0.6667E-02
    -26.178  0.0000E+00  0.0000E+00  0.6667E-02  0.6667E-02
    -26.060  0.0000E+00  0.0000E+00  0.6667E-02  0.6667E-02
    -25.941  0.0000E+00  0.0000E+00  0.6667E-02  0.6667E-02
    -25.823  0.0000E+00  0.0000E+00  0.6667E-02  0.6667E-02
    -25.704  0.0000E+00  0.0000E+00  0.6667E-02  0.6667E-02
    -25.586  0.0000E+00  0.0000E+00  0.6667E-02  0.6667E-02
    -25.468  0.0000E+00  0.0000E+00  0.6667E-02  0.6667E-02
    -25.349  0.0000E+00  0.0000E+00  0.6667E-02  0.6667E-02
    -25.231  0.0000E+00  0.0000E+00  0.6667E-02  0.6667E-02
    -25.112  0.0000E+00  0.0000E+00  0.6667E-02  0.6667E-02
    -24.994  0.0000E+00  0.0000E+00  0.6667E-02  0.6667E-02
    -24.875  0.0000E+00  0.0000E+00  0.6667E-02  0.6667E-02
    -24.757  0.0000E+00  0.0000E+00  0.6667E-02  0.6667E-02
    -24.639  0.0000E+00  0.0000E+00  0.6667E-02  0.6667E-02
    -24.520  0.0000E+00  0.0000E+00  0.6667E-02  0.6667E-02
    -24.402  0.0000E+00  0.0000E+00  0.6667E-02  0.6667E-02
    -24.283  0.0000E+00  0.0000E+00  0.6667E-02  0.6667E-02
    -24.165  0.0000E+00  0.0000E+00  0.6667E-02  0.6667E-02
    -24.046  0.3533E-12  0.3533E-12  0.6667E-02  0.6667E-02
    -23.928  0.1254E-04  0.1254E-04  0.6668E-02  0.6668E-02
    -23.810  0.1436E-01  0.1436E-01  0.8369E-02  0.8369E-02
    -23.691  0.1376E-01  0.1376E-01  0.9999E-02  0.9999E-02
    -23.573  0.1032E-04  0.1032E-04  0.1000E-01  0.1000E-01
    -23.454  0.2444E-12  0.2444E-12  0.1000E-01  0.1000E-01
    -23.336  0.0000E+00  0.0000E+00  0.1000E-01  0.1000E-01
    -23.217  0.0000E+00  0.0000E+00  0.1000E-01  0.1000E-01
    -23.099  0.0000E+00  0.0000E+00  0.1000E-01  0.1000E-01
    -22.980  0.0000E+00  0.0000E+00  0.1000E-01  0.1000E-01
    -22.862  0.0000E+00  0.0000E+00  0.1000E-01  0.1000E-01
    -22.744  0.0000E+00  0.0000E+00  0.1000E-01  0.1000E-01
    -22.625  0.0000E+00  0.0000E+00  0.1000E-01  0.1000E-01
    -22.507  0.0000E+00  0.0000E+00  0.1000E-01  0.1000E-01
    -22.388  0.0000E+00  0.0000E+00  0.1000E-01  0.1000E-01
    -22.270  0.0000E+00  0.0000E+00  0.1000E-01  0.1000E-01
    -22.151  0.0000E+00  0.0000E+00  0.1000E-01  0.1000E-01
    -22.033  0.2929E-18  0.2929E-18  0.1000E-01  0.1000E-01
    -21.915  0.1591E-08  0.1591E-08  0.1000E-01  0.1000E-01
    -21.796  0.3236E-03  0.3236E-03  0.1004E-01  0.1004E-01
    -21.678  0.1907E-01  0.1907E-01  0.1230E-01  0.1230E-01
    -21.559  0.2160E-01  0.2160E-01  0.1485E-01  0.1485E-01
    -21.441  0.1574E-01  0.1574E-01  0.1672E-01  0.1672E-01
    -21.322  0.2730E-01  0.2730E-01  0.1995E-01  0.1995E-01
    -21.204  0.1716E-01  0.1716E-01  0.2198E-01  0.2198E-01
    -21.086  0.2791E-01  0.2791E-01  0.2529E-01  0.2529E-01
    -20.967  0.1939E-01  0.1939E-01  0.2759E-01  0.2759E-01
    -20.849  0.2345E-01  0.2345E-01  0.3036E-01  0.3036E-01
    -20.730  0.1987E-01  0.1987E-01  0.3272E-01  0.3272E-01
    -20.612  0.2055E-01  0.2055E-01  0.3515E-01  0.3515E-01
    -20.493  0.2587E-01  0.2587E-01  0.3821E-01  0.3821E-01
    -20.375  0.2203E-01  0.2203E-01  0.4082E-01  0.4082E-01
    -20.256  0.2316E-01  0.2316E-01  0.4357E-01  0.4357E-01
    -20.138  0.3221E-01  0.3221E-01  0.4738E-01  0.4738E-01
    -20.020  0.1174E-01  0.1174E-01  0.4877E-01  0.4877E-01
    -19.901  0.1700E-01  0.1700E-01  0.5078E-01  0.5078E-01
    -19.783  0.3984E-01  0.3984E-01  0.5550E-01  0.5550E-01
    -19.664  0.1854E-01  0.1854E-01  0.5770E-01  0.5770E-01
    -19.546  0.1290E-01  0.1290E-01  0.5923E-01  0.5923E-01
    -19.427  0.3088E-01  0.3088E-01  0.6288E-01  0.6288E-01
    -19.309  0.3339E-01  0.3339E-01  0.6684E-01  0.6684E-01
    -19.191  0.1255E-01  0.1255E-01  0.6832E-01  0.6832E-01
    -19.072  0.1373E-01  0.1373E-01  0.6995E-01  0.6995E-01
    -18.954  0.4121E-01  0.4121E-01  0.7483E-01  0.7483E-01
    -18.835  0.2147E-01  0.2147E-01  0.7737E-01  0.7737E-01
    -18.717  0.1842E-01  0.1842E-01  0.7956E-01  0.7956E-01
    -18.598  0.1927E-01  0.1927E-01  0.8184E-01  0.8184E-01
    -18.480  0.3385E-01  0.3385E-01  0.8585E-01  0.8585E-01
    -18.362  0.3027E-01  0.3027E-01  0.8943E-01  0.8943E-01
    -18.243  0.9855E-02  0.9855E-02  0.9060E-01  0.9060E-01
    -18.125  0.2321E-01  0.2321E-01  0.9335E-01  0.9335E-01
    -18.006  0.3097E-01  0.3097E-01  0.9702E-01  0.9702E-01
    -17.888  0.3778E-01  0.3778E-01  0.1015E+00  0.1015E+00
    -17.769  0.1713E-01  0.1713E-01  0.1035E+00  0.1035E+00
    -17.651  0.1829E-01  0.1829E-01  0.1057E+00  0.1057E+00
    -17.532  0.1904E-01  0.1904E-01  0.1079E+00  0.1079E+00
    -17.414  0.3261E-01  0.3261E-01  0.1118E+00  0.1118E+00
    -17.296  0.3729E-01  0.3729E-01  0.1162E+00  0.1162E+00
    -17.177  0.2193E-01  0.2193E-01  0.1188E+00  0.1188E+00
    -17.059  0.2022E-01  0.2022E-01  0.1212E+00  0.1212E+00
    -16.940  0.2161E-01  0.2161E-01  0.1238E+00  0.1238E+00
    -16.822  0.3729E-01  0.3729E-01  0.1282E+00  0.1282E+00
    -16.703  0.4317E-01  0.4317E-01  0.1333E+00  0.1333E+00
    -16.585  0.2811E-01  0.2811E-01  0.1366E+00  0.1366E+00
    -16.467  0.2026E-01  0.2026E-01  0.1390E+00  0.1390E+00
    -16.348  0.1742E-01  0.1742E-01  0.1411E+00  0.1411E+00
    -16.230  0.3149E-01  0.3149E-01  0.1448E+00  0.1448E+00
    -16.111  0.1704E-01  0.1704E-01  0.1468E+00  0.1468E+00
    -15.993  0.1408E-01  0.1408E-01  0.1485E+00  0.1485E+00
    -15.874  0.1192E-01  0.1192E-01  0.1499E+00  0.1499E+00
    -15.756  0.2312E-01  0.2312E-01  0.1527E+00  0.1527E+00
    -15.638  0.1109E-01  0.1109E-01  0.1540E+00  0.1540E+00
    -15.519  0.7283E-02  0.7283E-02  0.1548E+00  0.1548E+00
    -15.401  0.1562E-01  0.1562E-01  0.1567E+00  0.1567E+00
    -15.282  0.1667E-01  0.1667E-01  0.1587E+00  0.1587E+00
    -15.164  0.3681E-01  0.3681E-01  0.1630E+00  0.1630E+00
    -15.045  0.2549E-01  0.2549E-01  0.1660E+00  0.1660E+00
    -14.927  0.2335E-01  0.2335E-01  0.1688E+00  0.1688E+00
    -14.808  0.3533E-01  0.3533E-01  0.1730E+00  0.1730E+00
    -14.690  0.2655E-01  0.2655E-01  0.1761E+00  0.1761E+00
    -14.572  0.2869E-01  0.2869E-01  0.1795E+00  0.1795E+00
    -14.453  0.3752E-01  0.3752E-01  0.1840E+00  0.1840E+00
    -14.335  0.2871E-01  0.2871E-01  0.1874E+00  0.1874E+00
    -14.216  0.2899E-01  0.2899E-01  0.1908E+00  0.1908E+00
    -14.098  0.2554E-01  0.2554E-01  0.1938E+00  0.1938E+00
    -13.979  0.2911E-01  0.2911E-01  0.1973E+00  0.1973E+00
    -13.861  0.2503E-01  0.2503E-01  0.2002E+00  0.2002E+00
    -13.743  0.2082E-01  0.2082E-01  0.2027E+00  0.2027E+00
    -13.624  0.1994E-01  0.1994E-01  0.2051E+00  0.2051E+00
    -13.506  0.2847E-01  0.2847E-01  0.2084E+00  0.2084E+00
    -13.387  0.2827E-01  0.2827E-01  0.2118E+00  0.2118E+00
    -13.269  0.2409E-01  0.2409E-01  0.2146E+00  0.2146E+00
    -13.150  0.2227E-01  0.2227E-01  0.2173E+00  0.2173E+00
    -13.032  0.1592E-01  0.1592E-01  0.2192E+00  0.2192E+00
    -12.914  0.2026E-01  0.2026E-01  0.2216E+00  0.2216E+00
    -12.795  0.2385E-01  0.2385E-01  0.2244E+00  0.2244E+00
    -12.677  0.2811E-01  0.2811E-01  0.2277E+00  0.2277E+00
    -12.558  0.3151E-01  0.3151E-01  0.2314E+00  0.2314E+00
    -12.440  0.3492E-01  0.3492E-01  0.2356E+00  0.2356E+00
    -12.321  0.2368E-01  0.2368E-01  0.2384E+00  0.2384E+00
    -12.203  0.3012E-01  0.3012E-01  0.2420E+00  0.2420E+00
    -12.084  0.2903E-01  0.2903E-01  0.2454E+00  0.2454E+00
    -11.966  0.2815E-01  0.2815E-01  0.2487E+00  0.2487E+00
    -11.848  0.2740E-01  0.2740E-01  0.2520E+00  0.2520E+00
    -11.729  0.3684E-01  0.3684E-01  0.2563E+00  0.2563E+00
    -11.611  0.4969E-01  0.4969E-01  0.2622E+00  0.2622E+00
    -11.492  0.4147E-01  0.4147E-01  0.2671E+00  0.2671E+00
    -11.374  0.2478E-01  0.2478E-01  0.2701E+00  0.2701E+00
    -11.255  0.3161E-01  0.3161E-01  0.2738E+00  0.2738E+00
    -11.137  0.3275E-01  0.3275E-01  0.2777E+00  0.2777E+00
    -11.019  0.3663E-01  0.3663E-01  0.2820E+00  0.2820E+00
    -10.900  0.2974E-01  0.2974E-01  0.2856E+00  0.2856E+00
    -10.782  0.2882E-01  0.2882E-01  0.2890E+00  0.2890E+00
    -10.663  0.3017E-01  0.3017E-01  0.2925E+00  0.2925E+00
    -10.545  0.3863E-01  0.3863E-01  0.2971E+00  0.2971E+00
    -10.426  0.3654E-01  0.3654E-01  0.3014E+00  0.3014E+00
    -10.308  0.3755E-01  0.3755E-01  0.3059E+00  0.3059E+00
    -10.190  0.2664E-01  0.2664E-01  0.3090E+00  0.3090E+00
    -10.071  0.3574E-01  0.3574E-01  0.3133E+00  0.3133E+00
     -9.953  0.6669E-01  0.6669E-01  0.3212E+00  0.3212E+00
     -9.834  0.6016E-01  0.6016E-01  0.3283E+00  0.3283E+00
     -9.716  0.4355E-01  0.4355E-01  0.3335E+00  0.3335E+00
     -9.597  0.5844E-01  0.5844E-01  0.3404E+00  0.3404E+00
     -9.479  0.6046E-01  0.6046E-01  0.3475E+00  0.3475E+00
     -9.361  0.4884E-01  0.4884E-01  0.3533E+00  0.3533E+00
     -9.242  0.7542E-01  0.7542E-01  0.3623E+00  0.3623E+00
     -9.124  0.5154E-01  0.5154E-01  0.3684E+00  0.3684E+00
     -9.005  0.7509E-01  0.7509E-01  0.3773E+00  0.3773E+00
     -8.887  0.7720E-01  0.7720E-01  0.3864E+00  0.3864E+00
     -8.768  0.7049E-01  0.7049E-01  0.3947E+00  0.3947E+00
     -8.650  0.8371E-01  0.8371E-01  0.4047E+00  0.4047E+00
     -8.531  0.6895E-01  0.6895E-01  0.4128E+00  0.4128E+00
     -8.413  0.8215E-01  0.8215E-01  0.4226E+00  0.4226E+00
     -8.295  0.5793E-01  0.5793E-01  0.4294E+00  0.4294E+00
     -8.176  0.6043E-01  0.6043E-01  0.4366E+00  0.4366E+00
     -8.058  0.6292E-01  0.6292E-01  0.4440E+00  0.4440E+00
     -7.939  0.7202E-01  0.7202E-01  0.4526E+00  0.4526E+00
     -7.821  0.5975E-01  0.5975E-01  0.4596E+00  0.4596E+00
     -7.702  0.6156E-01  0.6156E-01  0.4669E+00  0.4669E+00
     -7.584  0.5920E-01  0.5920E-01  0.4739E+00  0.4739E+00
     -7.466  0.6238E-01  0.6238E-01  0.4813E+00  0.4813E+00
     -7.347  0.4293E-01  0.4293E-01  0.4864E+00  0.4864E+00
     -7.229  0.4816E-01  0.4816E-01  0.4921E+00  0.4921E+00
     -7.110  0.6142E-01  0.6142E-01  0.4994E+00  0.4994E+00
     -6.992  0.5259E-01  0.5259E-01  0.5056E+00  0.5056E+00
     -6.873  0.3959E-01  0.3959E-01  0.5103E+00  0.5103E+00
     -6.755  0.3642E-01  0.3642E-01  0.5146E+00  0.5146E+00
     -6.637  0.5829E-01  0.5829E-01  0.5215E+00  0.5215E+00
     -6.518  0.5888E-01  0.5888E-01  0.5285E+00  0.5285E+00
     -6.400  0.3605E-01  0.3605E-01  0.5328E+00  0.5328E+00
     -6.281  0.3672E-01  0.3672E-01  0.5371E+00  0.5371E+00
     -6.163  0.4463E-01  0.4463E-01  0.5424E+00  0.5424E+00
     -6.044  0.5477E-01  0.5477E-01  0.5489E+00  0.5489E+00
     -5.926  0.4392E-01  0.4392E-01  0.5541E+00  0.5541E+00
     -5.807  0.3773E-01  0.3773E-01  0.5586E+00  0.5586E+00
     -5.689  0.5636E-01  0.5636E-01  0.5652E+00  0.5652E+00
     -5.571  0.5711E-01  0.5711E-01  0.5720E+00  0.5720E+00
     -5.452  0.5330E-01  0.5330E-01  0.5783E+00  0.5783E+00
     -5.334  0.2313E-01  0.2313E-01  0.5810E+00  0.5810E+00
     -5.215  0.2310E-01  0.2310E-01  0.5838E+00  0.5838E+00
     -5.097  0.2439E-01  0.2439E-01  0.5867E+00  0.5867E+00
     -4.978  0.2451E-01  0.2451E-01  0.5896E+00  0.5896E+00
     -4.860  0.3879E-01  0.3879E-01  0.5942E+00  0.5942E+00
     -4.742  0.3967E-01  0.3967E-01  0.5989E+00  0.5989E+00
     -4.623  0.3039E-01  0.3039E-01  0.6025E+00  0.6025E+00
     -4.505  0.2629E-01  0.2629E-01  0.6056E+00  0.6056E+00
     -4.386  0.3895E-01  0.3895E-01  0.6102E+00  0.6102E+00
     -4.268  0.2765E-01  0.2765E-01  0.6135E+00  0.6135E+00
     -4.149  0.2062E-01  0.2062E-01  0.6159E+00  0.6159E+00
     -4.031  0.1547E-01  0.1547E-01  0.6177E+00  0.6177E+00
     -3.913  0.1770E-01  0.1770E-01  0.6198E+00  0.6198E+00
     -3.794  0.1098E-01  0.1098E-01  0.6211E+00  0.6211E+00
     -3.676  0.2247E-01  0.2247E-01  0.6238E+00  0.6238E+00
     -3.557  0.1018E-01  0.1018E-01  0.6250E+00  0.6250E+00
     -3.439  0.7804E-02  0.7804E-02  0.6259E+00  0.6259E+00
     -3.320  0.1352E-01  0.1352E-01  0.6275E+00  0.6275E+00
     -3.202  0.1054E-01  0.1054E-01  0.6288E+00  0.6288E+00
     -3.083  0.1316E-01  0.1316E-01  0.6303E+00  0.6303E+00
     -2.965  0.2591E-02  0.2591E-02  0.6306E+00  0.6306E+00
     -2.847  0.4975E-02  0.4975E-02  0.6312E+00  0.6312E+00
     -2.728  0.5605E-02  0.5605E-02  0.6319E+00  0.6319E+00
     -2.610  0.5112E-02  0.5112E-02  0.6325E+00  0.6325E+00
     -2.491  0.2800E-02  0.2800E-02  0.6328E+00  0.6328E+00
     -2.373  0.3970E-02  0.3970E-02  0.6333E+00  0.6333E+00
     -2.254  0.7843E-03  0.7843E-03  0.6334E+00  0.6334E+00
     -2.136  0.4468E-02  0.4468E-02  0.6339E+00  0.6339E+00
     -2.018  0.2107E-02  0.2107E-02  0.6342E+00  0.6342E+00
     -1.899  0.5616E-02  0.5616E-02  0.6348E+00  0.6348E+00
     -1.781  0.7203E-02  0.7203E-02  0.6357E+00  0.6357E+00
     -1.662  0.3027E-02  0.3027E-02  0.6361E+00  0.6361E+00
     -1.544  0.5647E-02  0.5647E-02  0.6367E+00  0.6367E+00
     -1.425  0.1490E-01  0.1490E-01  0.6385E+00  0.6385E+00
     -1.307  0.1060E-01  0.1060E-01  0.6397E+00  0.6397E+00
     -1.189  0.1610E-01  0.1610E-01  0.6416E+00  0.6416E+00
     -1.070  0.1662E-01  0.1662E-01  0.6436E+00  0.6436E+00
     -0.952  0.1785E-01  0.1785E-01  0.6457E+00  0.6457E+00
     -0.833  0.8992E-02  0.8992E-02  0.6468E+00  0.6468E+00
     -0.715  0.3465E-01  0.3465E-01  0.6509E+00  0.6509E+00
     -0.596  0.2912E-01  0.2912E-01  0.6543E+00  0.6543E+00
     -0.478  0.2801E-01  0.2801E-01  0.6577E+00  0.6577E+00
     -0.359  0.5258E-01  0.5258E-01  0.6639E+00  0.6639E+00
     -0.241  0.3676E-01  0.3676E-01  0.6682E+00  0.6682E+00
     -0.123  0.1937E-01  0.1937E-01  0.6705E+00  0.6705E+00
     -0.004  0.1297E-01  0.1297E-01  0.6721E+00  0.6721E+00
      0.114  0.2267E-01  0.2267E-01  0.6748E+00  0.6748E+00
      0.233  0.3184E-01  0.3184E-01  0.6785E+00  0.6785E+00
      0.351  0.3846E-01  0.3846E-01  0.6831E+00  0.6831E+00
      0.470  0.1662E-01  0.1662E-01  0.6851E+00  0.6851E+00
      0.588  0.3162E-01  0.3162E-01  0.6888E+00  0.6888E+00
      0.706  0.1854E-01  0.1854E-01  0.6910E+00  0.6910E+00
      0.825  0.1999E-01  0.1999E-01  0.6934E+00  0.6934E+00
      0.943  0.2351E-01  0.2351E-01  0.6962E+00  0.6962E+00
      1.062  0.3782E-01  0.3782E-01  0.7006E+00  0.7006E+00
      1.180  0.4178E-01  0.4178E-01  0.7056E+00  0.7056E+00
      1.299  0.2373E-01  0.2373E-01  0.7084E+00  0.7084E+00
      1.417  0.3544E-01  0.3544E-01  0.7126E+00  0.7126E+00
      1.535  0.3689E-01  0.3689E-01  0.7170E+00  0.7170E+00
      1.654  0.4286E-01  0.4286E-01  0.7220E+00  0.7220E+00
      1.772  0.4853E-01  0.4853E-01  0.7278E+00  0.7278E+00
      1.891  0.3978E-01  0.3978E-01  0.7325E+00  0.7325E+00
      2.009  0.5447E-01  0.5447E-01  0.7389E+00  0.7389E+00
      2.128  0.5058E-01  0.5058E-01  0.7449E+00  0.7449E+00
      2.246  0.5450E-01  0.5450E-01  0.7514E+00  0.7514E+00
      2.365  0.6932E-01  0.6932E-01  0.7596E+00  0.7596E+00
      2.483  0.7284E-01  0.7284E-01  0.7682E+00  0.7682E+00
      2.601  0.7678E-01  0.7678E-01  0.7773E+00  0.7773E+00
      2.720  0.5877E-01  0.5877E-01  0.7843E+00  0.7843E+00
      2.838  0.7706E-01  0.7706E-01  0.7934E+00  0.7934E+00
      2.957  0.4944E-01  0.4944E-01  0.7993E+00  0.7993E+00
      3.075  0.6190E-02  0.6190E-02  0.8000E+00  0.8000E+00
      3.194  0.5866E-04  0.5867E-04  0.8000E+00  0.8000E+00
      3.312  0.7416E-10  0.7417E-10  0.8000E+00  0.8000E+00
      3.430  0.0000E+00  0.0000E+00  0.8000E+00  0.8000E+00
      3.549  0.0000E+00  0.0000E+00  0.8000E+00  0.8000E+00
      3.667  0.0000E+00  0.0000E+00  0.8000E+00  0.8000E+00
      3.786  0.0000E+00  0.0000E+00  0.8000E+00  0.8000E+00
      3.904  0.0000E+00  0.0000E+00  0.8000E+00  0.8000E+00
      4.023  0.0000E+00  0.0000E+00  0.8000E+00  0.8000E+00
      4.141  0.0000E+00  0.0000E+00  0.8000E+00  0.8000E+00
      4.259  0.0000E+00  0.0000E+00  0.8000E+00  0.8000E+00
      4.378  0.0000E+00  0.0000E+00  0.8000E+00  0.8000E+00
      4.496  0.0000E+00  0.0000E+00  0.8000E+00  0.8000E+00
      4.615  0.0000E+00  0.0000E+00  0.8000E+00  0.8000E+00
