 running   48 mpi-ranks, with    1 threads/rank, on    1 nodes
 distrk:  each k-point on   48 cores,    1 groups
 distr:  one band on   24 cores,    2 groups
 vasp.6.4.2 20Jul23 (build Jan 24 2024 13:44:02) complex                         
 POSCAR found type information on POSCAR C H F O 
 POSCAR found :  4 types and      99 ions
 scaLAPACK will be used selectively (only on CPU)
 -----------------------------------------------------------------------------
|                                                                             |
|               ----> ADVICE to this user running VASP <----                  |
|                                                                             |
|     You have a (more or less) 'large supercell' and for larger cells it     |
|     might be more efficient to use real-space projection operators.         |
|     Therefore, try LREAL= Auto in the INCAR file.                           |
|     Mind: For very accurate calculation, you might also keep the            |
|     reciprocal projection scheme (i.e. LREAL=.FALSE.).                      |
|                                                                             |
 -----------------------------------------------------------------------------

 LDA part: xc-table for Pade appr. of Perdew
 POSCAR, INCAR and KPOINTS ok, starting setup
 FFT: planning ... GRIDC
 FFT: planning ... GRID_SOFT
 FFT: planning ... GRID
 WAVECAR not read
 entering main loop
       N       E                     dE             d eps       ncg     rms          rms(c)
DAV:   1     0.353909357519E+04    0.35391E+04   -0.14490E+05 10544   0.120E+03
DAV:   2    -0.200962686221E+03   -0.37401E+04   -0.35612E+04 13984   0.290E+02
DAV:   3    -0.887708995369E+03   -0.68675E+03   -0.68389E+03 11568   0.130E+02
DAV:   4    -0.913243133207E+03   -0.25534E+02   -0.25382E+02 11424   0.316E+01
DAV:   5    -0.914020548127E+03   -0.77741E+00   -0.77559E+00 13096   0.479E+00    0.439E+01
DAV:   6    -0.880601508482E+03    0.33419E+02   -0.21976E+01 10816   0.897E+00    0.335E+01
DAV:   7    -0.852178850800E+03    0.28423E+02   -0.10756E+02 10672   0.184E+01    0.134E+01
DAV:   8    -0.851827777408E+03    0.35107E+00   -0.73539E+00 11296   0.582E+00    0.622E+00
DAV:   9    -0.851906147680E+03   -0.78370E-01   -0.10561E+00 11008   0.235E+00    0.276E+00
DAV:  10    -0.851772746082E+03    0.13340E+00   -0.49921E-01 11168   0.145E+00    0.954E-01
DAV:  11    -0.851762479990E+03    0.10266E-01   -0.86799E-02 10800   0.677E-01    0.339E-01
DAV:  12    -0.851760012285E+03    0.24677E-02   -0.27327E-02 11400   0.484E-01    0.136E-01
DAV:  13    -0.851760298532E+03   -0.28625E-03   -0.48090E-03 11288   0.160E-01    0.130E-01
DAV:  14    -0.851760210655E+03    0.87877E-04   -0.77340E-04 11272   0.688E-02    0.839E-02
DAV:  15    -0.851760247829E+03   -0.37175E-04   -0.39846E-04 11328   0.525E-02    0.393E-02
DAV:  16    -0.851760296462E+03   -0.48633E-04   -0.95715E-05 10680   0.230E-02    0.243E-02
DAV:  17    -0.851760295696E+03    0.76619E-06   -0.31362E-05 11544   0.196E-02    0.804E-03
DAV:  18    -0.851760296326E+03   -0.63005E-06   -0.91783E-06 10880   0.725E-03
   1 F= -.85962419E+03 E0= -.85962414E+03  d E =-.859624E+03  mag=     0.0000
 curvature:   0.00 expect dE= 0.000E+00 dE for cont linesearch  0.000E+00
 trial: gam= 0.00000 g(F)=  0.649E-03 g(S)=  0.000E+00 ort = 0.000E+00 (trialstep = 0.100E+01)
 search vector abs. value=  0.649E-03
 bond charge predicted
       N       E                     dE             d eps       ncg     rms          rms(c)
DAV:   1    -0.851760739636E+03   -0.44394E-03   -0.18545E-02 10240   0.306E-01    0.338E-02
DAV:   2    -0.851760763682E+03   -0.24046E-04   -0.43230E-04 11648   0.434E-02    0.290E-02
DAV:   3    -0.851760747937E+03    0.15745E-04   -0.25253E-05 11568   0.119E-02    0.193E-02
DAV:   4    -0.851760740012E+03    0.79253E-05   -0.35225E-05  9880   0.137E-02    0.529E-03
DAV:   5    -0.851760740084E+03   -0.72105E-07   -0.80589E-06  8784   0.588E-03
   2 F= -.85962460E+03 E0= -.85962455E+03  d E =-.413077E-03  mag=    -0.0000
 trial-energy change:   -0.000413  1 .order   -0.000413   -0.000649   -0.000177
 step:   1.3764(harm=  1.3764)  dis= 0.00069  next Energy=  -859.624632 (dE=-0.447E-03)
 bond charge predicted
       N       E                     dE             d eps       ncg     rms          rms(c)
DAV:   1    -0.851760784720E+03   -0.44708E-04   -0.26156E-03 10240   0.115E-01    0.130E-02
DAV:   2    -0.851760788491E+03   -0.37704E-05   -0.59806E-05 11664   0.162E-02    0.108E-02
DAV:   3    -0.851760786555E+03    0.19358E-05   -0.32587E-06  8320   0.448E-03    0.724E-03
DAV:   4    -0.851760785839E+03    0.71604E-06   -0.56990E-06  9264   0.536E-03
   3 F= -.85962463E+03 E0= -.85962458E+03  d E =-.446977E-03  mag=    -0.0000
 curvature:  -0.69 expect dE=-0.618E-04 dE for cont linesearch -0.197E-07
 trial: gam= 0.14504 g(F)=  0.898E-04 g(S)=  0.000E+00 ort =-0.431E-05 (trialstep = 0.108E+01)
 search vector abs. value=  0.102E-03
 bond charge predicted
       N       E                     dE             d eps       ncg     rms          rms(c)
DAV:   1    -0.851760863096E+03   -0.76541E-04   -0.26275E-03 10008   0.118E-01    0.103E-02
DAV:   2    -0.851760866509E+03   -0.34126E-05   -0.48027E-05 11576   0.147E-02    0.890E-03
DAV:   3    -0.851760865822E+03    0.68685E-06   -0.16996E-06  7288   0.340E-03
   4 F= -.85962471E+03 E0= -.85962467E+03  d E =-.816645E-04  mag=     0.0000
 trial-energy change:   -0.000082  1 .order   -0.000082   -0.000096   -0.000069
 step:   3.8316(harm=  3.8316)  dis= 0.00088  next Energy=  -859.624803 (dE=-0.171E-03)
 bond charge predicted
       N       E                     dE             d eps       ncg     rms          rms(c)
DAV:   1    -0.851760919537E+03   -0.53028E-04   -0.16954E-02  9856   0.301E-01    0.266E-02
DAV:   2    -0.851760940370E+03   -0.20833E-04   -0.29296E-04 11616   0.362E-02    0.230E-02
DAV:   3    -0.851760936476E+03    0.38939E-05   -0.12064E-05 11984   0.820E-03    0.174E-02
DAV:   4    -0.851760935051E+03    0.14243E-05   -0.12682E-05  9824   0.880E-03    0.586E-03
DAV:   5    -0.851760935493E+03   -0.44199E-06   -0.34041E-06  7504   0.398E-03
   5 F= -.85962479E+03 E0= -.85962474E+03  d E =-.155243E-03  mag=    -0.0000
 curvature:  -2.20 expect dE=-0.288E-03 dE for cont linesearch -0.207E-05
 trial: gam= 1.56992 g(F)=  0.131E-03 g(S)=  0.000E+00 ort =-0.983E-05 (trialstep = 0.472E+00)
 search vector abs. value=  0.352E-03
 bond charge predicted
       N       E                     dE             d eps       ncg     rms          rms(c)
DAV:   1    -0.851760979475E+03   -0.44424E-04   -0.17235E-03  9984   0.950E-02    0.787E-03
DAV:   2    -0.851760981678E+03   -0.22027E-05   -0.29977E-05 11536   0.115E-02    0.674E-03
DAV:   3    -0.851760981411E+03    0.26728E-06   -0.74758E-07  6560   0.229E-03
   6 F= -.85962484E+03 E0= -.85962479E+03  d E =-.498672E-04  mag=    -0.0000
 ZBRENT: can't locate minimum, use default step
 trial-energy change:   -0.000050  1 .order   -0.000050   -0.000055   -0.000046
 step:   1.8885(harm=  2.9568)  dis= 0.00091  next Energy=  -859.624959 (dE=-0.171E-03)
 bond charge predicted
       N       E                     dE             d eps       ncg     rms          rms(c)
DAV:   1    -0.851761041858E+03   -0.60180E-04   -0.15303E-02  9776   0.283E-01    0.231E-02
DAV:   2    -0.851761060549E+03   -0.18691E-04   -0.25440E-04 11568   0.334E-02    0.201E-02
DAV:   3    -0.851761058117E+03    0.24320E-05   -0.79275E-06 11616   0.663E-03    0.155E-02
DAV:   4    -0.851761057689E+03    0.42836E-06   -0.90957E-06  9568   0.750E-03
   7 F= -.85962493E+03 E0= -.85962488E+03  d E =-.137783E-03  mag=     0.0000
 curvature:  -3.67 expect dE=-0.205E-03 dE for cont linesearch -0.742E-05
 ZBRENT: extrapolating
 opt :   2.4246  next Energy=  -859.624933 (dE=-0.145E-03)
 bond charge predicted
       N       E                     dE             d eps       ncg     rms          rms(c)
DAV:   1    -0.851761060333E+03   -0.22156E-05   -0.22181E-03  9976   0.108E-01    0.958E-03
DAV:   2    -0.851761063029E+03   -0.26967E-05   -0.35926E-05 11608   0.127E-02    0.811E-03
DAV:   3    -0.851761062899E+03    0.13002E-06   -0.89479E-07  6896   0.254E-03
   8 F= -.85962494E+03 E0= -.85962489E+03  d E =-.147337E-03  mag=     0.0000
 curvature:  -3.54 expect dE=-0.233E-03 dE for cont linesearch -0.536E-06
 trial: gam= 0.24597 g(F)=  0.658E-04 g(S)=  0.000E+00 ort = 0.730E-05 (trialstep = 0.863E+00)
 search vector abs. value=  0.907E-04
 bond charge predicted
       N       E                     dE             d eps       ncg     rms          rms(c)
DAV:   1    -0.851761112610E+03   -0.49581E-04   -0.13755E-03  9936   0.849E-02    0.769E-03
DAV:   2    -0.851761114363E+03   -0.17527E-05   -0.25068E-05 11456   0.107E-02    0.678E-03
DAV:   3    -0.851761114019E+03    0.34345E-06   -0.85167E-07  6528   0.251E-03
   9 F= -.85962499E+03 E0= -.85962494E+03  d E =-.512352E-04  mag=     0.0000
 ZBRENT: can't locate minimum, use default step
 trial-energy change:   -0.000051  1 .order   -0.000052   -0.000058   -0.000046
 step:   3.4504(harm=  3.9603)  dis= 0.00079  next Energy=  -859.625069 (dE=-0.134E-03)
 bond charge predicted
       N       E                     dE             d eps       ncg     rms          rms(c)
DAV:   1    -0.851761174500E+03   -0.60137E-04   -0.12466E-02  9856   0.256E-01    0.226E-02
DAV:   2    -0.851761190836E+03   -0.16336E-04   -0.22544E-04 11568   0.319E-02    0.198E-02
DAV:   3    -0.851761187697E+03    0.31391E-05   -0.87115E-06 11880   0.705E-03    0.151E-02
DAV:   4    -0.851761187069E+03    0.62740E-06   -0.12578E-05  9776   0.877E-03    0.480E-03
DAV:   5    -0.851761187258E+03   -0.18885E-06   -0.33094E-06  7536   0.413E-03
  10 F= -.85962506E+03 E0= -.85962501E+03  d E =-.124314E-03  mag=     0.0000
 curvature:  -2.59 expect dE=-0.162E-03 dE for cont linesearch -0.303E-06
 trial: gam= 0.94670 g(F)=  0.628E-04 g(S)=  0.000E+00 ort = 0.326E-05 (trialstep = 0.833E+00)
 search vector abs. value=  0.150E-03
 bond charge predicted
       N       E                     dE             d eps       ncg     rms          rms(c)
DAV:   1    -0.851761232802E+03   -0.45733E-04   -0.20448E-03  9872   0.102E-01    0.855E-03
DAV:   2    -0.851761235284E+03   -0.24824E-05   -0.34852E-05 11456   0.123E-02    0.761E-03
DAV:   3    -0.851761234860E+03    0.42485E-06   -0.93575E-07  6992   0.260E-03
  11 F= -.85962511E+03 E0= -.85962506E+03  d E =-.485282E-04  mag=     0.0000
 ZBRENT: can't locate minimum, use default step
 trial-energy change:   -0.000049  1 .order   -0.000049   -0.000055   -0.000043
 step:   3.3323(harm=  3.7350)  dis= 0.00116  next Energy=  -859.625182 (dE=-0.123E-03)
 bond charge predicted
       N       E                     dE             d eps       ncg     rms          rms(c)
DAV:   1    -0.851761272387E+03   -0.37103E-04   -0.18109E-02  9808   0.303E-01    0.254E-02
DAV:   2    -0.851761293792E+03   -0.21405E-04   -0.29769E-04 11568   0.358E-02    0.227E-02
DAV:   3    -0.851761289996E+03    0.37957E-05   -0.96646E-06 11768   0.742E-03    0.171E-02
DAV:   4    -0.851761289849E+03    0.14660E-06   -0.15198E-05  9600   0.945E-03    0.441E-03
DAV:   5    -0.851761290067E+03   -0.21774E-06   -0.37495E-06  7952   0.414E-03
  12 F= -.85962517E+03 E0= -.85962512E+03  d E =-.106318E-03  mag=     0.0000
 curvature:  -4.18 expect dE=-0.271E-03 dE for cont linesearch -0.680E-06
 trial: gam= 1.21224 g(F)=  0.649E-04 g(S)=  0.000E+00 ort =-0.495E-05 (trialstep = 0.732E+00)
 search vector abs. value=  0.274E-03
 bond charge predicted
       N       E                     dE             d eps       ncg     rms          rms(c)
DAV:   1    -0.851761326641E+03   -0.36791E-04   -0.27498E-03  9856   0.116E-01    0.981E-03
DAV:   2    -0.851761329908E+03   -0.32668E-05   -0.45221E-05 11360   0.140E-02    0.872E-03
DAV:   3    -0.851761329440E+03    0.46724E-06   -0.11885E-06  7248   0.289E-03
  13 F= -.85962521E+03 E0= -.85962516E+03  d E =-.401829E-04  mag=     0.0000
 ZBRENT: can't locate minimum, use default step
 trial-energy change:   -0.000040  1 .order   -0.000040   -0.000043   -0.000038
 step:   2.9267(harm=  5.6910)  dis= 0.00160  next Energy=  -859.625333 (dE=-0.168E-03)
 bond charge predicted
       N       E                     dE             d eps       ncg     rms          rms(c)
DAV:   1    -0.851761372349E+03   -0.42442E-04   -0.24254E-02  9792   0.345E-01    0.292E-02
DAV:   2    -0.851761399583E+03   -0.27233E-04   -0.38236E-04 11320   0.407E-02    0.260E-02
DAV:   3    -0.851761394876E+03    0.47063E-05   -0.12223E-05 11736   0.847E-03    0.190E-02
DAV:   4    -0.851761395780E+03   -0.90372E-06   -0.17136E-05  9744   0.992E-03    0.510E-03
DAV:   5    -0.851761396167E+03   -0.38683E-06   -0.46283E-06  8176   0.441E-03
  14 F= -.85962527E+03 E0= -.85962523E+03  d E =-.109207E-03  mag=    -0.0000
 curvature:  -9.11 expect dE=-0.508E-03 dE for cont linesearch -0.371E-05
 trial: gam= 0.46457 g(F)=  0.558E-04 g(S)=  0.000E+00 ort = 0.106E-04 (trialstep = 0.117E+01)
 search vector abs. value=  0.125E-03
 bond charge predicted
       N       E                     dE             d eps       ncg     rms          rms(c)
DAV:   1    -0.851761451028E+03   -0.55248E-04   -0.31439E-03  9840   0.126E-01    0.109E-02
DAV:   2    -0.851761454972E+03   -0.39440E-05   -0.55766E-05 11520   0.156E-02    0.968E-03
DAV:   3    -0.851761454270E+03    0.70191E-06   -0.17340E-06  7568   0.338E-03
  15 F= -.85962534E+03 E0= -.85962529E+03  d E =-.617399E-04  mag=    -0.0000
 ZBRENT: can't locate minimum, use default step
 trial-energy change:   -0.000062  1 .order   -0.000062   -0.000071   -0.000054
 step:   4.6827(harm=  4.7704)  dis= 0.00179  next Energy=  -859.625420 (dE=-0.145E-03)
 bond charge predicted
       N       E                     dE             d eps       ncg     rms          rms(c)
DAV:   1    -0.851761475521E+03   -0.20549E-04   -0.27698E-02  9776   0.373E-01    0.333E-02
DAV:   2    -0.851761508174E+03   -0.32653E-04   -0.46903E-04 11536   0.453E-02    0.294E-02
DAV:   3    -0.851761501271E+03    0.69027E-05   -0.17696E-05 11952   0.102E-02    0.213E-02
DAV:   4    -0.851761500776E+03    0.49472E-06   -0.24280E-05  9728   0.119E-02    0.602E-03
DAV:   5    -0.851761501272E+03   -0.49501E-06   -0.64802E-06  8672   0.530E-03
  16 F= -.85962539E+03 E0= -.85962535E+03  d E =-.119109E-03  mag=    -0.0000
 curvature:  -4.90 expect dE=-0.502E-03 dE for cont linesearch -0.665E-05
 ZBRENT: interpolating
 opt :   3.9056  next Energy=  -859.625399 (dE=-0.124E-03)
 bond charge predicted
       N       E                     dE             d eps       ncg     rms          rms(c)
DAV:   1    -0.851761506807E+03   -0.60303E-05   -0.13547E-03  9840   0.826E-02    0.731E-03
DAV:   2    -0.851761508150E+03   -0.13429E-05   -0.23444E-05 10784   0.102E-02    0.665E-03
DAV:   3    -0.851761507505E+03    0.64445E-06   -0.88201E-07  6616   0.246E-03
  17 F= -.85962540E+03 E0= -.85962535E+03  d E =-.123117E-03  mag=    -0.0000
 curvature:  -3.72 expect dE=-0.253E-03 dE for cont linesearch -0.763E-08
 trial: gam= 1.42039 g(F)=  0.680E-04 g(S)=  0.000E+00 ort =-0.506E-06 (trialstep = 0.673E+00)
 search vector abs. value=  0.318E-03
 bond charge predicted
       N       E                     dE             d eps       ncg     rms          rms(c)
DAV:   1    -0.851761539146E+03   -0.30996E-04   -0.24387E-03  9872   0.109E-01    0.863E-03
DAV:   2    -0.851761542128E+03   -0.29825E-05   -0.42383E-05 10920   0.135E-02    0.780E-03
DAV:   3    -0.851761541513E+03    0.61550E-06   -0.12633E-06  7104   0.290E-03
  18 F= -.85962544E+03 E0= -.85962539E+03  d E =-.403855E-04  mag=    -0.0000
 ZBRENT: can't locate minimum, use default step
 trial-energy change:   -0.000040  1 .order   -0.000041   -0.000045   -0.000037
 step:   2.6930(harm=  3.5377)  dis= 0.00185  next Energy=  -859.625517 (dE=-0.119E-03)
 bond charge predicted
       N       E                     dE             d eps       ncg     rms          rms(c)
DAV:   1    -0.851761559023E+03   -0.16895E-04   -0.21249E-02  9808   0.323E-01    0.283E-02
DAV:   2    -0.851761581868E+03   -0.22845E-04   -0.33005E-04 11192   0.377E-02    0.251E-02
DAV:   3    -0.851761577611E+03    0.42566E-05   -0.11874E-05 11648   0.840E-03    0.177E-02
DAV:   4    -0.851761578679E+03   -0.10679E-05   -0.14941E-05  9632   0.933E-03    0.465E-03
DAV:   5    -0.851761578943E+03   -0.26355E-06   -0.43130E-06  8144   0.427E-03
  19 F= -.85962549E+03 E0= -.85962545E+03  d E =-.967971E-04  mag=    -0.0000
 curvature:  -7.64 expect dE=-0.368E-03 dE for cont linesearch -0.383E-07
 trial: gam= 0.55708 g(F)=  0.481E-04 g(S)=  0.000E+00 ort = 0.126E-05 (trialstep = 0.108E+01)
 search vector abs. value=  0.148E-03
 bond charge predicted
       N       E                     dE             d eps       ncg     rms          rms(c)
DAV:   1    -0.851761619339E+03   -0.40660E-04   -0.27189E-03  9888   0.115E-01    0.103E-02
DAV:   2    -0.851761622714E+03   -0.33745E-05   -0.47579E-05 11120   0.144E-02    0.915E-03
DAV:   3    -0.851761622091E+03    0.62310E-06   -0.15290E-06  7208   0.319E-03
  20 F= -.85962554E+03 E0= -.85962549E+03  d E =-.468461E-04  mag=    -0.0000
 ZBRENT: can't locate minimum, use default step
 trial-energy change:   -0.000047  1 .order   -0.000047   -0.000053   -0.000042
 step:   4.3088(harm=  5.1300)  dis= 0.00221  next Energy=  -859.625620 (dE=-0.125E-03)
 bond charge predicted
       N       E                     dE             d eps       ncg     rms          rms(c)
DAV:   1    -0.851761643508E+03   -0.20794E-04   -0.23898E-02  9792   0.341E-01    0.313E-02
DAV:   2    -0.851761671110E+03   -0.27603E-04   -0.39716E-04 10960   0.416E-02    0.276E-02
DAV:   3    -0.851761665082E+03    0.60284E-05   -0.15958E-05 11880   0.962E-03    0.195E-02
DAV:   4    -0.851761665754E+03   -0.67215E-06   -0.22556E-05  9632   0.114E-02    0.535E-03
DAV:   5    -0.851761665764E+03   -0.96625E-08   -0.69155E-06  9920   0.561E-03
  21 F= -.85962560E+03 E0= -.85962555E+03  d E =-.101236E-03  mag=    -0.0000
 curvature:  -7.47 expect dE=-0.585E-03 dE for cont linesearch -0.110E-05
 trial: gam= 1.79767 g(F)=  0.784E-04 g(S)=  0.000E+00 ort =-0.468E-05 (trialstep = 0.473E+00)
 search vector abs. value=  0.541E-03
 bond charge predicted
       N       E                     dE             d eps       ncg     rms          rms(c)
DAV:   1    -0.851761693856E+03   -0.28101E-04   -0.16988E-03  9920   0.894E-02    0.819E-03
DAV:   2    -0.851761695821E+03   -0.19658E-05   -0.27042E-05 10800   0.108E-02    0.711E-03
DAV:   3    -0.851761695608E+03    0.21308E-06   -0.89273E-07  6928   0.256E-03
  22 F= -.85962563E+03 E0= -.85962558E+03  d E =-.317542E-04  mag=    -0.0000
 ZBRENT: can't locate minimum, use default step
 trial-energy change:   -0.000032  1 .order   -0.000032   -0.000033   -0.000030
 step:   1.8904(harm=  5.7148)  dis= 0.00198  next Energy=  -859.625796 (dE=-0.200E-03)
 bond charge predicted
       N       E                     dE             d eps       ncg     rms          rms(c)
DAV:   1    -0.851761745584E+03   -0.49762E-04   -0.15046E-02  9888   0.266E-01    0.240E-02
DAV:   2    -0.851761761774E+03   -0.16190E-04   -0.22848E-04 10640   0.313E-02    0.211E-02
DAV:   3    -0.851761759209E+03    0.25651E-05   -0.84210E-06 11296   0.716E-03    0.144E-02
DAV:   4    -0.851761760769E+03   -0.15597E-05   -0.10027E-05  9488   0.751E-03    0.385E-03
DAV:   5    -0.851761760798E+03   -0.29562E-07   -0.33526E-06  7960   0.380E-03
  23 F= -.85962570E+03 E0= -.85962565E+03  d E =-.102595E-03  mag=    -0.0000
 curvature: -10.33 expect dE=-0.537E-03 dE for cont linesearch -0.216E-04
 ZBRENT: increasing intervall
 opt :   4.7259  next Energy=  -859.625707 (dE=-0.111E-03)
 bond charge predicted
       N       E                     dE             d eps       ncg     rms          rms(c)
DAV:   1    -0.851761716716E+03    0.44053E-04   -0.60898E-02  9888   0.536E-01    0.470E-02
DAV:   2    -0.851761784553E+03   -0.67837E-04   -0.95622E-04 10528   0.642E-02    0.415E-02
DAV:   3    -0.851761772329E+03    0.12224E-04   -0.35899E-05 11744   0.148E-02    0.288E-02
DAV:   4    -0.851761776272E+03   -0.39428E-05   -0.41796E-05  9936   0.153E-02    0.811E-03
DAV:   5    -0.851761776824E+03   -0.55235E-06   -0.13809E-05 10480   0.766E-03    0.440E-03
DAV:   6    -0.851761777150E+03   -0.32561E-06   -0.11640E-06  6016   0.235E-03
  24 F= -.85962573E+03 E0= -.85962568E+03  d E =-.129878E-03  mag=    -0.0000
 curvature:  -4.11 expect dE=-0.535E-03 dE for cont linesearch -0.292E-05
 ZBRENT: bracketing found
 ZBRENT: interpolating
 opt :   3.6811  next Energy=  -859.625736 (dE=-0.140E-03)
 bond charge predicted
       N       E                     dE             d eps       ncg     rms          rms(c)
DAV:   1    -0.851761781943E+03   -0.51188E-05   -0.82077E-03  9920   0.197E-01    0.174E-02
DAV:   2    -0.851761790611E+03   -0.86680E-05   -0.12714E-04 10416   0.235E-02    0.155E-02
DAV:   3    -0.851761788559E+03    0.20520E-05   -0.48869E-06 10368   0.550E-03    0.107E-02
DAV:   4    -0.851761788827E+03   -0.26776E-06   -0.60469E-06  9136   0.579E-03
  25 F= -.85962573E+03 E0= -.85962569E+03  d E =-.137580E-03  mag=    -0.0000
 curvature: -14.40 expect dE=-0.122E-02 dE for cont linesearch -0.145E-05
 trial: gam= 0.76903 g(F)=  0.845E-04 g(S)=  0.000E+00 ort = 0.737E-05 (trialstep = 0.111E+01)
 search vector abs. value=  0.416E-03
 bond charge predicted
       N       E                     dE             d eps       ncg     rms          rms(c)
DAV:   1    -0.851761853175E+03   -0.64616E-04   -0.70671E-03  9920   0.183E-01    0.164E-02
DAV:   2    -0.851761861487E+03   -0.83116E-05   -0.12186E-04 10440   0.231E-02    0.146E-02
DAV:   3    -0.851761859204E+03    0.22834E-05   -0.49343E-06  9864   0.545E-03    0.104E-02
DAV:   4    -0.851761858962E+03    0.24198E-06   -0.79551E-06  9328   0.661E-03
  26 F= -.85962581E+03 E0= -.85962576E+03  d E =-.791982E-04  mag=     0.0000
 trial-energy change:   -0.000079  1 .order   -0.000079   -0.000100   -0.000057
 step:   2.5588(harm=  2.5588)  dis= 0.00234  next Energy=  -859.625849 (dE=-0.115E-03)
 bond charge predicted
       N       E                     dE             d eps       ncg     rms          rms(c)
DAV:   1    -0.851761886512E+03   -0.27308E-04   -0.12144E-02  9856   0.240E-01    0.232E-02
DAV:   2    -0.851761900580E+03   -0.14068E-04   -0.20382E-04 10784   0.300E-02    0.204E-02
DAV:   3    -0.851761897303E+03    0.32764E-05   -0.86927E-06 11600   0.735E-03    0.141E-02
DAV:   4    -0.851761898209E+03   -0.90626E-06   -0.11839E-05  9552   0.826E-03    0.441E-03
DAV:   5    -0.851761898140E+03    0.68962E-07   -0.43235E-06  8576   0.461E-03
  27 F= -.85962586E+03 E0= -.85962582E+03  d E =-.129912E-03  mag=    -0.0000
 curvature:  -5.90 expect dE=-0.297E-03 dE for cont linesearch -0.231E-05
 ZBRENT: extrapolating
 opt :   3.0424  next Energy=  -859.625867 (dE=-0.133E-03)
 bond charge predicted
       N       E                     dE             d eps       ncg     rms          rms(c)
DAV:   1    -0.851761896885E+03    0.13241E-05   -0.13523E-03  9920   0.801E-02    0.743E-03
DAV:   2    -0.851761898634E+03   -0.17482E-05   -0.23023E-05 10896   0.100E-02    0.639E-03
DAV:   3    -0.851761898378E+03    0.25526E-06   -0.80078E-07  6656   0.243E-03
  28 F= -.85962587E+03 E0= -.85962582E+03  d E =-.133985E-03  mag=    -0.0000
 curvature:  -7.87 expect dE=-0.533E-03 dE for cont linesearch -0.161E-06
 trial: gam= 0.84991 g(F)=  0.677E-04 g(S)=  0.000E+00 ort = 0.292E-05 (trialstep = 0.150E+01)
 search vector abs. value=  0.373E-03
 bond charge predicted
       N       E                     dE             d eps       ncg     rms          rms(c)
DAV:   1    -0.851761961803E+03   -0.63169E-04   -0.10390E-02  9872   0.221E-01    0.210E-02
DAV:   2    -0.851761973328E+03   -0.11525E-04   -0.16290E-04 10736   0.265E-02    0.184E-02
DAV:   3    -0.851761971160E+03    0.21678E-05   -0.64732E-06 10928   0.653E-03    0.126E-02
DAV:   4    -0.851761972181E+03   -0.10208E-05   -0.81562E-06  9536   0.675E-03    0.378E-03
DAV:   5    -0.851761972188E+03   -0.74651E-08   -0.25742E-06  7400   0.358E-03
  29 F= -.85962595E+03 E0= -.85962590E+03  d E =-.839310E-04  mag=     0.0000
 trial-energy change:   -0.000084  1 .order   -0.000082   -0.000105   -0.000059
 step:   3.3913(harm=  3.3913)  dis= 0.00304  next Energy=  -859.625987 (dE=-0.119E-03)
 bond charge predicted
       N       E                     dE             d eps       ncg     rms          rms(c)
DAV:   1    -0.851761987123E+03   -0.14942E-04   -0.16706E-02  9888   0.280E-01    0.258E-02
DAV:   2    -0.851762006633E+03   -0.19510E-04   -0.27048E-04 10720   0.341E-02    0.226E-02
DAV:   3    -0.851762003031E+03    0.36027E-05   -0.10610E-05 11840   0.829E-03    0.158E-02
DAV:   4    -0.851762004261E+03   -0.12302E-05   -0.13126E-05  9792   0.866E-03    0.487E-03
DAV:   5    -0.851762004358E+03   -0.97309E-07   -0.42900E-06  8288   0.457E-03
  30 F= -.85962600E+03 E0= -.85962595E+03  d E =-.128565E-03  mag=    -0.0000
 curvature:  -9.01 expect dE=-0.504E-03 dE for cont linesearch -0.208E-06
 trial: gam= 0.78258 g(F)=  0.560E-04 g(S)=  0.000E+00 ort = 0.293E-05 (trialstep = 0.188E+01)
 search vector abs. value=  0.289E-03
 bond charge predicted
       N       E                     dE             d eps       ncg     rms          rms(c)
DAV:   1    -0.851762067167E+03   -0.62906E-04   -0.11777E-02  9904   0.234E-01    0.227E-02
DAV:   2    -0.851762081034E+03   -0.13867E-04   -0.19457E-04 10904   0.290E-02    0.199E-02
DAV:   3    -0.851762078239E+03    0.27944E-05   -0.86830E-06 11696   0.729E-03    0.139E-02
DAV:   4    -0.851762079270E+03   -0.10303E-05   -0.10412E-05  9616   0.773E-03    0.477E-03
DAV:   5    -0.851762079307E+03   -0.37246E-07   -0.36985E-06  7760   0.421E-03
  31 F= -.85962608E+03 E0= -.85962603E+03  d E =-.807889E-04  mag=    -0.0000
 trial-energy change:   -0.000081  1 .order   -0.000077   -0.000109   -0.000044
 step:   3.1636(harm=  3.1636)  dis= 0.00263  next Energy=  -859.626088 (dE=-0.922E-04)
 bond charge predicted
       N       E                     dE             d eps       ncg     rms          rms(c)
DAV:   1    -0.851762087770E+03   -0.85006E-05   -0.55208E-03  9920   0.160E-01    0.156E-02
DAV:   2    -0.851762094459E+03   -0.66891E-05   -0.91817E-05 10864   0.200E-02    0.135E-02
DAV:   3    -0.851762093208E+03    0.12516E-05   -0.39964E-06  9472   0.509E-03    0.947E-03
DAV:   4    -0.851762093884E+03   -0.67650E-06   -0.58271E-06  9168   0.565E-03
  32 F= -.85962610E+03 E0= -.85962605E+03  d E =-.991899E-04  mag=     0.0000
 curvature:  -7.84 expect dE=-0.441E-03 dE for cont linesearch -0.577E-07
 trial: gam= 1.08756 g(F)=  0.563E-04 g(S)=  0.000E+00 ort =-0.146E-05 (trialstep = 0.156E+01)
 search vector abs. value=  0.395E-03
 bond charge predicted
       N       E                     dE             d eps       ncg     rms          rms(c)
DAV:   1    -0.851762150996E+03   -0.57788E-04   -0.97251E-03  9920   0.207E-01    0.215E-02
DAV:   2    -0.851762161279E+03   -0.10283E-04   -0.14784E-04 10608   0.249E-02    0.187E-02
DAV:   3    -0.851762159535E+03    0.17446E-05   -0.73257E-06 10960   0.697E-03    0.118E-02
DAV:   4    -0.851762161192E+03   -0.16567E-05   -0.74038E-06  9856   0.618E-03    0.386E-03
DAV:   5    -0.851762161080E+03    0.11201E-06   -0.26588E-06  7600   0.369E-03
  33 F= -.85962617E+03 E0= -.85962612E+03  d E =-.769327E-04  mag=    -0.0000
 trial-energy change:   -0.000077  1 .order   -0.000073   -0.000085   -0.000060
 step:   2.8689(harm=  5.2538)  dis= 0.00293  next Energy=  -859.626200 (dE=-0.104E-03)
 bond charge predicted
       N       E                     dE             d eps       ncg     rms          rms(c)
DAV:   1    -0.851762188798E+03   -0.27606E-04   -0.67491E-03  9920   0.173E-01    0.171E-02
DAV:   2    -0.851762196340E+03   -0.75426E-05   -0.10384E-04 10592   0.208E-02    0.149E-02
DAV:   3    -0.851762195180E+03    0.11606E-05   -0.46071E-06 10272   0.551E-03    0.977E-03
DAV:   4    -0.851762196237E+03   -0.10574E-05   -0.51320E-06  9232   0.525E-03    0.314E-03
DAV:   5    -0.851762196164E+03    0.73116E-07   -0.19810E-06  7088   0.317E-03
  34 F= -.85962622E+03 E0= -.85962617E+03  d E =-.120052E-03  mag=    -0.0000
 curvature: -11.05 expect dE=-0.500E-03 dE for cont linesearch -0.161E-04
 ZBRENT: increasing intervall
 opt :   5.4816  next Energy=  -859.626240 (dE=-0.145E-03)
 bond charge predicted
       N       E                     dE             d eps       ncg     rms          rms(c)
DAV:   1    -0.851762181836E+03    0.14401E-04   -0.26942E-02  9888   0.345E-01    0.343E-02
DAV:   2    -0.851762210903E+03   -0.29067E-04   -0.41131E-04 10592   0.414E-02    0.300E-02
DAV:   3    -0.851762205583E+03    0.53201E-05   -0.19173E-05 11424   0.112E-02    0.194E-02
DAV:   4    -0.851762209248E+03   -0.36650E-05   -0.19662E-05  9936   0.102E-02    0.619E-03
DAV:   5    -0.851762209093E+03    0.15539E-06   -0.77918E-06 10400   0.605E-03
  35 F= -.85962624E+03 E0= -.85962620E+03  d E =-.148796E-03  mag=    -0.0000
 curvature: -17.07 expect dE=-0.214E-02 dE for cont linesearch -0.144E-05
 trial: gam= 2.26701 g(F)=  0.125E-03 g(S)=  0.000E+00 ort =-0.577E-05 (trialstep = 0.435E+00)
 search vector abs. value=  0.213E-02
 bond charge predicted
       N       E                     dE             d eps       ncg     rms          rms(c)
DAV:   1    -0.851762246226E+03   -0.36978E-04   -0.37481E-03  9856   0.126E-01    0.127E-02
DAV:   2    -0.851762250471E+03   -0.42449E-05   -0.55706E-05 10656   0.150E-02    0.111E-02
DAV:   3    -0.851762250196E+03    0.27566E-06   -0.24329E-06  8224   0.398E-03
  36 F= -.85962629E+03 E0= -.85962624E+03  d E =-.472104E-04  mag=    -0.0000
 ZBRENT: can't locate minimum, use default step
 trial-energy change:   -0.000047  1 .order   -0.000047   -0.000049   -0.000045
 step:   1.7411(harm=  5.2106)  dis= 0.00418  next Energy=  -859.626537 (dE=-0.292E-03)
 bond charge predicted
       N       E                     dE             d eps       ncg     rms          rms(c)
DAV:   1    -0.851762308979E+03   -0.58508E-04   -0.33445E-02  9920   0.377E-01    0.396E-02
DAV:   2    -0.851762342258E+03   -0.33279E-04   -0.46775E-04 10624   0.436E-02    0.344E-02
DAV:   3    -0.851762338666E+03    0.35926E-05   -0.24885E-05 10992   0.125E-02    0.198E-02
DAV:   4    -0.851762344715E+03   -0.60497E-05   -0.19549E-05 10080   0.950E-03    0.621E-03
DAV:   5    -0.851762344187E+03    0.52846E-06   -0.76537E-06 10368   0.590E-03
  37 F= -.85962640E+03 E0= -.85962636E+03  d E =-.159460E-03  mag=    -0.0000
 curvature: -23.33 expect dE=-0.202E-02 dE for cont linesearch -0.437E-04
 ZBRENT: increasing intervall
 opt :   4.3528  next Energy=  -859.626465 (dE=-0.221E-03)
 bond charge predicted
       N       E                     dE             d eps       ncg     rms          rms(c)
DAV:   1    -0.851762250755E+03    0.93960E-04   -0.13481E-01  9920   0.757E-01    0.772E-02
DAV:   2    -0.851762387051E+03   -0.13630E-03   -0.19466E-03 10480   0.891E-02    0.673E-02
DAV:   3    -0.851762366200E+03    0.20850E-04   -0.10183E-04 11128   0.253E-02    0.400E-02
DAV:   4    -0.851762387554E+03   -0.21353E-04   -0.81971E-05 10064   0.196E-02    0.131E-02
DAV:   5    -0.851762386201E+03    0.13530E-05   -0.32577E-05 10304   0.121E-02    0.574E-03
DAV:   6    -0.851762387203E+03   -0.10020E-05   -0.29675E-06  7632   0.386E-03    0.326E-03
DAV:   7    -0.851762387033E+03    0.17032E-06   -0.89325E-07  6656   0.218E-03
  38 F= -.85962648E+03 E0= -.85962643E+03  d E =-.238394E-03  mag=    -0.0000
 curvature: -32.69 expect dE=-0.635E-02 dE for cont linesearch -0.129E-05
 trial: gam= 1.35672 g(F)=  0.194E-03 g(S)=  0.000E+00 ort =-0.916E-05 (trialstep = 0.635E+00)
 search vector abs. value=  0.409E-02
 bond charge predicted
       N       E                     dE             d eps       ncg     rms          rms(c)
DAV:   1    -0.851762469770E+03   -0.82567E-04   -0.14900E-02  9952   0.250E-01    0.261E-02
DAV:   2    -0.851762484489E+03   -0.14720E-04   -0.21587E-04 10448   0.297E-02    0.227E-02
DAV:   3    -0.851762481962E+03    0.25271E-05   -0.12080E-05 10568   0.866E-03    0.132E-02
DAV:   4    -0.851762484420E+03   -0.24574E-05   -0.93653E-06 10176   0.656E-03    0.435E-03
DAV:   5    -0.851762484246E+03    0.17404E-06   -0.41195E-06  9080   0.432E-03
  39 F= -.85962659E+03 E0= -.85962654E+03  d E =-.107844E-03  mag=    -0.0000
 ZBRENT: can't locate minimum, use default step
 trial-energy change:   -0.000108  1 .order   -0.000106   -0.000115   -0.000097
 step:   2.5388(harm=  3.9999)  dis= 0.00842  next Energy=  -859.626846 (dE=-0.363E-03)
 bond charge predicted
       N       E                     dE             d eps       ncg     rms          rms(c)
DAV:   1    -0.851762538535E+03   -0.54116E-04   -0.13394E-01  9920   0.750E-01    0.779E-02
DAV:   2    -0.851762672042E+03   -0.13351E-03   -0.19288E-03 10416   0.887E-02    0.678E-02
DAV:   3    -0.851762650382E+03    0.21660E-04   -0.10521E-04 10896   0.256E-02    0.395E-02
DAV:   4    -0.851762671876E+03   -0.21494E-04   -0.82462E-05 10080   0.196E-02    0.127E-02
DAV:   5    -0.851762670178E+03    0.16984E-05   -0.37265E-05 10408   0.129E-02    0.529E-03
DAV:   6    -0.851762671179E+03   -0.10007E-05   -0.29545E-06  7520   0.395E-03    0.322E-03
DAV:   7    -0.851762670985E+03    0.19311E-06   -0.71080E-07  6728   0.208E-03
  40 F= -.85962681E+03 E0= -.85962676E+03  d E =-.326367E-03  mag=    -0.0000
 curvature: -36.51 expect dE=-0.454E-02 dE for cont linesearch -0.429E-04
 ZBRENT: increasing intervall
 opt :   6.3471  next Energy=  -859.626755 (dE=-0.272E-03)
 bond charge predicted
       N       E                     dE             d eps       ncg     rms          rms(c)
DAV:   1    -0.851762055023E+03    0.61616E-03   -0.53613E-01  9920   0.150E+00    0.156E-01
DAV:   2    -0.851762581837E+03   -0.52681E-03   -0.77231E-03 10424   0.178E-01    0.136E-01
DAV:   3    -0.851762488107E+03    0.93730E-04   -0.42916E-04 10840   0.516E-02    0.789E-02
DAV:   4    -0.851762572831E+03   -0.84723E-04   -0.33371E-04 10176   0.392E-02    0.255E-02
DAV:   5    -0.851762566182E+03    0.66487E-05   -0.15025E-04 10448   0.258E-02    0.105E-02
DAV:   6    -0.851762570230E+03   -0.40485E-05   -0.12157E-05 10176   0.792E-03    0.632E-03
DAV:   7    -0.851762569434E+03    0.79612E-06   -0.29548E-06  8752   0.401E-03
  41 F= -.85962677E+03 E0= -.85962672E+03  d E =-.287661E-03  mag=    -0.0000
 curvature:  46.31 expect dE= 0.286E-01 dE for cont linesearch  0.110E-03
 ZBRENT: bracketing found
 ZBRENT: interpolating
 opt :   4.1098  next Energy=  -859.626863 (dE=-0.381E-03)
 bond charge predicted
       N       E                     dE             d eps       ncg     rms          rms(c)
DAV:   1    -0.851762531749E+03    0.38481E-04   -0.18490E-01  9920   0.881E-01    0.919E-02
DAV:   2    -0.851762712343E+03   -0.18059E-03   -0.26496E-03 10384   0.104E-01    0.802E-02
DAV:   3    -0.851762679001E+03    0.33342E-04   -0.14701E-04 10912   0.302E-02    0.466E-02
DAV:   4    -0.851762706723E+03   -0.27723E-04   -0.11391E-04 10096   0.230E-02    0.149E-02
DAV:   5    -0.851762704429E+03    0.22945E-05   -0.49993E-05 10272   0.150E-02    0.622E-03
DAV:   6    -0.851762705790E+03   -0.13610E-05   -0.41358E-06  8464   0.460E-03    0.375E-03
DAV:   7    -0.851762705521E+03    0.26911E-06   -0.95770E-07  6936   0.239E-03
  42 F= -.85962687E+03 E0= -.85962682E+03  d E =-.386977E-03  mag=     0.0000
 curvature: -22.84 expect dE=-0.547E-02 dE for cont linesearch -0.358E-06
 trial: gam= 1.18205 g(F)=  0.239E-03 g(S)=  0.000E+00 ort = 0.800E-05 (trialstep = 0.911E+00)
 search vector abs. value=  0.597E-02
 bond charge predicted
       N       E                     dE             d eps       ncg     rms          rms(c)
DAV:   1    -0.851762825686E+03   -0.11990E-03   -0.44206E-02  9920   0.431E-01    0.449E-02
DAV:   2    -0.851762868997E+03   -0.43311E-04   -0.63179E-04 10416   0.510E-02    0.391E-02
DAV:   3    -0.851762861719E+03    0.72787E-05   -0.34641E-05 10952   0.146E-02    0.228E-02
DAV:   4    -0.851762868466E+03   -0.67472E-05   -0.26217E-05 10112   0.110E-02    0.740E-03
DAV:   5    -0.851762868021E+03    0.44442E-06   -0.11014E-05 10192   0.697E-03    0.310E-03
DAV:   6    -0.851762868321E+03   -0.30020E-06   -0.87280E-07  6416   0.215E-03
  43 F= -.85962706E+03 E0= -.85962701E+03  d E =-.192630E-03  mag=    -0.0000
 trial-energy change:   -0.000193  1 .order   -0.000192   -0.000226   -0.000158
 step:   3.0285(harm=  3.0285)  dis= 0.01211  next Energy=  -859.627246 (dE=-0.377E-03)
 bond charge predicted
       N       E                     dE             d eps       ncg     rms          rms(c)
DAV:   1    -0.851762775786E+03    0.92235E-04   -0.23963E-01  9920   0.101E+00    0.104E-01
DAV:   2    -0.851763012945E+03   -0.23716E-03   -0.34488E-03 10432   0.119E-01    0.908E-02
DAV:   3    -0.851762975869E+03    0.37076E-04   -0.18920E-04 10912   0.342E-02    0.532E-02
DAV:   4    -0.851763014758E+03   -0.38890E-04   -0.14386E-04 10144   0.258E-02    0.173E-02
DAV:   5    -0.851763012358E+03    0.24009E-05   -0.61845E-05 10368   0.164E-02    0.708E-03
DAV:   6    -0.851763014042E+03   -0.16844E-05   -0.50651E-06  9536   0.502E-03    0.415E-03
DAV:   7    -0.851763013755E+03    0.28691E-06   -0.10894E-06  6928   0.252E-03
  44 F= -.85962728E+03 E0= -.85962723E+03  d E =-.406881E-03  mag=    -0.0000
 curvature: -36.33 expect dE=-0.493E-02 dE for cont linesearch -0.230E-05
 trial: gam= 0.55629 g(F)=  0.136E-03 g(S)=  0.000E+00 ort = 0.194E-04 (trialstep = 0.133E+01)
 search vector abs. value=  0.200E-02
 bond charge predicted
       N       E                     dE             d eps       ncg     rms          rms(c)
DAV:   1    -0.851763116291E+03   -0.10225E-03   -0.33078E-02  9952   0.379E-01    0.391E-02
DAV:   2    -0.851763151791E+03   -0.35500E-04   -0.50919E-04 10480   0.465E-02    0.340E-02
DAV:   3    -0.851763145312E+03    0.64788E-05   -0.25081E-05 11312   0.128E-02    0.216E-02
DAV:   4    -0.851763150252E+03   -0.49404E-05   -0.23880E-05 10048   0.112E-02    0.702E-03
DAV:   5    -0.851763150119E+03    0.13386E-06   -0.95515E-06 10336   0.664E-03
  45 F= -.85962744E+03 E0= -.85962739E+03  d E =-.160075E-03  mag=    -0.0000
 trial-energy change:   -0.000160  1 .order   -0.000155   -0.000196   -0.000115
 step:   2.4732(harm=  3.2315)  dis= 0.00566  next Energy=  -859.627489 (dE=-0.212E-03)
 bond charge predicted
       N       E                     dE             d eps       ncg     rms          rms(c)
DAV:   1    -0.851763177574E+03   -0.27322E-04   -0.24105E-02  9872   0.323E-01    0.331E-02
DAV:   2    -0.851763205395E+03   -0.27821E-04   -0.37673E-04 10592   0.399E-02    0.287E-02
DAV:   3    -0.851763201772E+03    0.36232E-05   -0.17336E-05 11472   0.106E-02    0.187E-02
DAV:   4    -0.851763205832E+03   -0.40601E-05   -0.16805E-05  9952   0.965E-03    0.591E-03
DAV:   5    -0.851763205720E+03    0.11195E-06   -0.72180E-06 10432   0.573E-03
  46 F= -.85962751E+03 E0= -.85962746E+03  d E =-.235725E-03  mag=    -0.0000
 curvature: -18.56 expect dE=-0.140E-02 dE for cont linesearch -0.127E-04
 ZBRENT: increasing intervall
 opt :   4.7514  next Energy=  -859.627485 (dE=-0.209E-03)
 bond charge predicted
       N       E                     dE             d eps       ncg     rms          rms(c)
DAV:   1    -0.851763044969E+03    0.16086E-03   -0.96395E-02  9920   0.646E-01    0.664E-02
DAV:   2    -0.851763150636E+03   -0.10567E-03   -0.14800E-03 10480   0.793E-02    0.577E-02
DAV:   3    -0.851763133461E+03    0.17175E-04   -0.70228E-05 11360   0.214E-02    0.370E-02
DAV:   4    -0.851763148317E+03   -0.14857E-04   -0.67855E-05  9920   0.191E-02    0.118E-02
DAV:   5    -0.851763147835E+03    0.48275E-06   -0.28068E-05 10448   0.113E-02    0.570E-03
DAV:   6    -0.851763148557E+03   -0.72295E-06   -0.26341E-06  7392   0.348E-03
  47 F= -.85962749E+03 E0= -.85962744E+03  d E =-.218232E-03  mag=    -0.0000
 curvature:  39.67 expect dE= 0.124E-01 dE for cont linesearch  0.788E-04
 ZBRENT: bracketing found
 ZBRENT: interpolating
 opt :   3.3165  next Energy=  -859.627528 (dE=-0.251E-03)
 bond charge predicted
       N       E                     dE             d eps       ncg     rms          rms(c)
DAV:   1    -0.851763175174E+03   -0.27340E-04   -0.38057E-02  9936   0.406E-01    0.419E-02
DAV:   2    -0.851763214651E+03   -0.39477E-04   -0.57645E-04 10480   0.496E-02    0.366E-02
DAV:   3    -0.851763206126E+03    0.85249E-05   -0.28881E-05 11312   0.137E-02    0.232E-02
DAV:   4    -0.851763210681E+03   -0.45547E-05   -0.26876E-05  9984   0.119E-02    0.742E-03
DAV:   5    -0.851763210505E+03    0.17531E-06   -0.10334E-05 10208   0.691E-03    0.357E-03
DAV:   6    -0.851763210773E+03   -0.26789E-06   -0.98135E-07  6112   0.216E-03
  48 F= -.85962753E+03 E0= -.85962748E+03  d E =-.255518E-03  mag=    -0.0000
 curvature:  -7.88 expect dE=-0.101E-02 dE for cont linesearch -0.281E-06
 trial: gam= 1.04734 g(F)=  0.128E-03 g(S)=  0.000E+00 ort = 0.845E-05 (trialstep = 0.148E+01)
 search vector abs. value=  0.234E-02
 bond charge predicted
       N       E                     dE             d eps       ncg     rms          rms(c)
DAV:   1    -0.851763302650E+03   -0.92145E-04   -0.47006E-02  9920   0.449E-01    0.458E-02
DAV:   2    -0.851763350401E+03   -0.47750E-04   -0.68833E-04 10512   0.538E-02    0.399E-02
DAV:   3    -0.851763342134E+03    0.82666E-05   -0.34273E-05 11112   0.148E-02    0.243E-02
DAV:   4    -0.851763349252E+03   -0.71179E-05   -0.30023E-05 10064   0.122E-02    0.762E-03
DAV:   5    -0.851763348753E+03    0.49874E-06   -0.12272E-05 10288   0.735E-03    0.355E-03
DAV:   6    -0.851763349118E+03   -0.36471E-06   -0.98598E-07  6240   0.223E-03
  49 F= -.85962769E+03 E0= -.85962764E+03  d E =-.161083E-03  mag=    -0.0000
 trial-energy change:   -0.000161  1 .order   -0.000161   -0.000203   -0.000118
 step:   3.5519(harm=  3.5519)  dis= 0.00880  next Energy=  -859.627775 (dE=-0.243E-03)
 bond charge predicted
       N       E                     dE             d eps       ncg     rms          rms(c)
DAV:   1    -0.851763321615E+03    0.27138E-04   -0.92609E-02  9920   0.631E-01    0.644E-02
DAV:   2    -0.851763417483E+03   -0.95868E-04   -0.13685E-03 10560   0.758E-02    0.559E-02
DAV:   3    -0.851763402990E+03    0.14494E-04   -0.67589E-05 11152   0.209E-02    0.341E-02
DAV:   4    -0.851763418408E+03   -0.15418E-04   -0.59787E-05 10080   0.172E-02    0.108E-02
DAV:   5    -0.851763417416E+03    0.99145E-06   -0.24882E-05 10352   0.105E-02    0.498E-03
DAV:   6    -0.851763418153E+03   -0.73654E-06   -0.20404E-06  6752   0.318E-03
  50 F= -.85962779E+03 E0= -.85962774E+03  d E =-.261508E-03  mag=    -0.0000
 curvature: -30.37 expect dE=-0.403E-02 dE for cont linesearch -0.808E-06
 trial: gam= 0.90877 g(F)=  0.133E-03 g(S)=  0.000E+00 ort = 0.790E-05 (trialstep = 0.189E+01)
 search vector abs. value=  0.208E-02
 bond charge predicted
       N       E                     dE             d eps       ncg     rms          rms(c)
DAV:   1    -0.851763522753E+03   -0.10534E-03   -0.70874E-02  9920   0.554E-01    0.563E-02
DAV:   2    -0.851763599133E+03   -0.76380E-04   -0.10831E-03 10560   0.679E-02    0.490E-02
DAV:   3    -0.851763586942E+03    0.12192E-04   -0.50426E-05 11296   0.181E-02    0.314E-02
DAV:   4    -0.851763598244E+03   -0.11302E-04   -0.50355E-05  9952   0.163E-02    0.994E-03
DAV:   5    -0.851763597746E+03    0.49794E-06   -0.21526E-05 10304   0.101E-02    0.473E-03
DAV:   6    -0.851763598355E+03   -0.60865E-06   -0.19046E-06  6624   0.312E-03
  51 F= -.85962800E+03 E0= -.85962795E+03  d E =-.206763E-03  mag=    -0.0000
 trial-energy change:   -0.000207  1 .order   -0.000199   -0.000265   -0.000133
 step:   3.0896(harm=  3.7951)  dis= 0.00710  next Energy=  -859.628044 (dE=-0.251E-03)
 bond charge predicted
       N       E                     dE             d eps       ncg     rms          rms(c)
DAV:   1    -0.851763613998E+03   -0.16252E-04   -0.28280E-02  9944   0.350E-01    0.356E-02
DAV:   2    -0.851763644884E+03   -0.30886E-04   -0.43276E-04 10608   0.429E-02    0.308E-02
DAV:   3    -0.851763640333E+03    0.45514E-05   -0.19971E-05 11328   0.114E-02    0.198E-02
DAV:   4    -0.851763645049E+03   -0.47161E-05   -0.20041E-05 10000   0.103E-02    0.635E-03
DAV:   5    -0.851763644828E+03    0.22069E-06   -0.86748E-06 10336   0.643E-03
  52 F= -.85962806E+03 E0= -.85962801E+03  d E =-.269804E-03  mag=    -0.0000
 curvature: -24.37 expect dE=-0.217E-02 dE for cont linesearch -0.808E-05
 ZBRENT: increasing intervall
 opt :   5.4811  next Energy=  -859.628021 (dE=-0.228E-03)
 bond charge predicted
       N       E                     dE             d eps       ncg     rms          rms(c)
DAV:   1    -0.851763459083E+03    0.18597E-03   -0.11269E-01  9920   0.699E-01    0.708E-02
DAV:   2    -0.851763581242E+03   -0.12216E-03   -0.17138E-03 10576   0.854E-02    0.615E-02
DAV:   3    -0.851763562950E+03    0.18292E-04   -0.78520E-05 11344   0.227E-02    0.395E-02
DAV:   4    -0.851763581068E+03   -0.18118E-04   -0.78842E-05  9968   0.204E-02    0.125E-02
DAV:   5    -0.851763580192E+03    0.87640E-06   -0.33911E-05 10304   0.127E-02    0.594E-03
DAV:   6    -0.851763581153E+03   -0.96108E-06   -0.31954E-06  8016   0.395E-03
  53 F= -.85962803E+03 E0= -.85962798E+03  d E =-.238688E-03  mag=    -0.0000
 curvature: 126.41 expect dE= 0.406E-01 dE for cont linesearch  0.240E-03
 ZBRENT: bracketing found
 ZBRENT: interpolating
 opt :   3.7944  next Energy=  -859.628072 (dE=-0.279E-03)
 bond charge predicted
       N       E                     dE             d eps       ncg     rms          rms(c)
DAV:   1    -0.851763594181E+03   -0.13990E-04   -0.55861E-02  9920   0.492E-01    0.501E-02
DAV:   2    -0.851763651774E+03   -0.57593E-04   -0.84084E-04 10512   0.599E-02    0.437E-02
DAV:   3    -0.851763640483E+03    0.11291E-04   -0.40107E-05 11296   0.162E-02    0.278E-02
DAV:   4    -0.851763647969E+03   -0.74860E-05   -0.39462E-05  9920   0.143E-02    0.877E-03
DAV:   5    -0.851763647582E+03    0.38742E-06   -0.16184E-05 10208   0.876E-03    0.415E-03
DAV:   6    -0.851763648046E+03   -0.46384E-06   -0.14710E-06  6288   0.274E-03
  54 F= -.85962808E+03 E0= -.85962803E+03  d E =-.282651E-03  mag=    -0.0000
 curvature:  -4.88 expect dE=-0.641E-03 dE for cont linesearch -0.194E-06
 trial: gam= 1.07664 g(F)=  0.131E-03 g(S)=  0.000E+00 ort = 0.910E-05 (trialstep = 0.185E+01)
 search vector abs. value=  0.257E-02
 bond charge predicted
       N       E                     dE             d eps       ncg     rms          rms(c)
DAV:   1    -0.851763718821E+03   -0.71240E-04   -0.84057E-02  9920   0.605E-01    0.609E-02
DAV:   2    -0.851763807552E+03   -0.88731E-04   -0.12730E-03 10512   0.737E-02    0.530E-02
DAV:   3    -0.851763791897E+03    0.15655E-04   -0.58207E-05 11296   0.192E-02    0.338E-02
DAV:   4    -0.851763803303E+03   -0.11405E-04   -0.56182E-05  9952   0.172E-02    0.103E-02
DAV:   5    -0.851763802832E+03    0.47081E-06   -0.23796E-05 10272   0.102E-02    0.492E-03
DAV:   6    -0.851763803486E+03   -0.65417E-06   -0.18859E-06  6608   0.306E-03
  55 F= -.85962825E+03 E0= -.85962820E+03  d E =-.176278E-03  mag=    -0.0000
 trial-energy change:   -0.000176  1 .order   -0.000175   -0.000261   -0.000089
 step:   2.8116(harm=  2.8116)  dis= 0.00710  next Energy=  -859.628275 (dE=-0.198E-03)
 bond charge predicted
       N       E                     dE             d eps       ncg     rms          rms(c)
DAV:   1    -0.851763798101E+03    0.47305E-05   -0.23122E-02  9952   0.317E-01    0.319E-02
DAV:   2    -0.851763823519E+03   -0.25418E-04   -0.35532E-04 10496   0.389E-02    0.277E-02
DAV:   3    -0.851763819955E+03    0.35640E-05   -0.15953E-05 11344   0.101E-02    0.178E-02
DAV:   4    -0.851763823761E+03   -0.38051E-05   -0.15647E-05 10032   0.914E-03    0.551E-03
DAV:   5    -0.851763823620E+03    0.14068E-06   -0.68975E-06 10288   0.550E-03
  56 F= -.85962828E+03 E0= -.85962823E+03  d E =-.207202E-03  mag=    -0.0000
 curvature: -25.55 expect dE=-0.274E-02 dE for cont linesearch -0.354E-06
 trial: gam= 0.74428 g(F)=  0.107E-03 g(S)=  0.000E+00 ort = 0.596E-05 (trialstep = 0.204E+01)
 search vector abs. value=  0.154E-02
 bond charge predicted
       N       E                     dE             d eps       ncg     rms          rms(c)
DAV:   1    -0.851763897497E+03   -0.73737E-04   -0.63946E-02  9920   0.533E-01    0.524E-02
DAV:   2    -0.851763969948E+03   -0.72451E-04   -0.99533E-04 10448   0.657E-02    0.454E-02
DAV:   3    -0.851763960348E+03    0.96004E-05   -0.41375E-05 11400   0.163E-02    0.300E-02
DAV:   4    -0.851763969842E+03   -0.94941E-05   -0.41490E-05  9968   0.153E-02    0.910E-03
DAV:   5    -0.851763969877E+03   -0.35223E-07   -0.18323E-05 10336   0.881E-03    0.435E-03
DAV:   6    -0.851763970291E+03   -0.41413E-06   -0.13807E-06  6512   0.258E-03
  57 F= -.85962846E+03 E0= -.85962841E+03  d E =-.176501E-03  mag=    -0.0000
 trial-energy change:   -0.000177  1 .order   -0.000169   -0.000228   -0.000110
 step:   3.2150(harm=  3.9302)  dis= 0.00613  next Energy=  -859.628493 (dE=-0.210E-03)
 bond charge predicted
       N       E                     dE             d eps       ncg     rms          rms(c)
DAV:   1    -0.851763977371E+03   -0.74943E-05   -0.21322E-02  9952   0.308E-01    0.304E-02
DAV:   2    -0.851764001578E+03   -0.24206E-04   -0.33354E-04 10432   0.380E-02    0.262E-02
DAV:   3    -0.851763998400E+03    0.31780E-05   -0.14103E-05 11456   0.953E-03    0.173E-02
DAV:   4    -0.851764001750E+03   -0.33499E-05   -0.14037E-05 10032   0.887E-03    0.538E-03
DAV:   5    -0.851764001761E+03   -0.11329E-07   -0.62399E-06 10016   0.517E-03
  58 F= -.85962851E+03 E0= -.85962846E+03  d E =-.225052E-03  mag=     0.0000
 curvature: -23.15 expect dE=-0.158E-02 dE for cont linesearch -0.676E-05
 ZBRENT: increasing intervall
 opt :   5.5662  next Energy=  -859.628481 (dE=-0.198E-03)
 bond charge predicted
       N       E                     dE             d eps       ncg     rms          rms(c)
DAV:   1    -0.851763853167E+03    0.14858E-03   -0.85027E-02  9920   0.615E-01    0.606E-02
DAV:   2    -0.851763948996E+03   -0.95828E-04   -0.13233E-03 10432   0.758E-02    0.524E-02
DAV:   3    -0.851763935977E+03    0.13019E-04   -0.55788E-05 11440   0.190E-02    0.346E-02
DAV:   4    -0.851763948540E+03   -0.12563E-04   -0.55267E-05  9984   0.177E-02    0.106E-02
DAV:   5    -0.851763948557E+03   -0.17164E-07   -0.24455E-05 10304   0.102E-02    0.503E-03
DAV:   6    -0.851763949121E+03   -0.56333E-06   -0.19154E-06  6848   0.302E-03
  59 F= -.85962849E+03 E0= -.85962844E+03  d E =-.206279E-03  mag=    -0.0000
 curvature:  91.90 expect dE= 0.209E-01 dE for cont linesearch  0.122E-03
 ZBRENT: bracketing found
 ZBRENT: interpolating
 opt :   3.9650  next Energy=  -859.628516 (dE=-0.233E-03)
 bond charge predicted
       N       E                     dE             d eps       ncg     rms          rms(c)
DAV:   1    -0.851763961840E+03   -0.13282E-04   -0.39278E-02  9936   0.418E-01    0.413E-02
DAV:   2    -0.851764004298E+03   -0.42458E-04   -0.60515E-04 10336   0.513E-02    0.359E-02
DAV:   3    -0.851763996832E+03    0.74658E-05   -0.26202E-05 11360   0.130E-02    0.236E-02
DAV:   4    -0.851764001541E+03   -0.47090E-05   -0.25654E-05  9936   0.120E-02    0.714E-03
DAV:   5    -0.851764001544E+03   -0.25757E-08   -0.11084E-05 10160   0.684E-03    0.339E-03
DAV:   6    -0.851764001792E+03   -0.24889E-06   -0.82015E-07  5952   0.202E-03
  60 F= -.85962852E+03 E0= -.85962847E+03  d E =-.235968E-03  mag=    -0.0000
 curvature:  -5.97 expect dE=-0.601E-03 dE for cont linesearch -0.182E-06
 trial: gam= 0.99998 g(F)=  0.101E-03 g(S)=  0.000E+00 ort = 0.685E-05 (trialstep = 0.226E+01)
 search vector abs. value=  0.165E-02
 bond charge predicted
       N       E                     dE             d eps       ncg     rms          rms(c)
DAV:   1    -0.851764025255E+03   -0.23712E-04   -0.87206E-02  9920   0.624E-01    0.614E-02
DAV:   2    -0.851764122254E+03   -0.96999E-04   -0.13797E-03 10352   0.774E-02    0.534E-02
DAV:   3    -0.851764105076E+03    0.17178E-04   -0.57918E-05 11440   0.190E-02    0.356E-02
DAV:   4    -0.851764114767E+03   -0.96913E-05   -0.61717E-05  9936   0.188E-02    0.105E-02
DAV:   5    -0.851764114863E+03   -0.95584E-07   -0.26175E-05 10288   0.104E-02    0.519E-03
DAV:   6    -0.851764115446E+03   -0.58335E-06   -0.18974E-06  6640   0.296E-03
  61 F= -.85962867E+03 E0= -.85962862E+03  d E =-.148669E-03  mag=    -0.0000
 trial-energy change:   -0.000149  1 .order   -0.000146   -0.000243   -0.000050
 step:   2.8415(harm=  2.8415)  dis= 0.00556  next Energy=  -859.628672 (dE=-0.153E-03)
 bond charge predicted
       N       E                     dE             d eps       ncg     rms          rms(c)
DAV:   1    -0.851764109139E+03    0.57231E-05   -0.59090E-03  9952   0.162E-01    0.161E-02
DAV:   2    -0.851764116090E+03   -0.69509E-05   -0.95359E-05 10448   0.203E-02    0.138E-02
DAV:   3    -0.851764115248E+03    0.84202E-06   -0.38119E-06  9376   0.498E-03
  62 F= -.85962868E+03 E0= -.85962863E+03  d E =-.157440E-03  mag=     0.0000
 curvature: -21.82 expect dE=-0.169E-02 dE for cont linesearch -0.511E-06
 trial: gam= 0.71214 g(F)=  0.775E-04 g(S)=  0.000E+00 ort = 0.622E-05 (trialstep = 0.237E+01)
 search vector abs. value=  0.924E-03
 bond charge predicted
       N       E                     dE             d eps       ncg     rms          rms(c)
DAV:   1    -0.851764185673E+03   -0.69583E-04   -0.55617E-02  9888   0.502E-01    0.498E-02
DAV:   2    -0.851764247778E+03   -0.62105E-04   -0.85947E-04 10304   0.613E-02    0.430E-02
DAV:   3    -0.851764240390E+03    0.73883E-05   -0.36162E-05 11472   0.150E-02    0.287E-02
DAV:   4    -0.851764248870E+03   -0.84802E-05   -0.35979E-05  9920   0.143E-02    0.866E-03
DAV:   5    -0.851764248956E+03   -0.86104E-07   -0.14942E-05 10288   0.790E-03    0.420E-03
DAV:   6    -0.851764249250E+03   -0.29407E-06   -0.13911E-06  6432   0.252E-03
  63 F= -.85962882E+03 E0= -.85962877E+03  d E =-.142233E-03  mag=    -0.0000
 trial-energy change:   -0.000142  1 .order   -0.000137   -0.000195   -0.000079
 step:   3.5349(harm=  4.0087)  dis= 0.00508  next Energy=  -859.628839 (dE=-0.162E-03)
 bond charge predicted
       N       E                     dE             d eps       ncg     rms          rms(c)
DAV:   1    -0.851764258253E+03   -0.92968E-05   -0.13455E-02  9936   0.247E-01    0.238E-02
DAV:   2    -0.851764273834E+03   -0.15582E-04   -0.21473E-04 10272   0.305E-02    0.205E-02
DAV:   3    -0.851764271860E+03    0.19747E-05   -0.85889E-06 11104   0.727E-03    0.139E-02
DAV:   4    -0.851764273740E+03   -0.18804E-05   -0.91471E-06  9552   0.723E-03    0.432E-03
DAV:   5    -0.851764273774E+03   -0.33979E-07   -0.36812E-06  8000   0.393E-03
  64 F= -.85962885E+03 E0= -.85962880E+03  d E =-.170646E-03  mag=    -0.0000
 curvature: -20.70 expect dE=-0.129E-02 dE for cont linesearch -0.223E-05
 trial: gam= 0.73212 g(F)=  0.623E-04 g(S)=  0.000E+00 ort = 0.997E-05 (trialstep = 0.261E+01)
 search vector abs. value=  0.572E-03
 bond charge predicted
       N       E                     dE             d eps       ncg     rms          rms(c)
DAV:   1    -0.851764321440E+03   -0.47700E-04   -0.45914E-02  9904   0.462E-01    0.438E-02
DAV:   2    -0.851764376947E+03   -0.55507E-04   -0.77514E-04 10232   0.586E-02    0.382E-02
DAV:   3    -0.851764367060E+03    0.98871E-05   -0.31648E-05 11744   0.138E-02    0.268E-02
DAV:   4    -0.851764370566E+03   -0.35056E-05   -0.38063E-05  9952   0.149E-02    0.819E-03
DAV:   5    -0.851764370760E+03   -0.19410E-06   -0.13985E-05 10336   0.776E-03    0.439E-03
DAV:   6    -0.851764371127E+03   -0.36701E-06   -0.10842E-06  6184   0.231E-03
  65 F= -.85962895E+03 E0= -.85962890E+03  d E =-.103568E-03  mag=    -0.0000
 trial-energy change:   -0.000104  1 .order   -0.000098   -0.000181   -0.000014
 step:   2.7883(harm=  2.8281)  dis= 0.00303  next Energy=  -859.628951 (dE=-0.104E-03)
 bond charge predicted
       N       E                     dE             d eps       ncg     rms          rms(c)
DAV:   1    -0.851764371272E+03   -0.51220E-06   -0.23096E-04  9936   0.328E-02    0.345E-03
DAV:   2    -0.851764371613E+03   -0.34095E-06   -0.40611E-06  9112   0.426E-03
  66 F= -.85962895E+03 E0= -.85962890E+03  d E =-.104467E-03  mag=    -0.0000
 curvature: -11.25 expect dE=-0.436E-03 dE for cont linesearch -0.142E-06
 trial: gam= 0.76782 g(F)=  0.388E-04 g(S)=  0.000E+00 ort = 0.269E-05 (trialstep = 0.264E+01)
 search vector abs. value=  0.380E-03
 bond charge predicted
       N       E                     dE             d eps       ncg     rms          rms(c)
DAV:   1    -0.851764403147E+03   -0.31875E-04   -0.31808E-02  9936   0.383E-01    0.369E-02
DAV:   2    -0.851764439529E+03   -0.36382E-04   -0.51426E-04 10240   0.479E-02    0.320E-02
DAV:   3    -0.851764433807E+03    0.57222E-05   -0.20435E-05 11656   0.113E-02    0.218E-02
DAV:   4    -0.851764437769E+03   -0.39622E-05   -0.22814E-05  9952   0.115E-02    0.644E-03
DAV:   5    -0.851764437816E+03   -0.46952E-07   -0.10276E-05 10320   0.661E-03    0.304E-03
DAV:   6    -0.851764438020E+03   -0.20348E-06   -0.62370E-07  6096   0.179E-03
  67 F= -.85962903E+03 E0= -.85962898E+03  d E =-.749729E-04  mag=    -0.0000
 trial-energy change:   -0.000075  1 .order   -0.000072   -0.000108   -0.000036
 step:   3.9734(harm=  3.9734)  dis= 0.00349  next Energy=  -859.629033 (dE=-0.811E-04)
 reached required accuracy - stopping structural energy minimisation
