<?xml version="1.0" encoding="ISO-8859-1"?>
<modeling>
 <generator>
  <i name="program" type="string">vasp </i>
  <i name="version" type="string">6.4.2  </i>
  <i name="subversion" type="string">20Jul23 (build Jan 24 2024 13:44:02) complex                          parallel </i>
  <i name="platform" type="string">LinuxNV </i>
  <i name="date" type="string">2025 11 25 </i>
  <i name="time" type="string">12:09:52 </i>
 </generator>
 <incar>
  <i type="int" name="ISTART">     0</i>
  <i type="string" name="ALGO">Normal</i>
  <i type="logical" name="ADDGRID"> T  </i>
  <i type="int" name="ISPIN">     2</i>
  <i type="int" name="IMIX">     4</i>
  <i name="AMIX">      0.20000000</i>
  <i name="BMIX">      0.00010000</i>
  <i name="AMIX_MAG">      0.80000000</i>
  <i name="BMIX_MAG">      0.00010000</i>
  <i type="int" name="ICHARG">     2</i>
  <i type="int" name="NELM">   200</i>
  <i type="int" name="IBRION">     2</i>
  <i name="EDIFF">      0.00000100</i>
  <i name="EDIFFG">     -0.01000000</i>
  <i type="int" name="NSW">   300</i>
  <i type="int" name="ISIF">     2</i>
  <i type="int" name="ISYM">     0</i>
  <i name="ENCUT">    520.00000000</i>
  <i name="POTIM">      0.10000000</i>
  <v name="MAGMOM">      0.00000000      0.00000000      0.00000000      0.00000000      0.00000000      0.00000000      0.00000000      0.00000000      0.00000000      0.00000000      0.00000000      0.00000000      0.00000000      0.00000000      0.00000000      0.00000000      0.00000000      0.00000000      0.00000000      0.00000000
      0.00000000      0.00000000      0.00000000      0.00000000      0.00000000      0.00000000      0.00000000      0.00000000      0.00000000      0.00000000      0.00000000      0.00000000      0.00000000      0.00000000      0.00000000      0.00000000      0.00000000      0.00000000      0.00000000      0.00000000
      0.00000000      0.00000000      0.00000000      0.00000000      0.00000000      0.00000000      0.00000000      0.00000000      0.00000000      0.00000000      0.00000000      0.00000000      0.00000000      0.00000000      0.00000000      0.00000000      0.00000000      0.00000000      0.00000000      0.00000000
      0.00000000      0.00000000      0.00000000      0.00000000      0.00000000      0.00000000      0.00000000      0.00000000      0.00000000      0.00000000      0.00000000      0.00000000      0.00000000      0.00000000      0.00000000      0.00000000      0.00000000      0.00000000      0.00000000      0.00000000
      0.00000000      0.00000000      0.00000000      0.00000000      0.00000000      0.00000000      0.00000000      0.00000000      0.00000000      0.00000000      0.00000000      0.00000000      0.00000000      0.00000000      0.00000000      0.00000000      0.00000000      0.00000000      0.00000000</v>
  <i type="logical" name="LREAL"> F  </i>
  <i type="int" name="ISMEAR">     0</i>
  <i name="SIGMA">      0.05000000</i>
  <i type="logical" name="LWAVE"> F  </i>
  <i type="logical" name="LCHARG"> F  </i>
  <i type="logical" name="LASPH"> T  </i>
  <i type="int" name="IVDW">    12</i>
 </incar>
 <primitive_cell>
  <structure name="primitive_cell" >
   <crystal>
    <varray name="basis" >
     <v>      17.27103806       0.00000000       0.00000000 </v>
     <v>      -8.63551903      14.95715771       0.00000000 </v>
     <v>       0.00000000       0.00000000      15.00000000 </v>
    </varray>
    <i name="volume">   3874.88459904 </i>
    <varray name="rec_basis" >
     <v>       0.05790040       0.03342881      -0.00000000 </v>
     <v>       0.00000000       0.06685762       0.00000000 </v>
     <v>       0.00000000      -0.00000000       0.06666667 </v>
    </varray>
   </crystal>
   <varray name="positions" >
    <v>       0.99994088       0.99994326       0.49879109 </v>
    <v>       0.99947460       0.14252828       0.49836914 </v>
    <v>       0.99925916       0.28539508       0.49726894 </v>
    <v>       0.99950212       0.42847731       0.49562123 </v>
    <v>       0.00011358       0.57156223       0.49568691 </v>
    <v>       0.00112755       0.71477371       0.49774138 </v>
    <v>       0.00103769       0.85787314       0.49921141 </v>
    <v>       0.14325392       0.00055472       0.49849460 </v>
    <v>       0.14282390       0.14321833       0.50079235 </v>
    <v>       0.14158454       0.28509620       0.50300125 </v>
    <v>       0.14150177       0.42827718       0.50102428 </v>
    <v>       0.14259568       0.57130721       0.49735672 </v>
    <v>       0.14321488       0.71441668       0.49607646 </v>
    <v>       0.14338996       0.85757010       0.49663929 </v>
    <v>       0.28575411       0.00003831       0.49753448 </v>
    <v>       0.28571938       0.14284937       0.50271255 </v>
    <v>       0.28589990       0.28666583       0.51226685 </v>
    <v>       0.28216397       0.42814656       0.51648488 </v>
    <v>       0.28528574       0.57037626       0.50655211 </v>
    <v>       0.28555733       0.71450440       0.49866013 </v>
    <v>       0.28570051       0.85744731       0.49624704 </v>
    <v>       0.42863370       0.00001509       0.49628964 </v>
    <v>       0.42847857       0.14229915       0.49852251 </v>
    <v>       0.42731729       0.28203561       0.50334781 </v>
    <v>       0.42669000       0.71592002       0.50020144 </v>
    <v>       0.42826630       0.85732258       0.49715320 </v>
    <v>       0.57128354       0.00036367       0.49675558 </v>
    <v>       0.57138704       0.14264138       0.49652331 </v>
    <v>       0.57224450       0.28595172       0.49826090 </v>
    <v>       0.57201710       0.85817346       0.49927798 </v>
    <v>       0.71418665       0.99998493       0.49932691 </v>
    <v>       0.71427755       0.14281964       0.49631254 </v>
    <v>       0.71429331       0.28564965       0.49702630 </v>
    <v>       0.71379028       0.42772568       0.50196265 </v>
    <v>       0.71839375       0.57315114       0.51741099 </v>
    <v>       0.72116874       0.71650768       0.52390513 </v>
    <v>       0.71321122       0.85717978       0.50714904 </v>
    <v>       0.85699567       0.99993118       0.50121657 </v>
    <v>       0.85673167       0.14264520       0.49740089 </v>
    <v>       0.85677992       0.28547025       0.49590334 </v>
    <v>       0.85717890       0.42852778       0.49731767 </v>
    <v>       0.85793487       0.57189105       0.50164284 </v>
    <v>       0.85986661       0.71541923       0.50632432 </v>
    <v>       0.85753498       0.85690968       0.50487916 </v>
    <v>       0.04752467       0.09531603       0.49875305 </v>
    <v>       0.04649503       0.23745936       0.49893483 </v>
    <v>       0.04644172       0.38056756       0.49725726 </v>
    <v>       0.04754983       0.52381696       0.49558397 </v>
    <v>       0.04806702       0.66688726       0.49604314 </v>
    <v>       0.04828977       0.80994638       0.49761511 </v>
    <v>       0.04804405       0.95278211       0.49839215 </v>
    <v>       0.19056618       0.09541414       0.50091271 </v>
    <v>       0.18996909       0.23836842       0.50454553 </v>
    <v>       0.18772501       0.37987332       0.50593219 </v>
    <v>       0.18970158       0.52344304       0.50120632 </v>
    <v>       0.19042209       0.66682757       0.49729372 </v>
    <v>       0.19077516       0.80985677       0.49614575 </v>
    <v>       0.19081626       0.95271121       0.49754714 </v>
    <v>       0.33336142       0.09537740       0.49941906 </v>
    <v>       0.33434007       0.23817050       0.50710482 </v>
    <v>       0.32636995       0.37873971       0.52392762 </v>
    <v>       0.32920785       0.52207981       0.51696330 </v>
    <v>       0.33376378       0.66751419       0.50186969 </v>
    <v>       0.33321786       0.80960587       0.49701644 </v>
    <v>       0.33325474       0.95246587       0.49641745 </v>
    <v>       0.47624732       0.09491648       0.49682219 </v>
    <v>       0.47551126       0.23713354       0.49936131 </v>
    <v>       0.47528720       0.80930124       0.49831950 </v>
    <v>       0.47611897       0.95258579       0.49646263 </v>
    <v>       0.61888503       0.09523427       0.49632596 </v>
    <v>       0.61924790       0.23793109       0.49719984 </v>
    <v>       0.62086563       0.37934325       0.50004643 </v>
    <v>       0.62024944       0.81330101       0.50314884 </v>
    <v>       0.61907744       0.95301317       0.49843540 </v>
    <v>       0.76180594       0.09530307       0.49731382 </v>
    <v>       0.76182316       0.23783573       0.49609534 </v>
    <v>       0.76199494       0.38076583       0.49875292 </v>
    <v>       0.76231063       0.52487481       0.50689219 </v>
    <v>       0.76538504       0.66710665       0.51661338 </v>
    <v>       0.76159025       0.80860682       0.51237226 </v>
    <v>       0.76182431       0.95251956       0.50285521 </v>
    <v>       0.90426767       0.09479787       0.49862138 </v>
    <v>       0.90417512       0.23778102       0.49634626 </v>
    <v>       0.90435247       0.38092233       0.49577438 </v>
    <v>       0.90503035       0.52405962       0.49752967 </v>
    <v>       0.90608080       0.66704447       0.50160366 </v>
    <v>       0.90594201       0.81019834       0.50341964 </v>
    <v>       0.90466153       0.95205199       0.50107275 </v>
    <v>       0.46382146       0.35409532       0.50357558 </v>
    <v>       0.40138991       0.55543778       0.52373437 </v>
    <v>       0.64619129       0.53973976       0.52422539 </v>
    <v>       0.58498351       0.41601084       0.49973928 </v>
    <v>       0.58377597       0.74123777       0.50322530 </v>
    <v>       0.46259281       0.67930147       0.50027114 </v>
    <v>       0.56677168       0.59274254       0.35568647 </v>
    <v>       0.48098012       0.50080516       0.35560066 </v>
    <v>       0.41551654       0.42901549       0.54280163 </v>
    <v>       0.63195662       0.66608398       0.54264421 </v>
    <v>       0.52413681       0.54651873       0.39533618 </v>
   </varray>
  </structure>
  <varray name="primitive_index" >
   <v type="int" >        1 </v>
   <v type="int" >        2 </v>
   <v type="int" >        3 </v>
   <v type="int" >        4 </v>
   <v type="int" >        5 </v>
   <v type="int" >        6 </v>
   <v type="int" >        7 </v>
   <v type="int" >        8 </v>
   <v type="int" >        9 </v>
   <v type="int" >       10 </v>
   <v type="int" >       11 </v>
   <v type="int" >       12 </v>
   <v type="int" >       13 </v>
   <v type="int" >       14 </v>
   <v type="int" >       15 </v>
   <v type="int" >       16 </v>
   <v type="int" >       17 </v>
   <v type="int" >       18 </v>
   <v type="int" >       19 </v>
   <v type="int" >       20 </v>
   <v type="int" >       21 </v>
   <v type="int" >       22 </v>
   <v type="int" >       23 </v>
   <v type="int" >       24 </v>
   <v type="int" >       25 </v>
   <v type="int" >       26 </v>
   <v type="int" >       27 </v>
   <v type="int" >       28 </v>
   <v type="int" >       29 </v>
   <v type="int" >       30 </v>
   <v type="int" >       31 </v>
   <v type="int" >       32 </v>
   <v type="int" >       33 </v>
   <v type="int" >       34 </v>
   <v type="int" >       35 </v>
   <v type="int" >       36 </v>
   <v type="int" >       37 </v>
   <v type="int" >       38 </v>
   <v type="int" >       39 </v>
   <v type="int" >       40 </v>
   <v type="int" >       41 </v>
   <v type="int" >       42 </v>
   <v type="int" >       43 </v>
   <v type="int" >       44 </v>
   <v type="int" >       45 </v>
   <v type="int" >       46 </v>
   <v type="int" >       47 </v>
   <v type="int" >       48 </v>
   <v type="int" >       49 </v>
   <v type="int" >       50 </v>
   <v type="int" >       51 </v>
   <v type="int" >       52 </v>
   <v type="int" >       53 </v>
   <v type="int" >       54 </v>
   <v type="int" >       55 </v>
   <v type="int" >       56 </v>
   <v type="int" >       57 </v>
   <v type="int" >       58 </v>
   <v type="int" >       59 </v>
   <v type="int" >       60 </v>
   <v type="int" >       61 </v>
   <v type="int" >       62 </v>
   <v type="int" >       63 </v>
   <v type="int" >       64 </v>
   <v type="int" >       65 </v>
   <v type="int" >       66 </v>
   <v type="int" >       67 </v>
   <v type="int" >       68 </v>
   <v type="int" >       69 </v>
   <v type="int" >       70 </v>
   <v type="int" >       71 </v>
   <v type="int" >       72 </v>
   <v type="int" >       73 </v>
   <v type="int" >       74 </v>
   <v type="int" >       75 </v>
   <v type="int" >       76 </v>
   <v type="int" >       77 </v>
   <v type="int" >       78 </v>
   <v type="int" >       79 </v>
   <v type="int" >       80 </v>
   <v type="int" >       81 </v>
   <v type="int" >       82 </v>
   <v type="int" >       83 </v>
   <v type="int" >       84 </v>
   <v type="int" >       85 </v>
   <v type="int" >       86 </v>
   <v type="int" >       87 </v>
   <v type="int" >       88 </v>
   <v type="int" >       89 </v>
   <v type="int" >       90 </v>
   <v type="int" >       91 </v>
   <v type="int" >       92 </v>
   <v type="int" >       93 </v>
   <v type="int" >       94 </v>
   <v type="int" >       95 </v>
   <v type="int" >       96 </v>
   <v type="int" >       97 </v>
   <v type="int" >       98 </v>
   <v type="int" >       99 </v>
  </varray>
 </primitive_cell>
 <kpoints>
  <generation param="Gamma">
   <v type="int" name="divisions">       4        4        1 </v>
   <v name="usershift">      0.00000000       0.00000000       0.00000000 </v>
   <v name="genvec1">      0.25000000       0.00000000       0.00000000 </v>
   <v name="genvec2">      0.00000000       0.25000000       0.00000000 </v>
   <v name="genvec3">      0.00000000       0.00000000       1.00000000 </v>
   <v name="shift">      0.00000000       0.00000000       0.00000000 </v>
  </generation>
  <varray name="kpointlist" >
   <v>       0.00000000       0.00000000       0.00000000 </v>
   <v>       0.25000000       0.00000000       0.00000000 </v>
   <v>       0.00000000       0.25000000       0.00000000 </v>
   <v>      -0.25000000       0.25000000       0.00000000 </v>
   <v>       0.50000000       0.00000000       0.00000000 </v>
   <v>       0.00000000       0.50000000       0.00000000 </v>
   <v>       0.50000000       0.50000000       0.00000000 </v>
   <v>       0.25000000       0.25000000       0.00000000 </v>
   <v>      -0.25000000       0.50000000       0.00000000 </v>
   <v>       0.50000000       0.25000000       0.00000000 </v>
  </varray>
  <varray name="weights" >
   <v>       0.06250000 </v>
   <v>       0.12500000 </v>
   <v>       0.12500000 </v>
   <v>       0.12500000 </v>
   <v>       0.06250000 </v>
   <v>       0.06250000 </v>
   <v>       0.06250000 </v>
   <v>       0.12500000 </v>
   <v>       0.12500000 </v>
   <v>       0.12500000 </v>
  </varray>
 </kpoints>
 <parameters>
  <separator name="general" >
   <i type="string" name="SYSTEM">unknown system</i>
   <i type="logical" name="LCOMPAT"> F  </i>
  </separator>
  <separator name="electronic" >
   <i type="string" name="PREC">normal</i>
   <i name="ENMAX">    520.00000000</i>
   <i name="ENAUG">    644.87300000</i>
   <i name="EDIFF">      0.00000100</i>
   <i type="int" name="IALGO">    38</i>
   <i type="int" name="IWAVPR">    11</i>
   <i type="int" name="NBANDS">   240</i>
   <i type="int" name="NBANDSLOW">    -1</i>
   <i type="int" name="NBANDSHIGH">    -1</i>
   <i name="NELECT">    380.00000000</i>
   <i type="int" name="TURBO">     0</i>
   <i type="int" name="IRESTART">     0</i>
   <i type="int" name="NREBOOT">     0</i>
   <i type="int" name="NMIN">     0</i>
   <i name="EREF">      0.00000000</i>
   <separator name="electronic smearing" >
    <i type="int" name="ISMEAR">     0</i>
    <i name="SIGMA">      0.05000000</i>
    <i name="KSPACING">      0.50000000</i>
    <i type="logical" name="KGAMMA"> T  </i>
    <i type="logical" name="KBLOWUP"> T  </i>
   </separator>
   <separator name="electronic projectors" >
    <i type="logical" name="LREAL"> F  </i>
    <v name="ROPT">      0.00000000      0.00000000      0.00000000      0.00000000</v>
    <i type="int" name="LMAXPAW">  -100</i>
    <i type="int" name="LMAXMIX">     2</i>
    <i type="logical" name="NLSPLINE"> F  </i>
   </separator>
   <separator name="electronic startup" >
    <i type="int" name="ISTART">     0</i>
    <i type="int" name="ICHARG">     2</i>
    <i type="int" name="INIWAV">     1</i>
   </separator>
   <separator name="electronic spin" >
    <i type="int" name="ISPIN">     2</i>
    <i type="logical" name="LNONCOLLINEAR"> F  </i>
    <v name="MAGMOM">      0.00000000      0.00000000      0.00000000      0.00000000      0.00000000      0.00000000      0.00000000      0.00000000      0.00000000      0.00000000      0.00000000      0.00000000      0.00000000      0.00000000      0.00000000      0.00000000      0.00000000      0.00000000      0.00000000      0.00000000
      0.00000000      0.00000000      0.00000000      0.00000000      0.00000000      0.00000000      0.00000000      0.00000000      0.00000000      0.00000000      0.00000000      0.00000000      0.00000000      0.00000000      0.00000000      0.00000000      0.00000000      0.00000000      0.00000000      0.00000000
      0.00000000      0.00000000      0.00000000      0.00000000      0.00000000      0.00000000      0.00000000      0.00000000      0.00000000      0.00000000      0.00000000      0.00000000      0.00000000      0.00000000      0.00000000      0.00000000      0.00000000      0.00000000      0.00000000      0.00000000
      0.00000000      0.00000000      0.00000000      0.00000000      0.00000000      0.00000000      0.00000000      0.00000000      0.00000000      0.00000000      0.00000000      0.00000000      0.00000000      0.00000000      0.00000000      0.00000000      0.00000000      0.00000000      0.00000000      0.00000000
      0.00000000      0.00000000      0.00000000      0.00000000      0.00000000      0.00000000      0.00000000      0.00000000      0.00000000      0.00000000      0.00000000      0.00000000      0.00000000      0.00000000      0.00000000      0.00000000      0.00000000      0.00000000      0.00000000</v>
    <i name="NUPDOWN">     -1.00000000</i>
    <i type="logical" name="LSORBIT"> F  </i>
    <v name="SAXIS">      0.00000000      0.00000000      1.00000000</v>
    <i type="logical" name="LSPIRAL"> F  </i>
    <v name="QSPIRAL">      0.00000000      0.00000000      0.00000000</v>
    <i type="logical" name="LZEROZ"> F  </i>
   </separator>
   <separator name="electronic exchange-correlation" >
    <i type="logical" name="LASPH"> T  </i>
    <i type="logical" name="LMETAGGA"> F  </i>
   </separator>
   <separator name="electronic convergence" >
    <i type="int" name="NELM">   200</i>
    <i type="int" name="NELMDL">    -5</i>
    <i type="int" name="NELMIN">     2</i>
    <i name="ENINI">    520.00000000</i>
    <separator name="electronic convergence detail" >
     <i type="logical" name="LDIAG"> T  </i>
     <i type="logical" name="LSUBROT"> F  </i>
     <i name="WEIMIN">      0.00100000</i>
     <i name="EBREAK">      0.00000000</i>
     <i name="DEPER">      0.30000000</i>
     <i type="int" name="NRMM">     4</i>
     <i name="TIME">      0.40000000</i>
    </separator>
   </separator>
   <separator name="electronic mixer" >
    <i name="AMIX">      0.20000000</i>
    <i name="BMIX">      0.00010000</i>
    <i name="AMIN">      0.10000000</i>
    <i name="AMIX_MAG">      0.80000000</i>
    <i name="BMIX_MAG">      0.00010000</i>
    <separator name="electronic mixer details" >
     <i type="int" name="IMIX">     4</i>
     <i type="logical" name="MIXFIRST"> F  </i>
     <i type="int" name="MAXMIX">   -45</i>
     <i name="WC">    100.00000000</i>
     <i type="int" name="INIMIX">     1</i>
     <i type="int" name="MIXPRE">     1</i>
     <i type="int" name="MREMOVE">     5</i>
    </separator>
   </separator>
   <separator name="electronic dipolcorrection" >
    <i type="logical" name="LDIPOL"> F  </i>
    <i type="logical" name="LMONO"> F  </i>
    <i type="int" name="IDIPOL">     0</i>
    <i name="EPSILON">      1.00000000</i>
    <v name="DIPOL">   -100.00000000   -100.00000000   -100.00000000</v>
    <i name="EFIELD">      0.00000000</i>
   </separator>
  </separator>
  <separator name="grids" >
   <i type="int" name="NGX">    96</i>
   <i type="int" name="NGY">    96</i>
   <i type="int" name="NGZ">    84</i>
   <i type="int" name="NGXF">   192</i>
   <i type="int" name="NGYF">   192</i>
   <i type="int" name="NGZF">   168</i>
   <i type="logical" name="ADDGRID"> T  </i>
  </separator>
  <separator name="ionic" >
   <i type="int" name="NSW">   300</i>
   <i type="int" name="IBRION">     2</i>
   <i type="int" name="MDALGO">     0</i>
   <i type="int" name="ISIF">     2</i>
   <i name="PSTRESS">      0.00000000</i>
   <i name="EDIFFG">     -0.01000000</i>
   <i type="int" name="NFREE">     1</i>
   <i name="POTIM">      0.10000000</i>
   <i name="SMASS">     -3.00000000</i>
   <i name="SCALEE">      1.00000000</i>
  </separator>
  <separator name="ionic md" >
   <i name="TEBEG">      0.00010000</i>
   <i name="TEEND">      0.00010000</i>
   <i type="int" name="NBLOCK">     1</i>
   <i type="int" name="KBLOCK">   300</i>
   <i type="int" name="NPACO">   256</i>
   <i name="APACO">     10.00000000</i>
  </separator>
  <separator name="symmetry" >
   <i type="int" name="ISYM">     0</i>
   <i name="SYMPREC">      0.00001000</i>
  </separator>
  <separator name="dos" >
   <i type="int" name="LORBIT">     0</i>
   <v name="RWIGS">     -1.00000000     -1.00000000     -1.00000000     -1.00000000</v>
   <i type="int" name="NEDOS">   301</i>
   <i name="EMIN">     10.00000000</i>
   <i name="EMAX">    -10.00000000</i>
   <i name="EFERMI">      0.00000000</i>
  </separator>
  <separator name="writing" >
   <i type="int" name="NWRITE">     2</i>
   <i type="logical" name="LWAVE"> F  </i>
   <i type="logical" name="LDOWNSAMPLE"> F  </i>
   <i type="logical" name="LCHARG"> F  </i>
   <i type="logical" name="LPARD"> F  </i>
   <i type="logical" name="LVTOT"> F  </i>
   <i type="logical" name="LVHAR"> F  </i>
   <i type="logical" name="LELF"> F  </i>
   <i type="logical" name="LOPTICS"> F  </i>
   <v name="STM">      0.00000000      0.00000000      0.00000000      0.00000000      0.00000000      0.00000000      0.00000000</v>
  </separator>
  <separator name="performance" >
   <i type="int" name="NPAR">     2</i>
   <i type="int" name="NSIM">     4</i>
   <i type="int" name="NBLK">    -1</i>
   <i type="logical" name="LPLANE"> T  </i>
   <i type="logical" name="LSCALAPACK"> T  </i>
   <i type="logical" name="LSCAAWARE"> F  </i>
   <i type="logical" name="LSCALU"> F  </i>
   <i type="logical" name="LASYNC"> F  </i>
   <i type="logical" name="LORBITALREAL"> F  </i>
  </separator>
  <separator name="miscellaneous" >
   <i type="int" name="IDIOT">     3</i>
   <i type="int" name="PHON_NSTRUCT">    -1</i>
   <i type="logical" name="LMUSIC"> F  </i>
   <v name="POMASS">     12.01100000      1.00000000     18.99800000     16.00000000</v>
   <v name="DARWINR">      0.00000000      0.00000000      0.00000000      0.00000000</v>
   <v name="DARWINV">      1.00000000      1.00000000      1.00000000      1.00000000</v>
   <i type="logical" name="LCORR"> T  </i>
  </separator>
  <i type="logical" name="GGA_COMPAT"> T  </i>
  <i type="logical" name="LBERRY"> F  </i>
  <i type="int" name="ICORELEVEL">     0</i>
  <i type="logical" name="LDAU"> F  </i>
  <i type="int" name="I_CONSTRAINED_M">     0</i>
  <separator name="electronic exchange-correlation" >
   <i type="string" name="GGA">--</i>
   <i type="int" name="VOSKOWN">     0</i>
   <i type="logical" name="LHFCALC"> F  </i>
   <i type="string" name="PRECFOCK"></i>
   <i type="logical" name="LSYMGRAD"> F  </i>
   <i type="logical" name="LHFONE"> F  </i>
   <i type="logical" name="LRHFCALC"> F  </i>
   <i type="logical" name="LTHOMAS"> F  </i>
   <i type="logical" name="LMODELHF"> F  </i>
   <i type="logical" name="LFOCKACE"> F  </i>
   <i name="ENCUT4O">     -1.00000000</i>
   <i type="int" name="EXXOEP">     0</i>
   <i type="int" name="FOURORBIT">     0</i>
   <i name="AEXX">      0.00000000</i>
   <i name="HFALPHA">      0.00000000</i>
   <i name="MCALPHA">      0.00000000</i>
   <i name="ALDAX">      1.00000000</i>
   <i name="AGGAX">      1.00000000</i>
   <i name="ALDAC">      1.00000000</i>
   <i name="AGGAC">      1.00000000</i>
   <i type="int" name="NKREDX">     1</i>
   <i type="int" name="NKREDY">     1</i>
   <i type="int" name="NKREDZ">     1</i>
   <i type="logical" name="SHIFTRED"> F  </i>
   <i type="logical" name="ODDONLY"> F  </i>
   <i type="logical" name="EVENONLY"> F  </i>
   <i type="int" name="LMAXFOCK">     0</i>
   <i type="int" name="NMAXFOCKAE">     0</i>
   <i type="logical" name="LFOCKAEDFT"> F  </i>
   <i name="HFSCREEN">      0.00000000</i>
   <i name="HFSCREENC">      0.00000000</i>
   <i type="int" name="NBANDSGWLOW">     0</i>
  </separator>
  <separator name="vdW DFT" >
   <i type="logical" name="LUSE_VDW"> F  </i>
   <i type="int" name="IVDW_NL">     1</i>
   <i type="logical" name="LSPIN_VDW"> F  </i>
   <i name="Zab_VDW">     -0.84910000</i>
   <i name="PARAM1">      0.12340000</i>
   <i name="PARAM2">      1.00000000</i>
   <i name="PARAM3">      0.00000000</i>
  </separator>
  <separator name="model GW" >
   <i type="int" name="MODEL_GW">     0</i>
   <i name="MODEL_EPS0">     23.48414909</i>
   <i name="MODEL_ALPHA">      1.00000000</i>
  </separator>
  <separator name="linear response parameters" >
   <i type="logical" name="LEPSILON"> F  </i>
   <i type="logical" name="LRPA"> F  </i>
   <i type="logical" name="LNABLA"> F  </i>
   <i type="logical" name="LVEL"> F  </i>
   <i name="CSHIFT">      0.10000000</i>
   <i name="OMEGAMAX">     -1.00000000</i>
   <i name="DEG_THRESHOLD">      0.00200000</i>
   <i name="RTIME">     -0.10000000</i>
   <i name="WPLASMAI">      0.00000000</i>
   <v name="DFIELD">      0.00000000      0.00000000      0.00000000</v>
   <v name="WPLASMA">      0.00000000      0.00000000      0.00000000      0.00000000      0.00000000      0.00000000      0.00000000      0.00000000      0.00000000</v>
  </separator>
  <separator name="orbital magnetization" >
   <i type="logical" name="NUCIND"> F  </i>
   <v name="MAGPOS">      0.00000000      0.00000000      0.00000000</v>
   <i type="logical" name="LNICSALL"> T  </i>
   <i type="logical" name="ORBITALMAG"> F  </i>
   <i type="logical" name="LMAGBLOCH"> F  </i>
   <i type="logical" name="LCHIMAG"> F  </i>
   <i type="logical" name="LGAUGE"> T  </i>
   <i type="int" name="MAGATOM">     0</i>
   <v name="MAGDIPOL">      0.00000000      0.00000000      0.00000000</v>
   <v name="AVECCONST">      0.00000000      0.00000000      0.00000000</v>
  </separator>
  <separator name="response functions" >
   <i type="logical" name="LALL_IN_ONE"> F  </i>
   <i type="int" name="IALL_IN_ONE">    -1</i>
   <i type="int" name="NBANDS_WAVE">    -1</i>
   <i type="logical" name="LFINITE_TEMPERATURE"> F  </i>
   <i type="logical" name="LADDER"> F  </i>
   <i type="logical" name="LRPAFORCE"> F  </i>
   <i type="logical" name="LFXC"> F  </i>
   <i type="logical" name="LHARTREE"> T  </i>
   <i type="int" name="IBSE">     0</i>
   <v type="int" name="KPOINT">    -1     0     0     0</v>
   <i type="logical" name="LTCTC"> F  </i>
   <i type="logical" name="LTCTE"> F  </i>
   <i type="logical" name="LTETE"> F  </i>
   <i type="logical" name="LTRIPLET"> F  </i>
   <i type="logical" name="LFXCEPS"> F  </i>
   <i type="logical" name="LFXHEG"> F  </i>
   <i type="int" name="NATURALO">     2</i>
   <i type="logical" name="LHOLEGF"> F  </i>
   <i type="logical" name="L2ORDER"> F  </i>
   <i type="logical" name="LDMP1"> F  </i>
   <i type="logical" name="LMP2LT"> F  </i>
   <i type="logical" name="LSMP2LT"> F  </i>
   <i type="logical" name="LGWLF"> F  </i>
   <i name="ENCUTGW">     -1.60000002</i>
   <i name="ENCUTGWSOFT">     -1.60000002</i>
   <i name="ENCUTLF">     -1.00000000</i>
   <i type="logical" name="LESF_SPLINES"> F  </i>
   <i type="int" name="LMAXMP2">    -1</i>
   <i name="SCISSOR">      0.00000000</i>
   <i type="int" name="NOMEGA">     0</i>
   <i type="int" name="NOMEGAR">     0</i>
   <i type="int" name="NBANDSGW">    -1</i>
   <i type="int" name="NBANDSO">    -1</i>
   <i type="int" name="NBANDSV">    -1</i>
   <i type="int" name="NELMGW">     1</i>
   <i type="int" name="NELMHF">     1</i>
   <i type="int" name="DIM">     3</i>
   <i type="int" name="IESPILON">     4</i>
   <i type="int" name="ANTIRES">     0</i>
   <i name="OMEGAMAX">    -30.00000000</i>
   <i name="OMEGAMIN">    -30.00000000</i>
   <i name="OMEGATL">   -200.00000000</i>
   <i type="int" name="OMEGAGRID">     0</i>
   <i name="CSHIFT">     -0.10000000</i>
   <i type="logical" name="LSELFENERGY"> F  </i>
   <i type="logical" name="LSPECTRAL"> F  </i>
   <i type="logical" name="LSPECTRALGW"> F  </i>
   <i type="logical" name="LSINGLES"> F  </i>
   <i type="logical" name="LFERMIGW"> F  </i>
   <i type="logical" name="ODDONLYGW"> F  </i>
   <i type="logical" name="EVENONLYGW"> F  </i>
   <i type="int" name="NKREDLFX">     1</i>
   <i type="int" name="NKREDLFY">     1</i>
   <i type="int" name="NKREDLFZ">     1</i>
   <i type="int" name="MAXMEM">  2800</i>
   <i type="int" name="TELESCOPE">     0</i>
   <i type="int" name="NTAUPAR">    -1</i>
   <i type="int" name="NOMEGAPAR">    -1</i>
   <i name="DAMP_NEWTON">      0.80000001</i>
   <i name="LAMBDA">      1.00000000</i>
  </separator>
  <separator name="External order field" >
   <i name="OFIELD_KAPPA">      0.00000000</i>
   <v name="OFIELD_K">      0.00000000      0.00000000      0.00000000</v>
   <i name="OFIELD_Q6_NEAR">      0.00000000</i>
   <i name="OFIELD_Q6_FAR">      0.00000000</i>
   <i name="OFIELD_A">      0.00000000</i>
  </separator>
  <separator name="optional k-points parameters" >
   <i type="int" name="KPOINTS_OPT_MODE">     1</i>
   <i type="logical" name="LKPOINTS_OPT"> F  </i>
  </separator>
 </parameters>
 <atominfo>
  <atoms>      99 </atoms>
  <types>       4 </types>
  <array name="atoms" >
   <dimension dim="1">ion</dimension>
   <field type="string">element</field>
   <field type="int">atomtype</field>
   <set>
    <rc><c>C </c><c>   1</c></rc>
    <rc><c>C </c><c>   1</c></rc>
    <rc><c>C </c><c>   1</c></rc>
    <rc><c>C </c><c>   1</c></rc>
    <rc><c>C </c><c>   1</c></rc>
    <rc><c>C </c><c>   1</c></rc>
    <rc><c>C </c><c>   1</c></rc>
    <rc><c>C </c><c>   1</c></rc>
    <rc><c>C </c><c>   1</c></rc>
    <rc><c>C </c><c>   1</c></rc>
    <rc><c>C </c><c>   1</c></rc>
    <rc><c>C </c><c>   1</c></rc>
    <rc><c>C </c><c>   1</c></rc>
    <rc><c>C </c><c>   1</c></rc>
    <rc><c>C </c><c>   1</c></rc>
    <rc><c>C </c><c>   1</c></rc>
    <rc><c>C </c><c>   1</c></rc>
    <rc><c>C </c><c>   1</c></rc>
    <rc><c>C </c><c>   1</c></rc>
    <rc><c>C </c><c>   1</c></rc>
    <rc><c>C </c><c>   1</c></rc>
    <rc><c>C </c><c>   1</c></rc>
    <rc><c>C </c><c>   1</c></rc>
    <rc><c>C </c><c>   1</c></rc>
    <rc><c>C </c><c>   1</c></rc>
    <rc><c>C </c><c>   1</c></rc>
    <rc><c>C </c><c>   1</c></rc>
    <rc><c>C </c><c>   1</c></rc>
    <rc><c>C </c><c>   1</c></rc>
    <rc><c>C </c><c>   1</c></rc>
    <rc><c>C </c><c>   1</c></rc>
    <rc><c>C </c><c>   1</c></rc>
    <rc><c>C </c><c>   1</c></rc>
    <rc><c>C </c><c>   1</c></rc>
    <rc><c>C </c><c>   1</c></rc>
    <rc><c>C </c><c>   1</c></rc>
    <rc><c>C </c><c>   1</c></rc>
    <rc><c>C </c><c>   1</c></rc>
    <rc><c>C </c><c>   1</c></rc>
    <rc><c>C </c><c>   1</c></rc>
    <rc><c>C </c><c>   1</c></rc>
    <rc><c>C </c><c>   1</c></rc>
    <rc><c>C </c><c>   1</c></rc>
    <rc><c>C </c><c>   1</c></rc>
    <rc><c>C </c><c>   1</c></rc>
    <rc><c>C </c><c>   1</c></rc>
    <rc><c>C </c><c>   1</c></rc>
    <rc><c>C </c><c>   1</c></rc>
    <rc><c>C </c><c>   1</c></rc>
    <rc><c>C </c><c>   1</c></rc>
    <rc><c>C </c><c>   1</c></rc>
    <rc><c>C </c><c>   1</c></rc>
    <rc><c>C </c><c>   1</c></rc>
    <rc><c>C </c><c>   1</c></rc>
    <rc><c>C </c><c>   1</c></rc>
    <rc><c>C </c><c>   1</c></rc>
    <rc><c>C </c><c>   1</c></rc>
    <rc><c>C </c><c>   1</c></rc>
    <rc><c>C </c><c>   1</c></rc>
    <rc><c>C </c><c>   1</c></rc>
    <rc><c>C </c><c>   1</c></rc>
    <rc><c>C </c><c>   1</c></rc>
    <rc><c>C </c><c>   1</c></rc>
    <rc><c>C </c><c>   1</c></rc>
    <rc><c>C </c><c>   1</c></rc>
    <rc><c>C </c><c>   1</c></rc>
    <rc><c>C </c><c>   1</c></rc>
    <rc><c>C </c><c>   1</c></rc>
    <rc><c>C </c><c>   1</c></rc>
    <rc><c>C </c><c>   1</c></rc>
    <rc><c>C </c><c>   1</c></rc>
    <rc><c>C </c><c>   1</c></rc>
    <rc><c>C </c><c>   1</c></rc>
    <rc><c>C </c><c>   1</c></rc>
    <rc><c>C </c><c>   1</c></rc>
    <rc><c>C </c><c>   1</c></rc>
    <rc><c>C </c><c>   1</c></rc>
    <rc><c>C </c><c>   1</c></rc>
    <rc><c>C </c><c>   1</c></rc>
    <rc><c>C </c><c>   1</c></rc>
    <rc><c>C </c><c>   1</c></rc>
    <rc><c>C </c><c>   1</c></rc>
    <rc><c>C </c><c>   1</c></rc>
    <rc><c>C </c><c>   1</c></rc>
    <rc><c>C </c><c>   1</c></rc>
    <rc><c>C </c><c>   1</c></rc>
    <rc><c>C </c><c>   1</c></rc>
    <rc><c>C </c><c>   1</c></rc>
    <rc><c>H </c><c>   2</c></rc>
    <rc><c>H </c><c>   2</c></rc>
    <rc><c>H </c><c>   2</c></rc>
    <rc><c>H </c><c>   2</c></rc>
    <rc><c>H </c><c>   2</c></rc>
    <rc><c>H </c><c>   2</c></rc>
    <rc><c>H </c><c>   2</c></rc>
    <rc><c>H </c><c>   2</c></rc>
    <rc><c>F </c><c>   3</c></rc>
    <rc><c>F </c><c>   3</c></rc>
    <rc><c>O </c><c>   4</c></rc>
   </set>
  </array>
  <array name="atomtypes" >
   <dimension dim="1">type</dimension>
   <field type="int">atomspertype</field>
   <field type="string">element</field>
   <field>mass</field>
   <field>valence</field>
   <field type="string">pseudopotential</field>
   <set>
    <rc><c>  88</c><c>C </c><c>     12.01100000</c><c>      4.00000000</c><c>  PAW_PBE C 08Apr2002                   </c></rc>
    <rc><c>   8</c><c>H </c><c>      1.00000000</c><c>      1.00000000</c><c>  PAW_PBE H 15Jun2001                   </c></rc>
    <rc><c>   2</c><c>F </c><c>     18.99800000</c><c>      7.00000000</c><c>  PAW_PBE F 08Apr2002                   </c></rc>
    <rc><c>   1</c><c>O </c><c>     16.00000000</c><c>      6.00000000</c><c>  PAW_PBE O 08Apr2002                   </c></rc>
   </set>
  </array>
 </atominfo>
 <structure name="initialpos" >
  <crystal>
   <varray name="basis" >
    <v>      17.27103806       0.00000000       0.00000000 </v>
    <v>      -8.63551903      14.95715771       0.00000000 </v>
    <v>       0.00000000       0.00000000      15.00000000 </v>
   </varray>
   <i name="volume">   3874.88459904 </i>
   <varray name="rec_basis" >
    <v>       0.05790040       0.03342881      -0.00000000 </v>
    <v>       0.00000000       0.06685762       0.00000000 </v>
    <v>       0.00000000      -0.00000000       0.06666667 </v>
   </varray>
  </crystal>
  <varray name="positions" >
   <v>       0.99994088       0.99994326       0.49879109 </v>
   <v>       0.99947460       0.14252828       0.49836914 </v>
   <v>       0.99925916       0.28539508       0.49726894 </v>
   <v>       0.99950212       0.42847731       0.49562123 </v>
   <v>       0.00011358       0.57156223       0.49568691 </v>
   <v>       0.00112755       0.71477371       0.49774138 </v>
   <v>       0.00103769       0.85787314       0.49921141 </v>
   <v>       0.14325392       0.00055472       0.49849460 </v>
   <v>       0.14282390       0.14321833       0.50079235 </v>
   <v>       0.14158454       0.28509620       0.50300125 </v>
   <v>       0.14150177       0.42827718       0.50102428 </v>
   <v>       0.14259568       0.57130721       0.49735672 </v>
   <v>       0.14321488       0.71441668       0.49607646 </v>
   <v>       0.14338996       0.85757010       0.49663929 </v>
   <v>       0.28575411       0.00003831       0.49753448 </v>
   <v>       0.28571938       0.14284937       0.50271255 </v>
   <v>       0.28589990       0.28666583       0.51226685 </v>
   <v>       0.28216397       0.42814656       0.51648488 </v>
   <v>       0.28528574       0.57037626       0.50655211 </v>
   <v>       0.28555733       0.71450440       0.49866013 </v>
   <v>       0.28570051       0.85744731       0.49624704 </v>
   <v>       0.42863370       0.00001509       0.49628964 </v>
   <v>       0.42847857       0.14229915       0.49852251 </v>
   <v>       0.42731729       0.28203561       0.50334781 </v>
   <v>       0.42669000       0.71592002       0.50020144 </v>
   <v>       0.42826630       0.85732258       0.49715320 </v>
   <v>       0.57128354       0.00036367       0.49675558 </v>
   <v>       0.57138704       0.14264138       0.49652331 </v>
   <v>       0.57224450       0.28595172       0.49826090 </v>
   <v>       0.57201710       0.85817346       0.49927798 </v>
   <v>       0.71418665       0.99998493       0.49932691 </v>
   <v>       0.71427755       0.14281964       0.49631254 </v>
   <v>       0.71429331       0.28564965       0.49702630 </v>
   <v>       0.71379028       0.42772568       0.50196265 </v>
   <v>       0.71839375       0.57315114       0.51741099 </v>
   <v>       0.72116874       0.71650768       0.52390513 </v>
   <v>       0.71321122       0.85717978       0.50714904 </v>
   <v>       0.85699567       0.99993118       0.50121657 </v>
   <v>       0.85673167       0.14264520       0.49740089 </v>
   <v>       0.85677992       0.28547025       0.49590334 </v>
   <v>       0.85717890       0.42852778       0.49731767 </v>
   <v>       0.85793487       0.57189105       0.50164284 </v>
   <v>       0.85986661       0.71541923       0.50632432 </v>
   <v>       0.85753498       0.85690968       0.50487916 </v>
   <v>       0.04752467       0.09531603       0.49875305 </v>
   <v>       0.04649503       0.23745936       0.49893483 </v>
   <v>       0.04644172       0.38056756       0.49725726 </v>
   <v>       0.04754983       0.52381696       0.49558397 </v>
   <v>       0.04806702       0.66688726       0.49604314 </v>
   <v>       0.04828977       0.80994638       0.49761511 </v>
   <v>       0.04804405       0.95278211       0.49839215 </v>
   <v>       0.19056618       0.09541414       0.50091271 </v>
   <v>       0.18996909       0.23836842       0.50454553 </v>
   <v>       0.18772501       0.37987332       0.50593219 </v>
   <v>       0.18970158       0.52344304       0.50120632 </v>
   <v>       0.19042209       0.66682757       0.49729372 </v>
   <v>       0.19077516       0.80985677       0.49614575 </v>
   <v>       0.19081626       0.95271121       0.49754714 </v>
   <v>       0.33336142       0.09537740       0.49941906 </v>
   <v>       0.33434007       0.23817050       0.50710482 </v>
   <v>       0.32636995       0.37873971       0.52392762 </v>
   <v>       0.32920785       0.52207981       0.51696330 </v>
   <v>       0.33376378       0.66751419       0.50186969 </v>
   <v>       0.33321786       0.80960587       0.49701644 </v>
   <v>       0.33325474       0.95246587       0.49641745 </v>
   <v>       0.47624732       0.09491648       0.49682219 </v>
   <v>       0.47551126       0.23713354       0.49936131 </v>
   <v>       0.47528720       0.80930124       0.49831950 </v>
   <v>       0.47611897       0.95258579       0.49646263 </v>
   <v>       0.61888503       0.09523427       0.49632596 </v>
   <v>       0.61924790       0.23793109       0.49719984 </v>
   <v>       0.62086563       0.37934325       0.50004643 </v>
   <v>       0.62024944       0.81330101       0.50314884 </v>
   <v>       0.61907744       0.95301317       0.49843540 </v>
   <v>       0.76180594       0.09530307       0.49731382 </v>
   <v>       0.76182316       0.23783573       0.49609534 </v>
   <v>       0.76199494       0.38076583       0.49875292 </v>
   <v>       0.76231063       0.52487481       0.50689219 </v>
   <v>       0.76538504       0.66710665       0.51661338 </v>
   <v>       0.76159025       0.80860682       0.51237226 </v>
   <v>       0.76182431       0.95251956       0.50285521 </v>
   <v>       0.90426767       0.09479787       0.49862138 </v>
   <v>       0.90417512       0.23778102       0.49634626 </v>
   <v>       0.90435247       0.38092233       0.49577438 </v>
   <v>       0.90503035       0.52405962       0.49752967 </v>
   <v>       0.90608080       0.66704447       0.50160366 </v>
   <v>       0.90594201       0.81019834       0.50341964 </v>
   <v>       0.90466153       0.95205199       0.50107275 </v>
   <v>       0.46382146       0.35409532       0.50357558 </v>
   <v>       0.40138991       0.55543778       0.52373437 </v>
   <v>       0.64619129       0.53973976       0.52422539 </v>
   <v>       0.58498351       0.41601084       0.49973928 </v>
   <v>       0.58377597       0.74123777       0.50322530 </v>
   <v>       0.46259281       0.67930147       0.50027114 </v>
   <v>       0.56677168       0.59274254       0.35568647 </v>
   <v>       0.48098012       0.50080516       0.35560066 </v>
   <v>       0.41551654       0.42901549       0.54280163 </v>
   <v>       0.63195662       0.66608398       0.54264421 </v>
   <v>       0.52413681       0.54651873       0.39533618 </v>
  </varray>
  <varray name="selective"  type="logical" >
   <v type="logical" >  T  T  T </v>
   <v type="logical" >  T  T  T </v>
   <v type="logical" >  T  T  T </v>
   <v type="logical" >  T  T  T </v>
   <v type="logical" >  T  T  T </v>
   <v type="logical" >  T  T  T </v>
   <v type="logical" >  T  T  T </v>
   <v type="logical" >  T  T  T </v>
   <v type="logical" >  T  T  T </v>
   <v type="logical" >  T  T  T </v>
   <v type="logical" >  T  T  T </v>
   <v type="logical" >  T  T  T </v>
   <v type="logical" >  T  T  T </v>
   <v type="logical" >  T  T  T </v>
   <v type="logical" >  T  T  T </v>
   <v type="logical" >  T  T  T </v>
   <v type="logical" >  T  T  T </v>
   <v type="logical" >  T  T  T </v>
   <v type="logical" >  T  T  T </v>
   <v type="logical" >  T  T  T </v>
   <v type="logical" >  T  T  T </v>
   <v type="logical" >  T  T  T </v>
   <v type="logical" >  T  T  T </v>
   <v type="logical" >  T  T  T </v>
   <v type="logical" >  T  T  T </v>
   <v type="logical" >  T  T  T </v>
   <v type="logical" >  T  T  T </v>
   <v type="logical" >  T  T  T </v>
   <v type="logical" >  T  T  T </v>
   <v type="logical" >  T  T  T </v>
   <v type="logical" >  T  T  T </v>
   <v type="logical" >  T  T  T </v>
   <v type="logical" >  T  T  T </v>
   <v type="logical" >  T  T  T </v>
   <v type="logical" >  T  T  T </v>
   <v type="logical" >  T  T  T </v>
   <v type="logical" >  T  T  T </v>
   <v type="logical" >  T  T  T </v>
   <v type="logical" >  T  T  T </v>
   <v type="logical" >  T  T  T </v>
   <v type="logical" >  T  T  T </v>
   <v type="logical" >  T  T  T </v>
   <v type="logical" >  T  T  T </v>
   <v type="logical" >  T  T  T </v>
   <v type="logical" >  T  T  T </v>
   <v type="logical" >  T  T  T </v>
   <v type="logical" >  T  T  T </v>
   <v type="logical" >  T  T  T </v>
   <v type="logical" >  T  T  T </v>
   <v type="logical" >  T  T  T </v>
   <v type="logical" >  T  T  T </v>
   <v type="logical" >  T  T  T </v>
   <v type="logical" >  T  T  T </v>
   <v type="logical" >  T  T  T </v>
   <v type="logical" >  T  T  T </v>
   <v type="logical" >  T  T  T </v>
   <v type="logical" >  T  T  T </v>
   <v type="logical" >  T  T  T </v>
   <v type="logical" >  T  T  T </v>
   <v type="logical" >  T  T  T </v>
   <v type="logical" >  T  T  T </v>
   <v type="logical" >  T  T  T </v>
   <v type="logical" >  T  T  T </v>
   <v type="logical" >  T  T  T </v>
   <v type="logical" >  T  T  T </v>
   <v type="logical" >  T  T  T </v>
   <v type="logical" >  T  T  T </v>
   <v type="logical" >  T  T  T </v>
   <v type="logical" >  T  T  T </v>
   <v type="logical" >  T  T  T </v>
   <v type="logical" >  T  T  T </v>
   <v type="logical" >  T  T  T </v>
   <v type="logical" >  T  T  T </v>
   <v type="logical" >  T  T  T </v>
   <v type="logical" >  T  T  T </v>
   <v type="logical" >  T  T  T </v>
   <v type="logical" >  T  T  T </v>
   <v type="logical" >  T  T  T </v>
   <v type="logical" >  T  T  T </v>
   <v type="logical" >  T  T  T </v>
   <v type="logical" >  T  T  T </v>
   <v type="logical" >  T  T  T </v>
   <v type="logical" >  T  T  T </v>
   <v type="logical" >  T  T  T </v>
   <v type="logical" >  T  T  T </v>
   <v type="logical" >  T  T  T </v>
   <v type="logical" >  T  T  T </v>
   <v type="logical" >  T  T  T </v>
   <v type="logical" >  T  T  T </v>
   <v type="logical" >  T  T  T </v>
   <v type="logical" >  T  T  T </v>
   <v type="logical" >  T  T  T </v>
   <v type="logical" >  T  T  T </v>
   <v type="logical" >  T  T  T </v>
   <v type="logical" >  T  T  T </v>
   <v type="logical" >  T  T  T </v>
   <v type="logical" >  T  T  T </v>
   <v type="logical" >  T  T  T </v>
   <v type="logical" >  T  T  F </v>
  </varray>
  <nose>
   <v>      -3.00000000       0.00000000       0.00010000       0.00010000 </v>
  </nose>
 </structure>
 <calculation>
  <scstep>
   <time name="dav">   89.41   90.31</time>
   <time name="total">   90.64   91.55</time>
   <energy>
    <i name="alphaZ">    186.33367753 </i>
    <i name="ewald">  37685.25206007 </i>
    <i name="hartreedc"> -48837.77816808 </i>
    <i name="XCdc">   1280.17161190 </i>
    <i name="pawpsdc">  10991.97733137 </i>
    <i name="pawaedc"> -11054.15789429 </i>
    <i name="eentropy">     -0.03719533 </i>
    <i name="bandstr">  -1513.25455584 </i>
    <i name="atom">  14800.58670786 </i>
    <i name="e_fr_energy">   3539.09357519 </i>
    <i name="e_wo_entrp">   3539.13077052 </i>
    <i name="e_0_energy">   3539.11217285 </i>
   </energy>
  </scstep>
  <scstep>
   <time name="dav">  110.59  111.58</time>
   <time name="total">  110.60  111.59</time>
   <energy>
    <i name="e_fr_energy">   -200.96268622 </i>
    <i name="e_wo_entrp">   -200.96030816 </i>
    <i name="e_0_energy">   -200.96149719 </i>
   </energy>
  </scstep>
  <scstep>
   <time name="dav">   95.50   96.36</time>
   <time name="total">   95.51   96.37</time>
   <energy>
    <i name="e_fr_energy">   -887.70899537 </i>
    <i name="e_wo_entrp">   -887.70885449 </i>
    <i name="e_0_energy">   -887.70892493 </i>
   </energy>
  </scstep>
  <scstep>
   <time name="dav">   94.26   95.12</time>
   <time name="total">   94.27   95.13</time>
   <energy>
    <i name="e_fr_energy">   -913.24313321 </i>
    <i name="e_wo_entrp">   -913.24301191 </i>
    <i name="e_0_energy">   -913.24307256 </i>
   </energy>
  </scstep>
  <scstep>
   <time name="dav">  105.05  106.02</time>
   <time name="total">  105.99  106.97</time>
   <energy>
    <i name="e_fr_energy">   -914.02054813 </i>
    <i name="e_wo_entrp">   -914.02042178 </i>
    <i name="e_0_energy">   -914.02048495 </i>
   </energy>
  </scstep>
  <scstep>
   <time name="dav">   90.55   91.35</time>
   <time name="total">   92.98   93.80</time>
   <energy>
    <i name="e_fr_energy">   -880.60150848 </i>
    <i name="e_wo_entrp">   -880.60139267 </i>
    <i name="e_0_energy">   -880.60145058 </i>
   </energy>
  </scstep>
  <scstep>
   <time name="dav">   88.70   89.53</time>
   <time name="total">   91.06   91.92</time>
   <energy>
    <i name="e_fr_energy">   -852.17885080 </i>
    <i name="e_wo_entrp">   -852.17873957 </i>
    <i name="e_0_energy">   -852.17879519 </i>
   </energy>
  </scstep>
  <scstep>
   <time name="dav">   92.51   93.39</time>
   <time name="total">   94.77   95.68</time>
   <energy>
    <i name="e_fr_energy">   -851.82777741 </i>
    <i name="e_wo_entrp">   -851.82768062 </i>
    <i name="e_0_energy">   -851.82772901 </i>
   </energy>
  </scstep>
  <scstep>
   <time name="dav">   90.85   91.71</time>
   <time name="total">   93.18   94.06</time>
   <energy>
    <i name="e_fr_energy">   -851.90614768 </i>
    <i name="e_wo_entrp">   -851.90605054 </i>
    <i name="e_0_energy">   -851.90609911 </i>
   </energy>
  </scstep>
  <scstep>
   <time name="dav">   91.89   92.75</time>
   <time name="total">   94.22   95.10</time>
   <energy>
    <i name="e_fr_energy">   -851.77274608 </i>
    <i name="e_wo_entrp">   -851.77264830 </i>
    <i name="e_0_energy">   -851.77269719 </i>
   </energy>
  </scstep>
  <scstep>
   <time name="dav">   89.45   90.28</time>
   <time name="total">   91.79   92.64</time>
   <energy>
    <i name="e_fr_energy">   -851.76247999 </i>
    <i name="e_wo_entrp">   -851.76238258 </i>
    <i name="e_0_energy">   -851.76243129 </i>
   </energy>
  </scstep>
  <scstep>
   <time name="dav">   93.23   94.11</time>
   <time name="total">   95.54   96.44</time>
   <energy>
    <i name="e_fr_energy">   -851.76001229 </i>
    <i name="e_wo_entrp">   -851.75991368 </i>
    <i name="e_0_energy">   -851.75996298 </i>
   </energy>
  </scstep>
  <scstep>
   <time name="dav">   92.81   93.67</time>
   <time name="total">   95.14   96.03</time>
   <energy>
    <i name="e_fr_energy">   -851.76029853 </i>
    <i name="e_wo_entrp">   -851.76020001 </i>
    <i name="e_0_energy">   -851.76024927 </i>
   </energy>
  </scstep>
  <scstep>
   <time name="dav">   92.32   93.19</time>
   <time name="total">   94.67   95.56</time>
   <energy>
    <i name="e_fr_energy">   -851.76021065 </i>
    <i name="e_wo_entrp">   -851.76011218 </i>
    <i name="e_0_energy">   -851.76016142 </i>
   </energy>
  </scstep>
  <scstep>
   <time name="dav">   92.92   93.78</time>
   <time name="total">   95.18   96.06</time>
   <energy>
    <i name="e_fr_energy">   -851.76024783 </i>
    <i name="e_wo_entrp">   -851.76014935 </i>
    <i name="e_0_energy">   -851.76019859 </i>
   </energy>
  </scstep>
  <scstep>
   <time name="dav">   88.85   89.71</time>
   <time name="total">   91.20   92.09</time>
   <energy>
    <i name="e_fr_energy">   -851.76029646 </i>
    <i name="e_wo_entrp">   -851.76019796 </i>
    <i name="e_0_energy">   -851.76024721 </i>
   </energy>
  </scstep>
  <scstep>
   <time name="dav">   94.17   95.04</time>
   <time name="total">   96.51   97.40</time>
   <energy>
    <i name="e_fr_energy">   -851.76029570 </i>
    <i name="e_wo_entrp">   -851.76019717 </i>
    <i name="e_0_energy">   -851.76024643 </i>
   </energy>
  </scstep>
  <scstep>
   <time name="dav">   89.92   90.76</time>
   <time name="total">   91.33   92.19</time>
   <energy>
    <i name="alphaZ">    186.33367753 </i>
    <i name="ewald">  37685.25206007 </i>
    <i name="hartreedc"> -50398.79323330 </i>
    <i name="XCdc">   1337.81270895 </i>
    <i name="pawpsdc">  38636.01200962 </i>
    <i name="pawaedc"> -38708.98682374 </i>
    <i name="eentropy">     -0.00009851 </i>
    <i name="bandstr">  -4389.97730481 </i>
    <i name="atom">  14800.58670786 </i>
    <i name="e_fr_energy">   -851.76029633 </i>
    <i name="e_wo_entrp">   -851.76019781 </i>
    <i name="e_0_energy">   -851.76024707 </i>
   </energy>
  </scstep>
  <structure>
   <crystal>
    <varray name="basis" >
     <v>      17.27103806       0.00000000       0.00000000 </v>
     <v>      -8.63551903      14.95715771       0.00000000 </v>
     <v>       0.00000000       0.00000000      15.00000000 </v>
    </varray>
    <i name="volume">   3874.88459904 </i>
    <varray name="rec_basis" >
     <v>       0.05790040       0.03342881      -0.00000000 </v>
     <v>       0.00000000       0.06685762       0.00000000 </v>
     <v>       0.00000000      -0.00000000       0.06666667 </v>
    </varray>
   </crystal>
   <varray name="positions" >
    <v>       0.99994088       0.99994326       0.49879109 </v>
    <v>       0.99947460       0.14252828       0.49836914 </v>
    <v>       0.99925916       0.28539508       0.49726894 </v>
    <v>       0.99950212       0.42847731       0.49562123 </v>
    <v>       0.00011358       0.57156223       0.49568691 </v>
    <v>       0.00112755       0.71477371       0.49774138 </v>
    <v>       0.00103769       0.85787314       0.49921141 </v>
    <v>       0.14325392       0.00055472       0.49849460 </v>
    <v>       0.14282390       0.14321833       0.50079235 </v>
    <v>       0.14158454       0.28509620       0.50300125 </v>
    <v>       0.14150177       0.42827718       0.50102428 </v>
    <v>       0.14259568       0.57130721       0.49735672 </v>
    <v>       0.14321488       0.71441668       0.49607646 </v>
    <v>       0.14338996       0.85757010       0.49663929 </v>
    <v>       0.28575411       0.00003831       0.49753448 </v>
    <v>       0.28571938       0.14284937       0.50271255 </v>
    <v>       0.28589990       0.28666583       0.51226685 </v>
    <v>       0.28216397       0.42814656       0.51648488 </v>
    <v>       0.28528574       0.57037626       0.50655211 </v>
    <v>       0.28555733       0.71450440       0.49866013 </v>
    <v>       0.28570051       0.85744731       0.49624704 </v>
    <v>       0.42863370       0.00001509       0.49628964 </v>
    <v>       0.42847857       0.14229915       0.49852251 </v>
    <v>       0.42731729       0.28203561       0.50334781 </v>
    <v>       0.42669000       0.71592002       0.50020144 </v>
    <v>       0.42826630       0.85732258       0.49715320 </v>
    <v>       0.57128354       0.00036367       0.49675558 </v>
    <v>       0.57138704       0.14264138       0.49652331 </v>
    <v>       0.57224450       0.28595172       0.49826090 </v>
    <v>       0.57201710       0.85817346       0.49927798 </v>
    <v>       0.71418665       0.99998493       0.49932691 </v>
    <v>       0.71427755       0.14281964       0.49631254 </v>
    <v>       0.71429331       0.28564965       0.49702630 </v>
    <v>       0.71379028       0.42772568       0.50196265 </v>
    <v>       0.71839375       0.57315114       0.51741099 </v>
    <v>       0.72116874       0.71650768       0.52390513 </v>
    <v>       0.71321122       0.85717978       0.50714904 </v>
    <v>       0.85699567       0.99993118       0.50121657 </v>
    <v>       0.85673167       0.14264520       0.49740089 </v>
    <v>       0.85677992       0.28547025       0.49590334 </v>
    <v>       0.85717890       0.42852778       0.49731767 </v>
    <v>       0.85793487       0.57189105       0.50164284 </v>
    <v>       0.85986661       0.71541923       0.50632432 </v>
    <v>       0.85753498       0.85690968       0.50487916 </v>
    <v>       0.04752467       0.09531603       0.49875305 </v>
    <v>       0.04649503       0.23745936       0.49893483 </v>
    <v>       0.04644172       0.38056756       0.49725726 </v>
    <v>       0.04754983       0.52381696       0.49558397 </v>
    <v>       0.04806702       0.66688726       0.49604314 </v>
    <v>       0.04828977       0.80994638       0.49761511 </v>
    <v>       0.04804405       0.95278211       0.49839215 </v>
    <v>       0.19056618       0.09541414       0.50091271 </v>
    <v>       0.18996909       0.23836842       0.50454553 </v>
    <v>       0.18772501       0.37987332       0.50593219 </v>
    <v>       0.18970158       0.52344304       0.50120632 </v>
    <v>       0.19042209       0.66682757       0.49729372 </v>
    <v>       0.19077516       0.80985677       0.49614575 </v>
    <v>       0.19081626       0.95271121       0.49754714 </v>
    <v>       0.33336142       0.09537740       0.49941906 </v>
    <v>       0.33434007       0.23817050       0.50710482 </v>
    <v>       0.32636995       0.37873971       0.52392762 </v>
    <v>       0.32920785       0.52207981       0.51696330 </v>
    <v>       0.33376378       0.66751419       0.50186969 </v>
    <v>       0.33321786       0.80960587       0.49701644 </v>
    <v>       0.33325474       0.95246587       0.49641745 </v>
    <v>       0.47624732       0.09491648       0.49682219 </v>
    <v>       0.47551126       0.23713354       0.49936131 </v>
    <v>       0.47528720       0.80930124       0.49831950 </v>
    <v>       0.47611897       0.95258579       0.49646263 </v>
    <v>       0.61888503       0.09523427       0.49632596 </v>
    <v>       0.61924790       0.23793109       0.49719984 </v>
    <v>       0.62086563       0.37934325       0.50004643 </v>
    <v>       0.62024944       0.81330101       0.50314884 </v>
    <v>       0.61907744       0.95301317       0.49843540 </v>
    <v>       0.76180594       0.09530307       0.49731382 </v>
    <v>       0.76182316       0.23783573       0.49609534 </v>
    <v>       0.76199494       0.38076583       0.49875292 </v>
    <v>       0.76231063       0.52487481       0.50689219 </v>
    <v>       0.76538504       0.66710665       0.51661338 </v>
    <v>       0.76159025       0.80860682       0.51237226 </v>
    <v>       0.76182431       0.95251956       0.50285521 </v>
    <v>       0.90426767       0.09479787       0.49862138 </v>
    <v>       0.90417512       0.23778102       0.49634626 </v>
    <v>       0.90435247       0.38092233       0.49577438 </v>
    <v>       0.90503035       0.52405962       0.49752967 </v>
    <v>       0.90608080       0.66704447       0.50160366 </v>
    <v>       0.90594201       0.81019834       0.50341964 </v>
    <v>       0.90466153       0.95205199       0.50107275 </v>
    <v>       0.46382146       0.35409532       0.50357558 </v>
    <v>       0.40138991       0.55543778       0.52373437 </v>
    <v>       0.64619129       0.53973976       0.52422539 </v>
    <v>       0.58498351       0.41601084       0.49973928 </v>
    <v>       0.58377597       0.74123777       0.50322530 </v>
    <v>       0.46259281       0.67930147       0.50027114 </v>
    <v>       0.56677168       0.59274254       0.35568647 </v>
    <v>       0.48098012       0.50080516       0.35560066 </v>
    <v>       0.41551654       0.42901549       0.54280163 </v>
    <v>       0.63195662       0.66608398       0.54264421 </v>
    <v>       0.52413681       0.54651873       0.39533618 </v>
   </varray>
  </structure>
  <varray name="forces" >
   <v>       0.00066039       0.00221593       0.02372003 </v>
   <v>      -0.00794169       0.01807881       0.00777319 </v>
   <v>       0.00505667       0.00023468       0.00544945 </v>
   <v>      -0.00629084      -0.00802342       0.01596991 </v>
   <v>      -0.01462592       0.00185193       0.02376366 </v>
   <v>       0.00168365       0.03321337       0.00392164 </v>
   <v>      -0.00438616      -0.01049688       0.00226140 </v>
   <v>       0.00112189       0.02871968       0.00686091 </v>
   <v>       0.00094334       0.00490205      -0.00147930 </v>
   <v>       0.01622455      -0.01138756       0.00863802 </v>
   <v>       0.00874311       0.01560815       0.00203667 </v>
   <v>       0.00489447       0.02981234       0.00121390 </v>
   <v>      -0.00323005       0.00217786      -0.01292477 </v>
   <v>      -0.00408031      -0.00013350      -0.00444400 </v>
   <v>      -0.01559571      -0.02053354      -0.00950227 </v>
   <v>       0.02182298       0.00445446      -0.00251858 </v>
   <v>      -0.01775563       0.02736333      -0.00330911 </v>
   <v>      -0.00794991       0.00466724      -0.02037871 </v>
   <v>      -0.01531518      -0.00745841      -0.00111733 </v>
   <v>       0.01312076       0.01599407      -0.00068579 </v>
   <v>      -0.01224376       0.00935774      -0.01294743 </v>
   <v>       0.02441374       0.01689678       0.01326477 </v>
   <v>      -0.04481618       0.05207840       0.00124896 </v>
   <v>      -0.01518951       0.00551914      -0.01303900 </v>
   <v>      -0.01773877       0.00310389       0.00580884 </v>
   <v>       0.01750887      -0.03753621       0.00208293 </v>
   <v>      -0.04416230       0.00682500       0.00902912 </v>
   <v>      -0.01418616      -0.02071705      -0.00035458 </v>
   <v>       0.01334506      -0.00442040       0.00388766 </v>
   <v>      -0.00160646       0.03035420       0.00166154 </v>
   <v>       0.00442909      -0.01037340       0.00692653 </v>
   <v>       0.01500210       0.02497190      -0.00906616 </v>
   <v>      -0.01443690       0.01631921      -0.00303397 </v>
   <v>       0.00546404      -0.00000673      -0.00277954 </v>
   <v>      -0.01561642       0.02234047      -0.01653646 </v>
   <v>      -0.03108708       0.01409478       0.00758602 </v>
   <v>      -0.02382796      -0.00015160      -0.00028091 </v>
   <v>      -0.00074543       0.02235528      -0.00830747 </v>
   <v>      -0.01260503       0.01112847      -0.00647808 </v>
   <v>      -0.00536900      -0.00373728      -0.01041458 </v>
   <v>       0.00174535       0.02305143       0.00406470 </v>
   <v>      -0.03545785       0.00148440      -0.00838023 </v>
   <v>      -0.01828805      -0.01029413       0.00319190 </v>
   <v>      -0.00056369      -0.00178106      -0.00017377 </v>
   <v>       0.00950742       0.00957543       0.01102399 </v>
   <v>       0.00942276      -0.00403518      -0.00293631 </v>
   <v>      -0.00425892      -0.02642967      -0.00484531 </v>
   <v>      -0.01801408      -0.01578622       0.00452253 </v>
   <v>       0.03499980       0.00030925      -0.00046846 </v>
   <v>       0.00353208       0.00223947       0.00951656 </v>
   <v>       0.00130306      -0.00802377       0.00837637 </v>
   <v>      -0.02623567      -0.02876141       0.00555271 </v>
   <v>      -0.00193289      -0.00255843       0.00752563 </v>
   <v>      -0.01800824       0.01487151       0.00044688 </v>
   <v>       0.01121996      -0.01843260      -0.00103999 </v>
   <v>      -0.02148303      -0.04237011       0.01198887 </v>
   <v>      -0.00767159       0.00356077       0.00266074 </v>
   <v>       0.01646296      -0.01627258      -0.00770126 </v>
   <v>       0.01135602      -0.01028378       0.00100284 </v>
   <v>       0.02451343      -0.01009499       0.00525436 </v>
   <v>       0.00699482      -0.02812965      -0.00031534 </v>
   <v>      -0.00579999      -0.01696585       0.00301738 </v>
   <v>      -0.00958733       0.02019827      -0.00979639 </v>
   <v>       0.02434672      -0.00136259       0.00167091 </v>
   <v>      -0.02394922      -0.01684088      -0.00210291 </v>
   <v>       0.04004087      -0.02610362       0.00269659 </v>
   <v>       0.01860590      -0.03286474      -0.00317107 </v>
   <v>      -0.02309335       0.02079069      -0.00736487 </v>
   <v>       0.01595370       0.04882848      -0.00358711 </v>
   <v>      -0.02515310      -0.00173423       0.00055352 </v>
   <v>      -0.01122310       0.02588587      -0.00050322 </v>
   <v>       0.00533627       0.00640750       0.00231239 </v>
   <v>       0.01274226      -0.00858864      -0.00434707 </v>
   <v>       0.02976565      -0.05489873      -0.00009147 </v>
   <v>       0.00930341       0.01778930       0.00879647 </v>
   <v>       0.02385601      -0.00216298      -0.00279805 </v>
   <v>       0.00420726      -0.01019193      -0.00204459 </v>
   <v>       0.02248285       0.01396599       0.00107633 </v>
   <v>       0.02109402      -0.00293984       0.00925589 </v>
   <v>       0.02346231      -0.02394972       0.00135669 </v>
   <v>      -0.00448781      -0.01569432      -0.00380584 </v>
   <v>       0.02241206      -0.04263458      -0.00307491 </v>
   <v>      -0.00479606      -0.00570736       0.00282893 </v>
   <v>       0.00494659       0.00307448       0.00009555 </v>
   <v>       0.01834594      -0.04116648       0.00302735 </v>
   <v>       0.01019924      -0.01779928      -0.01708614 </v>
   <v>      -0.00721567       0.01837142      -0.00487954 </v>
   <v>       0.00319884       0.00792969      -0.00292936 </v>
   <v>       0.00233052       0.00264067       0.00029325 </v>
   <v>       0.01625923       0.00556445       0.00325743 </v>
   <v>      -0.00615113       0.00118842       0.00103580 </v>
   <v>       0.00197578      -0.00081907      -0.00021738 </v>
   <v>       0.00022461      -0.00454009       0.00071807 </v>
   <v>       0.00968750      -0.00585114      -0.00383857 </v>
   <v>       0.01363400      -0.00769218      -0.00273195 </v>
   <v>      -0.00938447       0.01175713       0.00107341 </v>
   <v>       0.00234851       0.01484473       0.00792975 </v>
   <v>      -0.00525900       0.00428819      -0.00072551 </v>
   <v>      -0.00343587      -0.00451884      -0.03867423 </v>
  </varray>
  <varray name="stress" >
   <v>       5.78425335       0.05364073      -0.00585487 </v>
   <v>       0.05363798       3.25028000       0.00417574 </v>
   <v>      -0.00585487       0.00417574      -0.29248789 </v>
  </varray>
  <energy>
   <i name="e_fr_energy">   -859.62418548 </i>
   <i name="e_wo_entrp">   -859.62408697 </i>
   <i name="e_0_energy">   -859.62413623 </i>
  </energy>
  <time name="totalsc"> 1842.92 1860.12</time>
 </calculation>
 <calculation>
  <scstep>
   <time name="dav">   84.88   85.66</time>
   <time name="total">   87.22   88.03</time>
   <energy>
    <i name="alphaZ">    186.33367753 </i>
    <i name="ewald">  37685.29653736 </i>
    <i name="hartreedc"> -50398.84204463 </i>
    <i name="XCdc">   1337.81369730 </i>
    <i name="pawpsdc">  38635.93756670 </i>
    <i name="pawaedc"> -38708.91244461 </i>
    <i name="eentropy">     -0.00009575 </i>
    <i name="bandstr">  -4389.97434140 </i>
    <i name="atom">  14800.58670786 </i>
    <i name="e_fr_energy">   -851.76073964 </i>
    <i name="e_wo_entrp">   -851.76064389 </i>
    <i name="e_0_energy">   -851.76069176 </i>
   </energy>
  </scstep>
  <scstep>
   <time name="dav">   94.88   95.78</time>
   <time name="total">   97.23   98.16</time>
   <energy>
    <i name="e_fr_energy">   -851.76076368 </i>
    <i name="e_wo_entrp">   -851.76066786 </i>
    <i name="e_0_energy">   -851.76071577 </i>
   </energy>
  </scstep>
  <scstep>
   <time name="dav">   94.06   95.02</time>
   <time name="total">   96.41   97.38</time>
   <energy>
    <i name="e_fr_energy">   -851.76074794 </i>
    <i name="e_wo_entrp">   -851.76065203 </i>
    <i name="e_0_energy">   -851.76069998 </i>
   </energy>
  </scstep>
  <scstep>
   <time name="dav">   83.55   84.36</time>
   <time name="total">   85.89   86.72</time>
   <energy>
    <i name="e_fr_energy">   -851.76074001 </i>
    <i name="e_wo_entrp">   -851.76064397 </i>
    <i name="e_0_energy">   -851.76069199 </i>
   </energy>
  </scstep>
  <scstep>
   <time name="dav">   76.65   77.41</time>
   <time name="total">   78.07   78.84</time>
   <energy>
    <i name="alphaZ">    186.33367753 </i>
    <i name="ewald">  37685.29653736 </i>
    <i name="hartreedc"> -50398.82688900 </i>
    <i name="XCdc">   1337.81296966 </i>
    <i name="pawpsdc">  38635.39987335 </i>
    <i name="pawaedc"> -38708.37441739 </i>
    <i name="eentropy">     -0.00009604 </i>
    <i name="bandstr">  -4389.98910343 </i>
    <i name="atom">  14800.58670786 </i>
    <i name="e_fr_energy">   -851.76074008 </i>
    <i name="e_wo_entrp">   -851.76064405 </i>
    <i name="e_0_energy">   -851.76069207 </i>
   </energy>
  </scstep>
  <structure>
   <crystal>
    <varray name="basis" >
     <v>      17.27103806       0.00000000       0.00000000 </v>
     <v>      -8.63551903      14.95715771       0.00000000 </v>
     <v>       0.00000000       0.00000000      15.00000000 </v>
    </varray>
    <i name="volume">   3874.88459904 </i>
    <varray name="rec_basis" >
     <v>       0.05790040       0.03342881      -0.00000000 </v>
     <v>       0.00000000       0.06685762       0.00000000 </v>
     <v>       0.00000000      -0.00000000       0.06666667 </v>
    </varray>
   </crystal>
   <varray name="positions" >
    <v>       0.99994197       0.99994469       0.49880635 </v>
    <v>       0.99947600       0.14253994       0.49837414 </v>
    <v>       0.99926206       0.28539524       0.49727244 </v>
    <v>       0.99949602       0.42847214       0.49563150 </v>
    <v>       0.00010601       0.57156342       0.49570220 </v>
    <v>       0.00113921       0.71479514       0.49774390 </v>
    <v>       0.00103185       0.85786637       0.49921286 </v>
    <v>       0.14326381       0.00057324       0.49849901 </v>
    <v>       0.14282601       0.14322149       0.50079139 </v>
    <v>       0.14158993       0.28508885       0.50300681 </v>
    <v>       0.14151169       0.42828725       0.50102559 </v>
    <v>       0.14260803       0.57132645       0.49735750 </v>
    <v>       0.14321378       0.71441809       0.49606815 </v>
    <v>       0.14338764       0.85757002       0.49663643 </v>
    <v>       0.28573878       0.00002507       0.49752836 </v>
    <v>       0.28573301       0.14285225       0.50271093 </v>
    <v>       0.28589880       0.28668348       0.51226472 </v>
    <v>       0.28216103       0.42814957       0.51647177 </v>
    <v>       0.28527478       0.57037145       0.50655139 </v>
    <v>       0.28556982       0.71451472       0.49865968 </v>
    <v>       0.28569669       0.85745335       0.49623871 </v>
    <v>       0.42865279       0.00002599       0.49629818 </v>
    <v>       0.42847033       0.14233274       0.49852331 </v>
    <v>       0.42731059       0.28203917       0.50333943 </v>
    <v>       0.42668109       0.71592203       0.50020518 </v>
    <v>       0.42826398       0.85729837       0.49715454 </v>
    <v>       0.57126107       0.00036807       0.49676139 </v>
    <v>       0.57137244       0.14262801       0.49652308 </v>
    <v>       0.57225053       0.28594887       0.49826340 </v>
    <v>       0.57202599       0.85819304       0.49927905 </v>
    <v>       0.71418578       0.99997823       0.49933136 </v>
    <v>       0.71429399       0.14283575       0.49630670 </v>
    <v>       0.71429050       0.28566018       0.49702435 </v>
    <v>       0.71379333       0.42772568       0.50196087 </v>
    <v>       0.71839224       0.57316555       0.51740036 </v>
    <v>       0.72115592       0.71651677       0.52391001 </v>
    <v>       0.71319786       0.85717968       0.50714886 </v>
    <v>       0.85700246       0.99994560       0.50121123 </v>
    <v>       0.85672821       0.14265238       0.49739673 </v>
    <v>       0.85677572       0.28546784       0.49589664 </v>
    <v>       0.85718731       0.42854265       0.49732028 </v>
    <v>       0.85791554       0.57189201       0.50163745 </v>
    <v>       0.85985308       0.71541259       0.50632637 </v>
    <v>       0.85753409       0.85690854       0.50487904 </v>
    <v>       0.04753307       0.09532220       0.49876014 </v>
    <v>       0.04649899       0.23745675       0.49893295 </v>
    <v>       0.04643082       0.38055051       0.49725414 </v>
    <v>       0.04753468       0.52380678       0.49558688 </v>
    <v>       0.04808667       0.66688746       0.49604284 </v>
    <v>       0.04829247       0.80994782       0.49762123 </v>
    <v>       0.04804219       0.95277694       0.49839754 </v>
    <v>       0.19054225       0.09539558       0.50091628 </v>
    <v>       0.18996718       0.23836677       0.50455037 </v>
    <v>       0.18771974       0.37988291       0.50593248 </v>
    <v>       0.18970190       0.52343115       0.50120565 </v>
    <v>       0.19039642       0.66680023       0.49730143 </v>
    <v>       0.19077202       0.80985907       0.49614746 </v>
    <v>       0.19082021       0.95270072       0.49754218 </v>
    <v>       0.33336445       0.09537076       0.49941971 </v>
    <v>       0.33435051       0.23816399       0.50710820 </v>
    <v>       0.32636478       0.37872157       0.52392741 </v>
    <v>       0.32919913       0.52206886       0.51696525 </v>
    <v>       0.33376493       0.66752722       0.50186339 </v>
    <v>       0.33323102       0.80960499       0.49701751 </v>
    <v>       0.33323593       0.95245500       0.49641609 </v>
    <v>       0.47626126       0.09489964       0.49682392 </v>
    <v>       0.47551105       0.23711234       0.49935927 </v>
    <v>       0.47528101       0.80931465       0.49831476 </v>
    <v>       0.47614363       0.95261729       0.49646032 </v>
    <v>       0.61887042       0.09523315       0.49632632 </v>
    <v>       0.61924997       0.23794778       0.49719951 </v>
    <v>       0.62087068       0.37934739       0.50004792 </v>
    <v>       0.62025378       0.81329547       0.50314605 </v>
    <v>       0.61907636       0.95297776       0.49843535 </v>
    <v>       0.76181688       0.09531455       0.49731947 </v>
    <v>       0.76183579       0.23783433       0.49609354 </v>
    <v>       0.76199400       0.38075925       0.49875160 </v>
    <v>       0.76232769       0.52488382       0.50689288 </v>
    <v>       0.76539588       0.66710475       0.51661933 </v>
    <v>       0.76159563       0.80859138       0.51237313 </v>
    <v>       0.76181674       0.95250943       0.50285276 </v>
    <v>       0.90426644       0.09477036       0.49861940 </v>
    <v>       0.90417060       0.23777734       0.49634808 </v>
    <v>       0.90435622       0.38092431       0.49577444 </v>
    <v>       0.90502732       0.52403307       0.49753161 </v>
    <v>       0.90608075       0.66703299       0.50159267 </v>
    <v>       0.90594390       0.81021019       0.50341651 </v>
    <v>       0.90466587       0.95205710       0.50107087 </v>
    <v>       0.46382361       0.35409702       0.50357577 </v>
    <v>       0.40140079       0.55544137       0.52373646 </v>
    <v>       0.64618824       0.53974052       0.52422606 </v>
    <v>       0.58498435       0.41601031       0.49973914 </v>
    <v>       0.58377463       0.74123484       0.50322576 </v>
    <v>       0.46259634       0.67929770       0.50026867 </v>
    <v>       0.56677681       0.59273758       0.35568471 </v>
    <v>       0.48097867       0.50081275       0.35560135 </v>
    <v>       0.41552264       0.42902507       0.54280673 </v>
    <v>       0.63195506       0.66608675       0.54264374 </v>
    <v>       0.52413343       0.54651581       0.39533618 </v>
   </varray>
  </structure>
  <varray name="forces" >
   <v>       0.00322345       0.00204619       0.02132881 </v>
   <v>       0.00133488       0.00330743       0.00678296 </v>
   <v>       0.00273646      -0.00346000       0.00417013 </v>
   <v>      -0.00310458      -0.00998236       0.01369283 </v>
   <v>      -0.00431239      -0.00489753       0.02084271 </v>
   <v>       0.00925937       0.01140726       0.00267564 </v>
   <v>      -0.00337109      -0.00192702       0.00229205 </v>
   <v>       0.00088774       0.00286447       0.00593683 </v>
   <v>      -0.00117729       0.00175504      -0.00002280 </v>
   <v>       0.00559876      -0.00283930       0.00760587 </v>
   <v>      -0.00420224       0.00068930       0.00064750 </v>
   <v>      -0.00470856      -0.00032553       0.00143926 </v>
   <v>       0.00170154      -0.00187233      -0.01013811 </v>
   <v>      -0.00079194      -0.00140141      -0.00344843 </v>
   <v>      -0.00468255      -0.01512592      -0.00883536 </v>
   <v>       0.00744068      -0.00898164      -0.00149891 </v>
   <v>      -0.00162256       0.00321106      -0.00397150 </v>
   <v>      -0.00430070      -0.00352929      -0.01707725 </v>
   <v>      -0.00834835      -0.00326597      -0.00104115 </v>
   <v>      -0.00341113       0.00469561      -0.00039239 </v>
   <v>      -0.00403427       0.00259760      -0.01096095 </v>
   <v>       0.00605342       0.00420451       0.01142358 </v>
   <v>      -0.00613333       0.00740836       0.00025315 </v>
   <v>       0.00380165       0.00002461      -0.01237883 </v>
   <v>      -0.00235672       0.00642673       0.00404313 </v>
   <v>       0.00659169       0.00015177       0.00071792 </v>
   <v>      -0.00593508       0.00289135       0.00792845 </v>
   <v>      -0.00601506      -0.00293290      -0.00024772 </v>
   <v>       0.00608010       0.00130010       0.00354940 </v>
   <v>       0.00279894       0.00118995       0.00094566 </v>
   <v>       0.00487128      -0.00777517       0.00619812 </v>
   <v>       0.00362963       0.01089547      -0.00726872 </v>
   <v>      -0.00303607       0.00588248      -0.00317655 </v>
   <v>       0.00777754       0.00344192      -0.00199939 </v>
   <v>      -0.00551480       0.01031729      -0.01541210 </v>
   <v>      -0.01092804       0.00123823       0.00702864 </v>
   <v>      -0.00407276      -0.00637944       0.00017420 </v>
   <v>       0.00100460      -0.00049637      -0.00723049 </v>
   <v>       0.00302652      -0.00093425      -0.00484497 </v>
   <v>       0.00251159       0.00195164      -0.00896845 </v>
   <v>       0.00544613       0.00302773       0.00345160 </v>
   <v>      -0.00521691      -0.00627205      -0.00931795 </v>
   <v>      -0.00033107      -0.00251934       0.00100361 </v>
   <v>       0.00168948       0.00507592      -0.00140935 </v>
   <v>       0.00213449       0.01035499       0.01117511 </v>
   <v>       0.00780651       0.00011701      -0.00122959 </v>
   <v>       0.00102714      -0.01257820      -0.00277301 </v>
   <v>      -0.00772123      -0.00366280       0.00644973 </v>
   <v>       0.01032275       0.00684001       0.00053801 </v>
   <v>      -0.00085812       0.00305514       0.00837982 </v>
   <v>       0.00192540      -0.00383882       0.00895122 </v>
   <v>      -0.00474347      -0.00409645       0.00557897 </v>
   <v>       0.00099543       0.00047810       0.00605092 </v>
   <v>      -0.00588679       0.00508306       0.00040826 </v>
   <v>       0.00421306      -0.00167056      -0.00137928 </v>
   <v>      -0.00384429      -0.01097516       0.00970824 </v>
   <v>      -0.00454186       0.00185439       0.00024899 </v>
   <v>       0.00131266      -0.00568344      -0.00713683 </v>
   <v>      -0.00029534      -0.00373992       0.00051051 </v>
   <v>       0.00790876      -0.00229157       0.00440329 </v>
   <v>       0.00185690      -0.00369168       0.00101289 </v>
   <v>       0.00124241      -0.00424174       0.00203337 </v>
   <v>      -0.00891727       0.00640962      -0.00740415 </v>
   <v>       0.01022146       0.00043361       0.00060357 </v>
   <v>      -0.00741175      -0.00653289      -0.00232438 </v>
   <v>       0.00231296      -0.00204345       0.00378437 </v>
   <v>       0.00103459      -0.00136032      -0.00260060 </v>
   <v>      -0.00554026       0.00643497      -0.00536227 </v>
   <v>       0.00457389       0.01151298      -0.00158886 </v>
   <v>      -0.00824810       0.00325341       0.00058391 </v>
   <v>      -0.00379898       0.00911152      -0.00061871 </v>
   <v>       0.00275188       0.00275183       0.00227310 </v>
   <v>      -0.00138733      -0.00504383      -0.00436420 </v>
   <v>       0.00581471      -0.01337669       0.00024279 </v>
   <v>       0.00287870       0.00801742       0.00708259 </v>
   <v>       0.00535750       0.00388256      -0.00392498 </v>
   <v>       0.00098650       0.00009910      -0.00179644 </v>
   <v>       0.00052931       0.00881348       0.00059168 </v>
   <v>      -0.00182903       0.00322369       0.00998538 </v>
   <v>       0.00343389      -0.00876044       0.00032693 </v>
   <v>      -0.00333836      -0.00516295      -0.00357064 </v>
   <v>       0.00554277      -0.01042738      -0.00347845 </v>
   <v>      -0.00159512      -0.00136874       0.00179061 </v>
   <v>       0.00058665       0.00070936       0.00085645 </v>
   <v>      -0.00204504      -0.01291648       0.00452584 </v>
   <v>       0.00153116      -0.00192806      -0.01460295 </v>
   <v>      -0.00537868       0.00386924      -0.00349147 </v>
   <v>       0.00039401       0.00405647      -0.00140669 </v>
   <v>       0.00156852       0.00317444      -0.00003584 </v>
   <v>       0.00782915       0.00077761       0.00252816 </v>
   <v>      -0.00534567       0.00273488       0.00045101 </v>
   <v>       0.00194513      -0.00051011      -0.00008521 </v>
   <v>       0.00007222      -0.00525080       0.00053612 </v>
   <v>       0.00150125      -0.00131342      -0.00351856 </v>
   <v>       0.01278702      -0.00939234      -0.00084168 </v>
[...]
       <r>   -17.5325     5.7119    32.3817 </r>
       <r>   -17.4141     9.7823    33.5403 </r>
       <r>   -17.2956    11.1863    34.8651 </r>
       <r>   -17.1772     6.5803    35.6444 </r>
       <r>   -17.0587     6.0658    36.3628 </r>
       <r>   -16.9403     6.4823    37.1306 </r>
       <r>   -16.8219    11.1871    38.4555 </r>
       <r>   -16.7034    12.9506    39.9893 </r>
       <r>   -16.5850     8.4333    40.9881 </r>
       <r>   -16.4666     6.0781    41.7080 </r>
       <r>   -16.3481     5.2270    42.3270 </r>
       <r>   -16.2297     9.4478    43.4460 </r>
       <r>   -16.1113     5.1131    44.0515 </r>
       <r>   -15.9928     4.2244    44.5518 </r>
       <r>   -15.8744     3.5745    44.9752 </r>
       <r>   -15.7560     6.9372    45.7968 </r>
       <r>   -15.6375     3.3257    46.1907 </r>
       <r>   -15.5191     2.1848    46.4494 </r>
       <r>   -15.4007     4.6861    47.0044 </r>
       <r>   -15.2822     5.0011    47.5967 </r>
       <r>   -15.1638    11.0423    48.9045 </r>
       <r>   -15.0454     7.6467    49.8102 </r>
       <r>   -14.9269     7.0059    50.6399 </r>
       <r>   -14.8085    10.5980    51.8951 </r>
       <r>   -14.6901     7.9646    52.8384 </r>
       <r>   -14.5716     8.6077    53.8578 </r>
       <r>   -14.4532    11.2546    55.1907 </r>
       <r>   -14.3348     8.6126    56.2108 </r>
       <r>   -14.2163     8.6963    57.2407 </r>
       <r>   -14.0979     7.6619    58.1482 </r>
       <r>   -13.9795     8.7321    59.1823 </r>
       <r>   -13.8610     7.5095    60.0717 </r>
       <r>   -13.7426     6.2470    60.8116 </r>
       <r>   -13.6241     5.9817    61.5200 </r>
       <r>   -13.5057     8.5405    62.5315 </r>
       <r>   -13.3873     8.4819    63.5361 </r>
       <r>   -13.2688     7.2282    64.3921 </r>
       <r>   -13.1504     6.6823    65.1836 </r>
       <r>   -13.0320     4.7756    65.7491 </r>
       <r>   -12.9135     6.0789    66.4691 </r>
       <r>   -12.7951     7.1554    67.3165 </r>
       <r>   -12.6767     8.4325    68.3152 </r>
       <r>   -12.5582     9.4536    69.4349 </r>
       <r>   -12.4398    10.4767    70.6757 </r>
       <r>   -12.3214     7.1026    71.5169 </r>
       <r>   -12.2029     9.0366    72.5871 </r>
       <r>   -12.0845     8.7076    73.6184 </r>
       <r>   -11.9661     8.4458    74.6187 </r>
       <r>   -11.8476     8.2208    75.5923 </r>
       <r>   -11.7292    11.0508    76.9011 </r>
       <r>   -11.6108    14.9078    78.6667 </r>
       <r>   -11.4923    12.4399    80.1400 </r>
       <r>   -11.3739     7.4346    81.0205 </r>
       <r>   -11.2555     9.4837    82.1437 </r>
       <r>   -11.1370     9.8259    83.3075 </r>
       <r>   -11.0186    10.9890    84.6089 </r>
       <r>   -10.9002     8.9211    85.6655 </r>
       <r>   -10.7817     8.6452    86.6894 </r>
       <r>   -10.6633     9.0504    87.7613 </r>
       <r>   -10.5448    11.5896    89.1339 </r>
       <r>   -10.4264    10.9624    90.4322 </r>
       <r>   -10.3080    11.2641    91.7663 </r>
       <r>   -10.1895     7.9934    92.7130 </r>
       <r>   -10.0711    10.7232    93.9829 </r>
       <r>    -9.9527    20.0061    96.3524 </r>
       <r>    -9.8342    18.0474    98.4898 </r>
       <r>    -9.7158    13.0661   100.0373 </r>
       <r>    -9.5974    17.5334   102.1138 </r>
       <r>    -9.4789    18.1376   104.2619 </r>
       <r>    -9.3605    14.6523   105.9973 </r>
       <r>    -9.2421    22.6272   108.6771 </r>
       <r>    -9.1236    15.4606   110.5082 </r>
       <r>    -9.0052    22.5279   113.1763 </r>
       <r>    -8.8868    23.1604   115.9193 </r>
       <r>    -8.7683    21.1474   118.4238 </r>
       <r>    -8.6499    25.1131   121.3981 </r>
       <r>    -8.5315    20.6837   123.8478 </r>
       <r>    -8.4130    24.6446   126.7665 </r>
       <r>    -8.2946    17.3796   128.8249 </r>
       <r>    -8.1762    18.1284   130.9719 </r>
       <r>    -8.0577    18.8759   133.2075 </r>
       <r>    -7.9393    21.6075   135.7665 </r>
       <r>    -7.8209    17.9259   137.8896 </r>
       <r>    -7.7024    18.4674   140.0768 </r>
       <r>    -7.5840    17.7611   142.1803 </r>
       <r>    -7.4656    18.7132   144.3966 </r>
       <r>    -7.3471    12.8785   145.9218 </r>
       <r>    -7.2287    14.4476   147.6329 </r>
       <r>    -7.1102    18.4271   149.8153 </r>
       <r>    -6.9918    15.7760   151.6838 </r>
       <r>    -6.8734    11.8760   153.0903 </r>
       <r>    -6.7549    10.9259   154.3843 </r>
       <r>    -6.6365    17.4869   156.4554 </r>
       <r>    -6.5181    17.6653   158.5475 </r>
       <r>    -6.3996    10.8144   159.8283 </r>
       <r>    -6.2812    11.0151   161.1329 </r>
       <r>    -6.1628    13.3899   162.7187 </r>
       <r>    -6.0443    16.4325   164.6649 </r>
       <r>    -5.9259    13.1765   166.2255 </r>
       <r>    -5.8075    11.3202   167.5662 </r>
       <r>    -5.6890    16.9094   169.5688 </r>
       <r>    -5.5706    17.1319   171.5978 </r>
       <r>    -5.4522    15.9905   173.4916 </r>
       <r>    -5.3337     6.9384   174.3134 </r>
       <r>    -5.2153     6.9288   175.1340 </r>
       <r>    -5.0969     7.3175   176.0006 </r>
       <r>    -4.9784     7.3530   176.8715 </r>
       <r>    -4.8600    11.6371   178.2497 </r>
       <r>    -4.7416    11.8998   179.6591 </r>
       <r>    -4.6231     9.1181   180.7390 </r>
       <r>    -4.5047     7.8880   181.6732 </r>
       <r>    -4.3863    11.6862   183.0572 </r>
       <r>    -4.2678     8.2950   184.0397 </r>
       <r>    -4.1494     6.1859   184.7723 </r>
       <r>    -4.0309     4.6421   185.3221 </r>
       <r>    -3.9125     5.3113   185.9511 </r>
       <r>    -3.7941     3.2944   186.3413 </r>
       <r>    -3.6756     6.7422   187.1398 </r>
       <r>    -3.5572     3.0527   187.5013 </r>
       <r>    -3.4388     2.3412   187.7786 </r>
       <r>    -3.3203     4.0555   188.2589 </r>
       <r>    -3.2019     3.1605   188.6332 </r>
       <r>    -3.0835     3.9471   189.1007 </r>
       <r>    -2.9650     0.7773   189.1928 </r>
       <r>    -2.8466     1.4926   189.3695 </r>
       <r>    -2.7282     1.6816   189.5687 </r>
       <r>    -2.6097     1.5336   189.7503 </r>
       <r>    -2.4913     0.8400   189.8498 </r>
       <r>    -2.3729     1.1909   189.9909 </r>
       <r>    -2.2544     0.2353   190.0187 </r>
       <r>    -2.1360     1.3404   190.1775 </r>
       <r>    -2.0176     0.6322   190.2523 </r>
       <r>    -1.8991     1.6849   190.4519 </r>
       <r>    -1.7807     2.1609   190.7078 </r>
       <r>    -1.6623     0.9081   190.8154 </r>
       <r>    -1.5438     1.6942   191.0160 </r>
       <r>    -1.4254     4.4710   191.5455 </r>
       <r>    -1.3070     3.1812   191.9223 </r>
       <r>    -1.1885     4.8295   192.4943 </r>
       <r>    -1.0701     4.9857   193.0848 </r>
       <r>    -0.9517     5.3564   193.7192 </r>
       <r>    -0.8332     2.6976   194.0386 </r>
       <r>    -0.7148    10.3954   195.2698 </r>
       <r>    -0.5963     8.7362   196.3045 </r>
       <r>    -0.4779     8.4024   197.2996 </r>
       <r>    -0.3595    15.7755   199.1680 </r>
       <r>    -0.2410    11.0291   200.4742 </r>
       <r>    -0.1226     5.8108   201.1624 </r>
       <r>    -0.0042     3.8916   201.6233 </r>
       <r>     0.1143     6.8015   202.4288 </r>
       <r>     0.2327     9.5520   203.5601 </r>
       <r>     0.3511    11.5385   204.9267 </r>
       <r>     0.4696     4.9872   205.5173 </r>
       <r>     0.5880     9.4861   206.6408 </r>
       <r>     0.7064     5.5614   207.2995 </r>
       <r>     0.8249     5.9956   208.0096 </r>
       <r>     0.9433     7.0540   208.8450 </r>
       <r>     1.0617    11.3472   210.1889 </r>
       <r>     1.1802    12.5346   211.6734 </r>
       <r>     1.2986     7.1190   212.5166 </r>
       <r>     1.4170    10.6309   213.7756 </r>
       <r>     1.5355    11.0667   215.0863 </r>
       <r>     1.6539    12.8578   216.6091 </r>
       <r>     1.7723    14.5593   218.3334 </r>
       <r>     1.8908    11.9350   219.7470 </r>
       <r>     2.0092    16.3407   221.6823 </r>
       <r>     2.1276    15.1753   223.4796 </r>
       <r>     2.2461    16.3506   225.4160 </r>
       <r>     2.3645    20.7974   227.8792 </r>
       <r>     2.4830    21.8517   230.4672 </r>
       <r>     2.6014    23.0350   233.1953 </r>
       <r>     2.7198    17.6307   235.2834 </r>
       <r>     2.8383    23.1170   238.0212 </r>
       <r>     2.9567    14.8330   239.7780 </r>
       <r>     3.0751     1.8570   239.9979 </r>
       <r>     3.1936     0.0176   240.0000 </r>
       <r>     3.3120     0.0000   240.0000 </r>
       <r>     3.4304     0.0000   240.0000 </r>
       <r>     3.5489     0.0000   240.0000 </r>
       <r>     3.6673     0.0000   240.0000 </r>
       <r>     3.7857     0.0000   240.0000 </r>
       <r>     3.9042     0.0000   240.0000 </r>
       <r>     4.0226     0.0000   240.0000 </r>
       <r>     4.1410     0.0000   240.0000 </r>
       <r>     4.2595     0.0000   240.0000 </r>
       <r>     4.3779     0.0000   240.0000 </r>
       <r>     4.4963     0.0000   240.0000 </r>
       <r>     4.6148     0.0000   240.0000 </r>
      </set>
     </set>
    </array>
   </total>
  </dos>
 </calculation>
 <structure name="finalpos" >
  <crystal>
   <varray name="basis" >
    <v>      17.27103806       0.00000000       0.00000000 </v>
    <v>      -8.63551903      14.95715771       0.00000000 </v>
    <v>       0.00000000       0.00000000      15.00000000 </v>
   </varray>
   <i name="volume">   3874.88459904 </i>
   <varray name="rec_basis" >
    <v>       0.05790040       0.03342881      -0.00000000 </v>
    <v>       0.00000000       0.06685762       0.00000000 </v>
    <v>       0.00000000      -0.00000000       0.06666667 </v>
   </varray>
  </crystal>
  <varray name="positions" >
   <v>       0.99997612       0.99996451       0.50077580 </v>
   <v>       0.99949077       0.14251857       0.50008184 </v>
   <v>       0.99928176       0.28534606       0.49849012 </v>
   <v>       0.99946389       0.42841444       0.49687185 </v>
   <v>       0.00004541       0.57151721       0.49681997 </v>
   <v>       0.00111612       0.71479629       0.49835818 </v>
   <v>       0.00101333       0.85786074       0.50045667 </v>
   <v>       0.14326597       0.00054181       0.49995042 </v>
   <v>       0.14286970       0.14321727       0.50257017 </v>
   <v>       0.14162545       0.28507536       0.50438522 </v>
   <v>       0.14150754       0.42825683       0.50191043 </v>
   <v>       0.14256137       0.57128936       0.49823277 </v>
   <v>       0.14317716       0.71437952       0.49651435 </v>
   <v>       0.14335394       0.85754643       0.49718974 </v>
   <v>       0.28570826      -0.00002738       0.49776493 </v>
   <v>       0.28577908       0.14283149       0.50347242 </v>
   <v>       0.28600215       0.28671292       0.51280706 </v>
   <v>       0.28228296       0.42820275       0.51656631 </v>
   <v>       0.28530620       0.57038246       0.50637617 </v>
   <v>       0.28553980       0.71450836       0.49856092 </v>
   <v>       0.28567857       0.85744335       0.49605976 </v>
   <v>       0.42866416       0.00006107       0.49618858 </v>
   <v>       0.42847081       0.14236085       0.49841432 </v>
   <v>       0.42733658       0.28211455       0.50244538 </v>
   <v>       0.42666516       0.71595048       0.49924331 </v>
   <v>       0.42828325       0.85733501       0.49670877 </v>
   <v>       0.57128802       0.00039710       0.49662181 </v>
   <v>       0.57138277       0.14264877       0.49619100 </v>
   <v>       0.57227319       0.28597343       0.49766846 </v>
   <v>       0.57202174       0.85818387       0.49880000 </v>
   <v>       0.71418841       0.99996792       0.49964196 </v>
   <v>       0.71432953       0.14286185       0.49622793 </v>
   <v>       0.71431631       0.28569928       0.49671493 </v>
   <v>       0.71379595       0.42775406       0.50145872 </v>
   <v>       0.71818880       0.57318340       0.51633937 </v>
   <v>       0.72099287       0.71648320       0.52402010 </v>
   <v>       0.71312382       0.85713906       0.50737389 </v>
   <v>       0.85699598       0.99992505       0.50226675 </v>
   <v>       0.85674840       0.14262431       0.49813625 </v>
   <v>       0.85680803       0.28545476       0.49632374 </v>
   <v>       0.85719004       0.42853307       0.49781975 </v>
   <v>       0.85783318       0.57188676       0.50173771 </v>
   <v>       0.85977920       0.71540933       0.50662802 </v>
   <v>       0.85751322       0.85692295       0.50582910 </v>
   <v>       0.04757472       0.09533816       0.50078977 </v>
   <v>       0.04652465       0.23742105       0.50047014 </v>
   <v>       0.04641793       0.38049555       0.49841435 </v>
   <v>       0.04747799       0.52375630       0.49684466 </v>
   <v>       0.04805518       0.66686318       0.49679594 </v>
   <v>       0.04826508       0.80994374       0.49847664 </v>
   <v>       0.04805022       0.95276753       0.50013284 </v>
   <v>       0.19055990       0.09536634       0.50241131 </v>
   <v>       0.19002728       0.23837479       0.50588993 </v>
   <v>       0.18776377       0.37989137       0.50671740 </v>
   <v>       0.18969012       0.52340729       0.50176193 </v>
   <v>       0.19035094       0.66675740       0.49777949 </v>
   <v>       0.19073685       0.80983609       0.49632068 </v>
   <v>       0.19080248       0.95265992       0.49824661 </v>
   <v>       0.33336460       0.09533637       0.49972775 </v>
   <v>       0.33442607       0.23818174       0.50729088 </v>
   <v>       0.32652984       0.37880385       0.52410705 </v>
   <v>       0.32932728       0.52212982       0.51654923 </v>
   <v>       0.33375299       0.66754400       0.50137501 </v>
   <v>       0.33323427       0.80960049       0.49671763 </v>
   <v>       0.33321806       0.95244399       0.49629936 </v>
   <v>       0.47627147       0.09492833       0.49668301 </v>
   <v>       0.47552597       0.23715698       0.49877886 </v>
   <v>       0.47528071       0.80934891       0.49757274 </v>
   <v>       0.47617447       0.95267550       0.49619928 </v>
   <v>       0.61888893       0.09526118       0.49611280 </v>
   <v>       0.61927525       0.23798328       0.49672644 </v>
   <v>       0.62088244       0.37936544       0.49950693 </v>
   <v>       0.62019827       0.81322779       0.50271811 </v>
   <v>       0.61908702       0.95296582       0.49834472 </v>
   <v>       0.76183583       0.09532244       0.49766931 </v>
   <v>       0.76187272       0.23785762       0.49603400 </v>
   <v>       0.76201016       0.38078462       0.49858896 </v>
   <v>       0.76221941       0.52491603       0.50632356 </v>
   <v>       0.76524973       0.66710889       0.51638947 </v>
   <v>       0.76153452       0.80858189       0.51281803 </v>
   <v>       0.76178449       0.95248415       0.50338934 </v>
   <v>       0.90428343       0.09473834       0.49982646 </v>
   <v>       0.90419607       0.23774517       0.49715990 </v>
   <v>       0.90435303       0.38090262       0.49657141 </v>
   <v>       0.90496318       0.52399695       0.49823938 </v>
   <v>       0.90602584       0.66703592       0.50185569 </v>
   <v>       0.90591243       0.81021951       0.50431841 </v>
   <v>       0.90468197       0.95208060       0.50246322 </v>
   <v>       0.46374589       0.35417955       0.50166842 </v>
   <v>       0.40157512       0.55552656       0.52290046 </v>
   <v>       0.64592260       0.53980951       0.52254454 </v>
   <v>       0.58492647       0.41596816       0.49930304 </v>
   <v>       0.58373580       0.74114755       0.50233045 </v>
   <v>       0.46259383       0.67933167       0.49881568 </v>
   <v>       0.57132991       0.58789606       0.35569834 </v>
   <v>       0.47706359       0.50528024       0.35557307 </v>
   <v>       0.41575416       0.42920398       0.54272763 </v>
   <v>       0.63177004       0.66603559       0.54258432 </v>
   <v>       0.52400762       0.54676299       0.39533618 </v>
  </varray>
  <varray name="selective"  type="logical" >
   <v type="logical" >  T  T  T </v>
   <v type="logical" >  T  T  T </v>
   <v type="logical" >  T  T  T </v>
   <v type="logical" >  T  T  T </v>
   <v type="logical" >  T  T  T </v>
   <v type="logical" >  T  T  T </v>
   <v type="logical" >  T  T  T </v>
   <v type="logical" >  T  T  T </v>
   <v type="logical" >  T  T  T </v>
   <v type="logical" >  T  T  T </v>
   <v type="logical" >  T  T  T </v>
   <v type="logical" >  T  T  T </v>
   <v type="logical" >  T  T  T </v>
   <v type="logical" >  T  T  T </v>
   <v type="logical" >  T  T  T </v>
   <v type="logical" >  T  T  T </v>
   <v type="logical" >  T  T  T </v>
   <v type="logical" >  T  T  T </v>
   <v type="logical" >  T  T  T </v>
   <v type="logical" >  T  T  T </v>
   <v type="logical" >  T  T  T </v>
   <v type="logical" >  T  T  T </v>
   <v type="logical" >  T  T  T </v>
   <v type="logical" >  T  T  T </v>
   <v type="logical" >  T  T  T </v>
   <v type="logical" >  T  T  T </v>
   <v type="logical" >  T  T  T </v>
   <v type="logical" >  T  T  T </v>
   <v type="logical" >  T  T  T </v>
   <v type="logical" >  T  T  T </v>
   <v type="logical" >  T  T  T </v>
   <v type="logical" >  T  T  T </v>
   <v type="logical" >  T  T  T </v>
   <v type="logical" >  T  T  T </v>
   <v type="logical" >  T  T  T </v>
   <v type="logical" >  T  T  T </v>
   <v type="logical" >  T  T  T </v>
   <v type="logical" >  T  T  T </v>
   <v type="logical" >  T  T  T </v>
   <v type="logical" >  T  T  T </v>
   <v type="logical" >  T  T  T </v>
   <v type="logical" >  T  T  T </v>
   <v type="logical" >  T  T  T </v>
   <v type="logical" >  T  T  T </v>
   <v type="logical" >  T  T  T </v>
   <v type="logical" >  T  T  T </v>
   <v type="logical" >  T  T  T </v>
   <v type="logical" >  T  T  T </v>
   <v type="logical" >  T  T  T </v>
   <v type="logical" >  T  T  T </v>
   <v type="logical" >  T  T  T </v>
   <v type="logical" >  T  T  T </v>
   <v type="logical" >  T  T  T </v>
   <v type="logical" >  T  T  T </v>
   <v type="logical" >  T  T  T </v>
   <v type="logical" >  T  T  T </v>
   <v type="logical" >  T  T  T </v>
   <v type="logical" >  T  T  T </v>
   <v type="logical" >  T  T  T </v>
   <v type="logical" >  T  T  T </v>
   <v type="logical" >  T  T  T </v>
   <v type="logical" >  T  T  T </v>
   <v type="logical" >  T  T  T </v>
   <v type="logical" >  T  T  T </v>
   <v type="logical" >  T  T  T </v>
   <v type="logical" >  T  T  T </v>
   <v type="logical" >  T  T  T </v>
   <v type="logical" >  T  T  T </v>
   <v type="logical" >  T  T  T </v>
   <v type="logical" >  T  T  T </v>
   <v type="logical" >  T  T  T </v>
   <v type="logical" >  T  T  T </v>
   <v type="logical" >  T  T  T </v>
   <v type="logical" >  T  T  T </v>
   <v type="logical" >  T  T  T </v>
   <v type="logical" >  T  T  T </v>
   <v type="logical" >  T  T  T </v>
   <v type="logical" >  T  T  T </v>
   <v type="logical" >  T  T  T </v>
   <v type="logical" >  T  T  T </v>
   <v type="logical" >  T  T  T </v>
   <v type="logical" >  T  T  T </v>
   <v type="logical" >  T  T  T </v>
   <v type="logical" >  T  T  T </v>
   <v type="logical" >  T  T  T </v>
   <v type="logical" >  T  T  T </v>
   <v type="logical" >  T  T  T </v>
   <v type="logical" >  T  T  T </v>
   <v type="logical" >  T  T  T </v>
   <v type="logical" >  T  T  T </v>
   <v type="logical" >  T  T  T </v>
   <v type="logical" >  T  T  T </v>
   <v type="logical" >  T  T  T </v>
   <v type="logical" >  T  T  T </v>
   <v type="logical" >  T  T  T </v>
   <v type="logical" >  T  T  T </v>
   <v type="logical" >  T  T  T </v>
   <v type="logical" >  T  T  T </v>
   <v type="logical" >  T  T  F </v>
  </varray>
  <nose>
   <v>      -3.00000000       0.00000000       0.00010000       0.00010000 </v>
  </nose>
 </structure>
</modeling>
