unknown system                          
            1
    17.271038    0.000000    0.000000
    -8.635519   14.957158    0.000000
     0.000000    0.000000   15.000000
   C    H    F    O 
    88     8     2     1
Direct configuration=     1
   0.99994088  0.99994326  0.49879109
   0.99947460  0.14252828  0.49836914
   0.99925916  0.28539508  0.49726894
   0.99950212  0.42847731  0.49562123
   0.00011358  0.57156223  0.49568691
   0.00112755  0.71477371  0.49774138
   0.00103769  0.85787314  0.49921141
   0.14325392  0.00055472  0.49849460
   0.14282390  0.14321833  0.50079235
   0.14158454  0.28509620  0.50300125
   0.14150177  0.42827718  0.50102428
   0.14259568  0.57130721  0.49735672
   0.14321488  0.71441668  0.49607646
   0.14338996  0.85757010  0.49663929
   0.28575411  0.00003831  0.49753448
   0.28571938  0.14284937  0.50271255
   0.28589990  0.28666583  0.51226685
   0.28216397  0.42814656  0.51648488
   0.28528574  0.57037626  0.50655211
   0.28555733  0.71450440  0.49866013
   0.28570051  0.85744731  0.49624704
   0.42863370  0.00001509  0.49628964
   0.42847857  0.14229915  0.49852251
   0.42731729  0.28203561  0.50334781
   0.42669000  0.71592002  0.50020144
   0.42826630  0.85732258  0.49715320
   0.57128354  0.00036367  0.49675558
   0.57138704  0.14264138  0.49652331
   0.57224450  0.28595172  0.49826090
   0.57201710  0.85817346  0.49927798
   0.71418665  0.99998493  0.49932691
   0.71427755  0.14281964  0.49631254
   0.71429331  0.28564965  0.49702630
   0.71379028  0.42772568  0.50196265
   0.71839375  0.57315114  0.51741099
   0.72116874  0.71650768  0.52390513
   0.71321122  0.85717978  0.50714904
   0.85699567  0.99993118  0.50121657
   0.85673167  0.14264520  0.49740089
   0.85677992  0.28547025  0.49590334
   0.85717890  0.42852778  0.49731767
   0.85793487  0.57189105  0.50164284
   0.85986661  0.71541923  0.50632432
   0.85753498  0.85690968  0.50487916
   0.04752467  0.09531603  0.49875305
   0.04649503  0.23745936  0.49893483
   0.04644172  0.38056756  0.49725726
   0.04754983  0.52381696  0.49558397
   0.04806702  0.66688726  0.49604314
   0.04828977  0.80994638  0.49761511
   0.04804405  0.95278211  0.49839215
   0.19056618  0.09541414  0.50091271
   0.18996909  0.23836842  0.50454553
   0.18772501  0.37987332  0.50593219
   0.18970158  0.52344304  0.50120632
   0.19042209  0.66682757  0.49729372
   0.19077516  0.80985677  0.49614575
   0.19081626  0.95271121  0.49754714
   0.33336142  0.09537740  0.49941906
   0.33434007  0.23817050  0.50710482
   0.32636995  0.37873971  0.52392762
   0.32920785  0.52207981  0.51696330
   0.33376378  0.66751419  0.50186969
   0.33321786  0.80960587  0.49701644
   0.33325474  0.95246587  0.49641745
   0.47624732  0.09491648  0.49682219
   0.47551126  0.23713354  0.49936131
   0.47528720  0.80930124  0.49831950
   0.47611897  0.95258579  0.49646263
   0.61888503  0.09523427  0.49632596
   0.61924790  0.23793109  0.49719984
   0.62086563  0.37934325  0.50004643
   0.62024944  0.81330101  0.50314884
   0.61907744  0.95301317  0.49843540
   0.76180594  0.09530307  0.49731382
   0.76182316  0.23783573  0.49609534
   0.76199494  0.38076583  0.49875292
   0.76231063  0.52487481  0.50689219
   0.76538504  0.66710665  0.51661338
   0.76159025  0.80860682  0.51237226
   0.76182431  0.95251956  0.50285521
   0.90426767  0.09479787  0.49862138
   0.90417512  0.23778102  0.49634626
   0.90435247  0.38092233  0.49577438
   0.90503035  0.52405962  0.49752967
   0.90608080  0.66704447  0.50160366
   0.90594201  0.81019834  0.50341964
   0.90466153  0.95205199  0.50107275
   0.46382146  0.35409532  0.50357558
   0.40138991  0.55543778  0.52373437
   0.64619129  0.53973976  0.52422539
   0.58498351  0.41601084  0.49973928
   0.58377597  0.74123777  0.50322530
   0.46259281  0.67930147  0.50027114
   0.56677168  0.59274254  0.35568647
   0.48098012  0.50080516  0.35560066
   0.41551654  0.42901549  0.54280163
   0.63195662  0.66608398  0.54264421
   0.52413681  0.54651873  0.39533618
Direct configuration=     2
   0.99994197  0.99994469  0.49880635
   0.99947600  0.14253994  0.49837414
   0.99926206  0.28539524  0.49727244
   0.99949602  0.42847214  0.49563150
   0.00010601  0.57156342  0.49570220
   0.00113921  0.71479514  0.49774390
   0.00103185  0.85786637  0.49921286
   0.14326381  0.00057324  0.49849901
   0.14282601  0.14322149  0.50079139
   0.14158993  0.28508885  0.50300681
   0.14151169  0.42828725  0.50102559
   0.14260803  0.57132645  0.49735750
   0.14321378  0.71441809  0.49606815
   0.14338764  0.85757002  0.49663643
   0.28573878  0.00002507  0.49752836
   0.28573301  0.14285225  0.50271093
   0.28589880  0.28668348  0.51226472
   0.28216103  0.42814957  0.51647177
   0.28527478  0.57037145  0.50655139
   0.28556982  0.71451472  0.49865968
   0.28569669  0.85745335  0.49623871
   0.42865279  0.00002599  0.49629818
   0.42847033  0.14233274  0.49852331
   0.42731059  0.28203917  0.50333943
   0.42668109  0.71592203  0.50020518
   0.42826398  0.85729837  0.49715454
   0.57126107  0.00036807  0.49676139
   0.57137244  0.14262801  0.49652308
   0.57225053  0.28594887  0.49826340
   0.57202599  0.85819304  0.49927905
   0.71418578  0.99997823  0.49933136
   0.71429399  0.14283575  0.49630670
   0.71429050  0.28566018  0.49702435
   0.71379333  0.42772568  0.50196087
   0.71839224  0.57316555  0.51740036
   0.72115592  0.71651677  0.52391001
   0.71319786  0.85717968  0.50714886
   0.85700246  0.99994560  0.50121123
   0.85672821  0.14265238  0.49739673
   0.85677572  0.28546784  0.49589664
   0.85718731  0.42854265  0.49732028
   0.85791554  0.57189201  0.50163745
   0.85985308  0.71541259  0.50632637
   0.85753409  0.85690854  0.50487904
   0.04753307  0.09532220  0.49876014
   0.04649899  0.23745675  0.49893295
   0.04643082  0.38055051  0.49725414
   0.04753468  0.52380678  0.49558688
   0.04808667  0.66688746  0.49604284
   0.04829247  0.80994782  0.49762123
   0.04804219  0.95277694  0.49839754
   0.19054225  0.09539558  0.50091628
   0.18996718  0.23836677  0.50455037
   0.18771974  0.37988291  0.50593248
   0.18970190  0.52343115  0.50120565
   0.19039642  0.66680023  0.49730143
   0.19077202  0.80985907  0.49614746
   0.19082021  0.95270072  0.49754218
   0.33336445  0.09537076  0.49941971
   0.33435051  0.23816399  0.50710820
   0.32636478  0.37872157  0.52392741
   0.32919913  0.52206886  0.51696525
   0.33376493  0.66752722  0.50186339
   0.33323102  0.80960499  0.49701751
   0.33323593  0.95245500  0.49641609
   0.47626126  0.09489964  0.49682392
   0.47551105  0.23711234  0.49935927
   0.47528101  0.80931465  0.49831476
   0.47614363  0.95261729  0.49646032
   0.61887042  0.09523315  0.49632632
   0.61924997  0.23794778  0.49719951
   0.62087068  0.37934739  0.50004792
   0.62025378  0.81329547  0.50314605
   0.61907636  0.95297776  0.49843535
   0.76181688  0.09531455  0.49731947
   0.76183579  0.23783433  0.49609354
   0.76199400  0.38075925  0.49875160
   0.76232769  0.52488382  0.50689288
   0.76539588  0.66710475  0.51661933
   0.76159563  0.80859138  0.51237313
   0.76181674  0.95250943  0.50285276
   0.90426644  0.09477036  0.49861940
   0.90417060  0.23777734  0.49634808
   0.90435622  0.38092431  0.49577444
   0.90502732  0.52403307  0.49753161
   0.90608075  0.66703299  0.50159267
   0.90594390  0.81021019  0.50341651
   0.90466587  0.95205710  0.50107087
   0.46382361  0.35409702  0.50357577
   0.40140079  0.55544137  0.52373646
   0.64618824  0.53974052  0.52422606
   0.58498435  0.41601031  0.49973914
   0.58377463  0.74123484  0.50322576
   0.46259634  0.67929770  0.50026867
   0.56677681  0.59273758  0.35568471
   0.48097867  0.50081275  0.35560135
   0.41552264  0.42902507  0.54280673
   0.63195506  0.66608675  0.54264374
   0.52413343  0.54651581  0.39533618
Direct configuration=     3
   0.99994237  0.99994523  0.49881209
   0.99947652  0.14254433  0.49837603
   0.99926315  0.28539529  0.49727376
   0.99949372  0.42847019  0.49563537
   0.00010316  0.57156387  0.49570795
   0.00114359  0.71480320  0.49774485
   0.00102965  0.85786382  0.49921341
   0.14326754  0.00058022  0.49850067
   0.14282680  0.14322268  0.50079104
   0.14159196  0.28508609  0.50300890
   0.14151542  0.42829104  0.50102609
   0.14261268  0.57133369  0.49735779
   0.14321337  0.71441862  0.49606502
   0.14338676  0.85756999  0.49663535
   0.28573301  0.00002008  0.49752606
   0.28573814  0.14285333  0.50271032
   0.28589839  0.28669012  0.51226392
   0.28215992  0.42815071  0.51646684
   0.28527066  0.57036963  0.50655112
   0.28557452  0.71451860  0.49865952
   0.28569525  0.85745562  0.49623558
   0.42865997  0.00003010  0.49630139
   0.42846723  0.14234539  0.49852362
   0.42730806  0.28204051  0.50333627
   0.42667773  0.71592278  0.50020659
   0.42826310  0.85728925  0.49715505
   0.57125262  0.00036973  0.49676358
   0.57136694  0.14262298  0.49652300
   0.57225280  0.28594779  0.49826434
   0.57202934  0.85820041  0.49927945
   0.71418545  0.99997572  0.49933304
   0.71430018  0.14284181  0.49630451
   0.71428945  0.28566414  0.49702362
   0.71379448  0.42772568  0.50196019
   0.71839166  0.57317098  0.51739635
   0.72115110  0.71652019  0.52391184
   0.71319283  0.85717965  0.50714879
   0.85700502  0.99995103  0.50120922
   0.85672691  0.14265508  0.49739516
   0.85677414  0.28546693  0.49589412
   0.85719048  0.42854825  0.49732126
   0.85790826  0.57189237  0.50163542
   0.85984798  0.71541009  0.50632715
   0.85753376  0.85690810  0.50487900
   0.04753623  0.09532453  0.49876281
   0.04650048  0.23745577  0.49893223
   0.04642672  0.38054409  0.49725297
   0.04752897  0.52380294  0.49558797
   0.04809407  0.66688753  0.49604273
   0.04829348  0.80994837  0.49762353
   0.04804149  0.95277499  0.49839957
   0.19053324  0.09538860  0.50091763
   0.18996646  0.23836615  0.50455220
   0.18771776  0.37988652  0.50593259
   0.18970202  0.52342668  0.50120540
   0.19038676  0.66678994  0.49730434
   0.19077084  0.80985993  0.49614810
   0.19082169  0.95269676  0.49754032
   0.33336559  0.09536827  0.49941995
   0.33435444  0.23816154  0.50710947
   0.32636284  0.37871474  0.52392734
   0.32919585  0.52206474  0.51696598
   0.33376537  0.66753213  0.50186102
   0.33323598  0.80960466  0.49701792
   0.33322885  0.95245091  0.49641558
   0.47626652  0.09489330  0.49682458
   0.47551097  0.23710436  0.49935850
   0.47527868  0.80931970  0.49831298
   0.47615291  0.95262914  0.49645946
   0.61886492  0.09523273  0.49632645
   0.61925076  0.23795407  0.49719939
   0.62087258  0.37934894  0.50004848
   0.62025542  0.81329338  0.50314499
   0.61907595  0.95296443  0.49843532
   0.76182099  0.09531887  0.49732160
   0.76184055  0.23783381  0.49609286
   0.76199365  0.38075678  0.49875111
   0.76233411  0.52488721  0.50689314
   0.76539996  0.66710404  0.51662157
   0.76159766  0.80858556  0.51237346
   0.76181389  0.95250562  0.50285184
   0.90426597  0.09476001  0.49861865
   0.90416890  0.23777595  0.49634876
   0.90435764  0.38092506  0.49577446
   0.90502618  0.52402307  0.49753235
   0.90608074  0.66702867  0.50158854
   0.90594461  0.81021465  0.50341532
   0.90466751  0.95205903  0.50107016
   0.46382442  0.35409767  0.50357584
   0.40140489  0.55544273  0.52373725
   0.64618709  0.53974081  0.52422631
   0.58498467  0.41601011  0.49973908
   0.58377413  0.74123374  0.50322594
   0.46259766  0.67929628  0.50026774
   0.56677875  0.59273571  0.35568405
   0.48097812  0.50081560  0.35560161
   0.41552494  0.42902867  0.54280865
   0.63195448  0.66608779  0.54264356
   0.52413216  0.54651472  0.39533618
Direct configuration=     4
   0.99994575  0.99994682  0.49882855
   0.99947883  0.14254456  0.49838123
   0.99926303  0.28539188  0.49727686
   0.99948795  0.42846191  0.49564583
   0.00009913  0.57155893  0.49572395
   0.00115378  0.71480867  0.49774677
   0.00102744  0.85786364  0.49921522
   0.14326714  0.00057820  0.49850521
   0.14282621  0.14322359  0.50079125
   0.14159385  0.28508522  0.50301474
   0.14150968  0.42828916  0.50102637
   0.14260548  0.57132838  0.49735897
   0.14321426  0.71441650  0.49605746
   0.14338598  0.85756863  0.49663279
   0.28572581  0.00000901  0.49751919
   0.28573647  0.14284396  0.50270929
   0.28589884  0.28668866  0.51226068
   0.28215548  0.42814652  0.51645389
   0.28526496  0.57036773  0.50655032
   0.28557069  0.71452045  0.49865926
   0.28569413  0.85745650  0.49622724
   0.42866201  0.00003123  0.49631012
   0.42846775  0.14234386  0.49852366
   0.42731302  0.28203964  0.50332658
   0.42668112  0.71592846  0.50020949
   0.42826922  0.85729563  0.49715540
   0.57125493  0.00037138  0.49676967
   0.57136434  0.14262368  0.49652282
   0.57225695  0.28594982  0.49826709
   0.57202994  0.85819644  0.49928009
   0.71418601  0.99997005  0.49933782
   0.71430419  0.14284811  0.49629906
   0.71429048  0.28566703  0.49702109
   0.71380178  0.42772892  0.50195874
   0.71839246  0.57317717  0.51738436
   0.72114603  0.71651904  0.52391729
   0.71318986  0.85717357  0.50714901
   0.85700383  0.99994682  0.50120369
   0.85672991  0.14265233  0.49739160
   0.85677823  0.28546942  0.49588727
   0.85719426  0.42854728  0.49732390
   0.85790593  0.57188610  0.50162791
   0.85984996  0.71540937  0.50632758
   0.85753778  0.85691326  0.50487769
   0.04754081  0.09533288  0.49877167
   0.04650599  0.23745659  0.49893154
   0.04642435  0.38053645  0.49725111
   0.04752470  0.52380203  0.49559338
   0.04810086  0.66689400  0.49604332
   0.04829357  0.80995100  0.49762997
   0.04804175  0.95277261  0.49840673
   0.19053342  0.09538945  0.50092204
   0.18996804  0.23836700  0.50455674
   0.18771664  0.37988893  0.50593290
   0.18970456  0.52342809  0.50120425
   0.19038487  0.66678649  0.49731164
   0.19076876  0.80986111  0.49614792
   0.19081903  0.95269401  0.49753477
   0.33336275  0.09536626  0.49942028
   0.33435714  0.23816101  0.50711283
   0.32636384  0.37871585  0.52392837
   0.32919707  0.52206347  0.51696743
   0.33376077  0.66753497  0.50185555
   0.33324128  0.80960536  0.49701822
   0.33322444  0.95244751  0.49641372
   0.47626383  0.09489565  0.49682774
   0.47551127  0.23710856  0.49935655
   0.47527876  0.80932238  0.49830907
   0.47615578  0.95263202  0.49645852
   0.61886343  0.09523617  0.49632692
   0.61925144  0.23795850  0.49719888
   0.62087489  0.37935049  0.50005026
   0.62025068  0.81328998  0.50314153
   0.61907466  0.95296072  0.49843557
   0.76182438  0.09532358  0.49732693
   0.76184362  0.23783793  0.49608958
   0.76199480  0.38075858  0.49874973
   0.76233438  0.52489338  0.50689355
   0.76539714  0.66710764  0.51662961
   0.76159495  0.80858113  0.51237355
   0.76181067  0.95250326  0.50284906
   0.90426591  0.09475706  0.49861584
   0.90416812  0.23777566  0.49635001
   0.90435748  0.38092526  0.49577526
   0.90501907  0.52401753  0.49753617
   0.90608112  0.66702973  0.50157740
   0.90594156  0.81021537  0.50341279
   0.90466861  0.95206161  0.50106929
   0.46382672  0.35410030  0.50357576
   0.40140901  0.55544257  0.52373913
   0.64618471  0.53974321  0.52422658
   0.58498583  0.41600975  0.49973903
   0.58377201  0.74122944  0.50322632
   0.46259741  0.67929595  0.50026500
   0.56678359  0.59272799  0.35568364
   0.48097313  0.50082154  0.35560003
   0.41552651  0.42903528  0.54281349
   0.63194976  0.66609012  0.54264350
   0.52413283  0.54651627  0.39533618
Direct configuration=     5
   0.99995441  0.99995091  0.49887076
   0.99948473  0.14254514  0.49839456
   0.99926272  0.28538315  0.49728478
   0.99947314  0.42844069  0.49567262
   0.00008881  0.57154626  0.49576494
   0.00117991  0.71482268  0.49775168
   0.00102177  0.85786317  0.49921987
   0.14326613  0.00057304  0.49851686
   0.14282468  0.14322591  0.50079181
   0.14159869  0.28508300  0.50302971
   0.14149498  0.42828434  0.50102710
   0.14258701  0.57131480  0.49736198
   0.14321656  0.71441108  0.49603809
   0.14338395  0.85756516  0.49662622
   0.28570736 -0.00001935  0.49750159
   0.28573220  0.14281996  0.50270667
   0.28589998  0.28668492  0.51225235
   0.28214408  0.42813578  0.51642071
   0.28525036  0.57036286  0.50654826
   0.28556086  0.71452518  0.49865858
   0.28569124  0.85745875  0.49620587
   0.42866723  0.00003414  0.49633250
   0.42846907  0.14233995  0.49852376
   0.42732574  0.28203742  0.50330176
   0.42668978  0.71594303  0.50021694
   0.42828490  0.85731198  0.49715629
   0.57126086  0.00037559  0.49678528
   0.57135768  0.14262549  0.49652237
   0.57226758  0.28595503  0.49827414
   0.57203149  0.85818627  0.49928172
   0.71418745  0.99995554  0.49935007
   0.71431448  0.14286424  0.49628508
   0.71429312  0.28567445  0.49701460
   0.71382049  0.42773724  0.50195501
   0.71839450  0.57319303  0.51735361
   0.72113306  0.71651608  0.52393124
   0.71318225  0.85715798  0.50714958
   0.85700079  0.99993602  0.50118951
   0.85673761  0.14264528  0.49738246
   0.85678872  0.28547580  0.49586972
   0.85720394  0.42854478  0.49733064
   0.85789997  0.57187004  0.50160863
   0.85985504  0.71540752  0.50632869
   0.85754809  0.85692649  0.50487433
   0.04755254  0.09535428  0.49879436
   0.04652010  0.23745870  0.49892975
   0.04641829  0.38051684  0.49724635
   0.04751377  0.52379969  0.49560723
   0.04811826  0.66691060  0.49604482
   0.04829378  0.80995774  0.49764648
   0.04804239  0.95276652  0.49842509
   0.19053390  0.09539164  0.50093337
   0.18997209  0.23836919  0.50456839
   0.18771375  0.37989510  0.50593371
   0.18971105  0.52343171  0.50120131
   0.19038003  0.66677765  0.49733037
   0.19076344  0.80986414  0.49614744
   0.19081221  0.95268694  0.49752056
   0.33335549  0.09536111  0.49942111
   0.33436407  0.23815965  0.50712143
   0.32636640  0.37871870  0.52393100
   0.32920019  0.52206022  0.51697117
   0.33374899  0.66754225  0.50184154
   0.33325488  0.80960717  0.49701901
   0.33321315  0.95243877  0.49640893
   0.47625695  0.09490168  0.49683587
   0.47551204  0.23711931  0.49935154
   0.47527899  0.80932925  0.49829904
   0.47616312  0.95263939  0.49645612
   0.61885962  0.09524497  0.49632812
   0.61925319  0.23796985  0.49719759
   0.62088081  0.37935444  0.50005482
   0.62023853  0.81328128  0.50313265
   0.61907135  0.95295120  0.49843619
   0.76183305  0.09533566  0.49734057
   0.76185151  0.23784851  0.49608118
   0.76199776  0.38076320  0.49874621
   0.76233506  0.52490919  0.50689459
   0.76538993  0.66711689  0.51665020
   0.76158800  0.80856978  0.51237379
   0.76180239  0.95249721  0.50284193
   0.90426576  0.09474950  0.49860863
   0.90416614  0.23777492  0.49635322
   0.90435707  0.38092577  0.49577732
   0.90500084  0.52400335  0.49754597
   0.90608212  0.66703246  0.50154886
   0.90593372  0.81021722  0.50340630
   0.90467145  0.95206823  0.50106707
   0.46383261  0.35410706  0.50357554
   0.40141960  0.55544217  0.52374397
   0.64617859  0.53974936  0.52422728
   0.58498881  0.41600884  0.49973891
   0.58376657  0.74121844  0.50322732
   0.46259675  0.67929513  0.50025798
   0.56679599  0.59270820  0.35568259
   0.48096034  0.50083677  0.35559596
   0.41553051  0.42905222  0.54282588
   0.63193765  0.66609611  0.54264334
   0.52413457  0.54652026  0.39533618
Direct configuration=     6
   0.99995822  0.99995486  0.49888585
   0.99948604  0.14254572  0.49839920
   0.99926253  0.28537841  0.49728693
   0.99947179  0.42843694  0.49568158
   0.00008649  0.57154678  0.49577914
   0.00118217  0.71482445  0.49775282
   0.00101949  0.85786260  0.49922206
   0.14326531  0.00057156  0.49852126
   0.14282758  0.14322870  0.50079372
   0.14160116  0.28508516  0.50303509
   0.14149264  0.42828310  0.50102710
   0.14258348  0.57131125  0.49736391
   0.14321916  0.71441145  0.49603281
   0.14338201  0.85756446  0.49662440
   0.28570498 -0.00002208  0.49749512
   0.28573163  0.14281856  0.50270699
   0.28590381  0.28668429  0.51225075
   0.28214465  0.42813583  0.51641042
   0.28525190  0.57036398  0.50654763
   0.28555888  0.71452583  0.49865868
   0.28569120  0.85745630  0.49619888
   0.42866500  0.00003417  0.49633994
   0.42846720  0.14233956  0.49852408
   0.42732734  0.28204014  0.50329365
   0.42668759  0.71594408  0.50021849
   0.42828797  0.85731683  0.49715590
   0.57126532  0.00037770  0.49679037
   0.57135737  0.14262940  0.49652236
   0.57226891  0.28595874  0.49827649
   0.57202942  0.85818347  0.49928127
   0.71418723  0.99995626  0.49935418
   0.71431540  0.14286729  0.49628096
   0.71429423  0.28567654  0.49701193
   0.71382279  0.42774137  0.50195421
   0.71839152  0.57319661  0.51734411
   0.72112970  0.71651519  0.52393688
   0.71317946  0.85715336  0.50714900
   0.85699872  0.99993333  0.50118416
   0.85673912  0.14264403  0.49737988
   0.85679022  0.28547630  0.49586391
   0.85720261  0.42854181  0.49733322
   0.85789945  0.57187077  0.50160172
   0.85985458  0.71540795  0.50632881
   0.85754704  0.85692719  0.50487317
   0.04755360  0.09535491  0.49880384
   0.04652204  0.23745793  0.49893048
   0.04641501  0.38051299  0.49724608
   0.04750799  0.52379391  0.49561455
   0.04811897  0.66690911  0.49604619
   0.04829424  0.80995981  0.49765197
   0.04804241  0.95276667  0.49843331
   0.19053319  0.09538992  0.50093725
   0.18997404  0.23836954  0.50457208
   0.18771010  0.37989360  0.50593296
   0.18970594  0.52342975  0.50119987
   0.19037769  0.66677559  0.49733565
   0.19076316  0.80986302  0.49614503
   0.19080890  0.95268403  0.49751517
   0.33335333  0.09535365  0.49942051
   0.33436497  0.23815598  0.50712280
   0.32636691  0.37871942  0.52393064
   0.32919996  0.52206026  0.51697102
   0.33374803  0.66754385  0.50183758
   0.33325643  0.80961076  0.49701843
   0.33321401  0.95243727  0.49640672
   0.47625496  0.09490257  0.49683960
   0.47551547  0.23711983  0.49934902
   0.47528170  0.80933140  0.49829630
   0.47616517  0.95264223  0.49645690
   0.61886156  0.09524828  0.49632867
   0.61925447  0.23797023  0.49719707
   0.62088619  0.37935694  0.50005664
   0.62023617  0.81327602  0.50312996
   0.61907213  0.95295121  0.49843756
   0.76183347  0.09533447  0.49734458
   0.76185423  0.23785342  0.49607668
   0.76200168  0.38076561  0.49874470
   0.76233477  0.52491170  0.50689253
   0.76538980  0.66712038  0.51665634
   0.76158755  0.80857015  0.51237365
   0.76180131  0.95249208  0.50283954
   0.90426715  0.09474788  0.49860601
   0.90416758  0.23777372  0.49635353
   0.90435775  0.38092437  0.49577879
   0.90499922  0.52400096  0.49755051
   0.90608573  0.66703231  0.50153892
   0.90593302  0.81021729  0.50340443
   0.90467448  0.95207036  0.50106729
   0.46383433  0.35410828  0.50357492
   0.40142160  0.55544094  0.52374585
   0.64617823  0.53975290  0.52422673
   0.58499013  0.41600886  0.49973898
   0.58376412  0.74121438  0.50322746
   0.46259570  0.67929600  0.50025532
   0.56680280  0.59270170  0.35568105
   0.48095523  0.50084337  0.35559491
   0.41553036  0.42905769  0.54283063
   0.63193194  0.66609767  0.54264369
   0.52413339  0.54651989  0.39533618
Direct configuration=     7
   0.99996966  0.99996668  0.49893112
   0.99948996  0.14254746  0.49841312
   0.99926195  0.28536419  0.49729337
   0.99946773  0.42842569  0.49570844
   0.00007952  0.57154832  0.49582174
   0.00118895  0.71482974  0.49775626
   0.00101266  0.85786087  0.49922861
   0.14326285  0.00056711  0.49853448
   0.14283631  0.14323710  0.50079944
   0.14160857  0.28509166  0.50305124
   0.14148564  0.42827940  0.50102710
   0.14257288  0.57130062  0.49736972
   0.14322695  0.71441255  0.49601695
   0.14337619  0.85756236  0.49661895
   0.28569783 -0.00003025  0.49747574
   0.28572990  0.14281434  0.50270794
   0.28591530  0.28668243  0.51224594
   0.28214635  0.42813598  0.51637956
   0.28525652  0.57036735  0.50654573
   0.28555293  0.71452776  0.49865898
   0.28569107  0.85744895  0.49617789
   0.42865831  0.00003429  0.49636227
   0.42846157  0.14233839  0.49852506
   0.42733213  0.28204832  0.50326934
   0.42668100  0.71594721  0.50022315
   0.42829717  0.85733139  0.49715472
   0.57127871  0.00038401  0.49680564
   0.57135646  0.14264113  0.49652234
   0.57227289  0.28596985  0.49828353
   0.57202319  0.85817506  0.49927991
   0.71418656  0.99995844  0.49936650
   0.71431816  0.14287642  0.49626860
   0.71429756  0.28568278  0.49700392
   0.71382968  0.42775374  0.50195180
   0.71838257  0.57320736  0.51731562
   0.72111963  0.71651252  0.52395378
   0.71317111  0.85713949  0.50714725
   0.85699253  0.99992524  0.50116808
   0.85674365  0.14264027  0.49737213
   0.85679471  0.28547779  0.49584648
   0.85719862  0.42853290  0.49734098
   0.85789790  0.57187296  0.50158099
   0.85985318  0.71540922  0.50632919
   0.85754390  0.85692932  0.50486969
   0.04755677  0.09535679  0.49883229
   0.04652786  0.23745561  0.49893268
   0.04640517  0.38050143  0.49724524
   0.04749065  0.52377656  0.49563653
   0.04812112  0.66690467  0.49605027
   0.04829561  0.80996601  0.49766845
   0.04804247  0.95276710  0.49845794
   0.19053106  0.09538479  0.50094890
   0.18997989  0.23837059  0.50458317
   0.18769916  0.37988912  0.50593069
   0.18969059  0.52342386  0.50119556
   0.19037067  0.66676944  0.49735147
   0.19076232  0.80985963  0.49613780
   0.19079896  0.95267530  0.49749899
   0.33334684  0.09533127  0.49941871
   0.33436764  0.23814496  0.50712692
   0.32636844  0.37872157  0.52392954
   0.32919927  0.52206040  0.51697056
   0.33374515  0.66754864  0.50182568
   0.33326108  0.80962151  0.49701666
   0.33321659  0.95243275  0.49640011
   0.47624900  0.09490526  0.49685081
   0.47552575  0.23712137  0.49934148
   0.47528983  0.80933787  0.49828807
   0.47617131  0.95265075  0.49645922
   0.61886736  0.09525819  0.49633030
   0.61925831  0.23797137  0.49719550
   0.62090231  0.37936445  0.50006212
   0.62022911  0.81326022  0.50312189
   0.61907450  0.95295125  0.49844167
   0.76183473  0.09533091  0.49735659
   0.76186240  0.23786815  0.49606317
   0.76201344  0.38077282  0.49874019
   0.76233389  0.52491923  0.50688634
   0.76538941  0.66713085  0.51667475
   0.76158620  0.80857126  0.51237324
   0.76179808  0.95247667  0.50283235
   0.90427131  0.09474302  0.49859813
   0.90417192  0.23777011  0.49635449
   0.90435982  0.38092016  0.49578322
   0.90499436  0.52399379  0.49756413
   0.90609657  0.66703187  0.50150911
   0.90593091  0.81021751  0.50339884
   0.90468356  0.95207675  0.50106795
   0.46383949  0.35411197  0.50357307
   0.40142762  0.55543723  0.52375148
   0.64617713  0.53976352  0.52422508
   0.58499411  0.41600893  0.49973920
   0.58375677  0.74120221  0.50322787
   0.46259254  0.67929862  0.50024735
   0.56682324  0.59268219  0.35567641
   0.48093988  0.50086317  0.35559175
   0.41552989  0.42907413  0.54284490
   0.63191479  0.66610233  0.54264474
   0.52412985  0.54651875  0.39533618
Direct configuration=     8
   0.99997398  0.99997116  0.49894826
   0.99949144  0.14254812  0.49841839
   0.99926174  0.28535881  0.49729581
   0.99946620  0.42842143  0.49571861
   0.00007689  0.57154890  0.49583787
   0.00119152  0.71483175  0.49775757
   0.00101007  0.85786022  0.49923110
   0.14326192  0.00056542  0.49853948
   0.14283961  0.14324027  0.50080160
   0.14161137  0.28509412  0.50305735
   0.14148299  0.42827799  0.50102710
   0.14256887  0.57129660  0.49737191
   0.14322990  0.71441297  0.49601095
   0.14337398  0.85756156  0.49661688
   0.28569512 -0.00003334  0.49746840
   0.28572925  0.14281275  0.50270829
   0.28591965  0.28668172  0.51224412
   0.28214700  0.42813603  0.51636788
   0.28525827  0.57036863  0.50654502
   0.28555068  0.71452849  0.49865909
   0.28569102  0.85744616  0.49616994
   0.42865578  0.00003433  0.49637072
   0.42845944  0.14233794  0.49852543
   0.42733394  0.28205142  0.50326013
   0.42667851  0.71594840  0.50022491
   0.42830065  0.85733690  0.49715428
   0.57128378  0.00038640  0.49681141
   0.57135611  0.14264557  0.49652233
   0.57227440  0.28597406  0.49828619
   0.57202083  0.85817188  0.49927940
   0.71418630  0.99995926  0.49937116
   0.71431920  0.14287987  0.49626392
   0.71429882  0.28568514  0.49700089
   0.71383229  0.42775842  0.50195090
   0.71837919  0.57321143  0.51730483
   0.72111581  0.71651151  0.52396017
   0.71316795  0.85713424  0.50714659
   0.85699019  0.99992218  0.50116200
   0.85674537  0.14263884  0.49736920
   0.85679642  0.28547835  0.49583989
   0.85719711  0.42852953  0.49734391
   0.85789731  0.57187379  0.50157315
   0.85985265  0.71540970  0.50632933
   0.85754271  0.85693012  0.50486838
   0.04755797  0.09535750  0.49884306
   0.04653006  0.23745473  0.49893351
   0.04640145  0.38049706  0.49724492
   0.04748409  0.52377000  0.49564485
   0.04812193  0.66690299  0.49605182
   0.04829612  0.80996835  0.49767469
   0.04804250  0.95276726  0.49846727
   0.19053026  0.09538284  0.50095331
   0.18998211  0.23837099  0.50458737
   0.18769501  0.37988742  0.50592983
   0.18968477  0.52342164  0.50119393
   0.19036801  0.66676711  0.49735745
   0.19076200  0.80985836  0.49613506
   0.19079520  0.95267200  0.49749287
   0.33334438  0.09532280  0.49941803
   0.33436866  0.23814078  0.50712848
   0.32636901  0.37872238  0.52392912
   0.32919901  0.52206045  0.51697038
   0.33374406  0.66755045  0.50182117
   0.33326284  0.80962558  0.49701599
   0.33321756  0.95243104  0.49639760
   0.47624675  0.09490628  0.49685505
   0.47552964  0.23712196  0.49933863
   0.47529291  0.80934031  0.49828496
   0.47617364  0.95265398  0.49646010
   0.61886956  0.09526194  0.49633092
   0.61925976  0.23797180  0.49719491
   0.62090841  0.37936729  0.50006420
   0.62022643  0.81325424  0.50311883
   0.61907539  0.95295126  0.49844322
   0.76183521  0.09532956  0.49736114
   0.76186549  0.23787372  0.49605805
   0.76201790  0.38077556  0.49873848
   0.76233355  0.52492208  0.50688400
   0.76538926  0.66713481  0.51668172
   0.76158569  0.80857168  0.51237309
   0.76179685  0.95247084  0.50282963
   0.90427289  0.09474118  0.49859515
   0.90417356  0.23776874  0.49635486
   0.90436060  0.38091857  0.49578490