  95  95   0   0
  0.4078826E+02  0.1727104E-08  0.1727104E-08  0.1500000E-08  0.0000000E+00
  1.000000000000000E-004
  CAR 
 unknown system                          
      5.67834004    -23.92387858  301     -2.72866839      1.00000000
    -23.924  0.0000E+00  0.0000E+00  0.0000E+00  0.0000E+00
    -23.825  0.0000E+00  0.0000E+00  0.0000E+00  0.0000E+00
    -23.727  0.0000E+00  0.0000E+00  0.0000E+00  0.0000E+00
    -23.628  0.0000E+00  0.0000E+00  0.0000E+00  0.0000E+00
    -23.529  0.0000E+00  0.0000E+00  0.0000E+00  0.0000E+00
    -23.431  0.0000E+00  0.0000E+00  0.0000E+00  0.0000E+00
    -23.332  0.0000E+00  0.0000E+00  0.0000E+00  0.0000E+00
    -23.233  0.0000E+00  0.0000E+00  0.0000E+00  0.0000E+00
    -23.134  0.0000E+00  0.0000E+00  0.0000E+00  0.0000E+00
    -23.036  0.0000E+00  0.0000E+00  0.0000E+00  0.0000E+00
    -22.937  0.0000E+00  0.0000E+00  0.0000E+00  0.0000E+00
    -22.838  0.7545E-15  0.7545E-15  0.7445E-16  0.7445E-16
    -22.740  0.2165E-07  0.2165E-07  0.2136E-08  0.2136E-08
    -22.641  0.3583E-03  0.3583E-03  0.3536E-04  0.3536E-04
    -22.542  0.8127E-02  0.8127E-02  0.8373E-03  0.8373E-03
    -22.444  0.2654E-02  0.2654E-02  0.1099E-02  0.1099E-02
    -22.345  0.1177E-01  0.1177E-01  0.2261E-02  0.2261E-02
    -22.246  0.1707E-01  0.1707E-01  0.3945E-02  0.3945E-02
    -22.148  0.9559E-02  0.9559E-02  0.4889E-02  0.4889E-02
    -22.049  0.1128E-02  0.1128E-02  0.5000E-02  0.5000E-02
    -21.950  0.3313E-06  0.3313E-06  0.5000E-02  0.5000E-02
    -21.852  0.9896E-07  0.9896E-07  0.5000E-02  0.5000E-02
    -21.753  0.6475E-03  0.6475E-03  0.5064E-02  0.5064E-02
    -21.654  0.1131E-01  0.1131E-01  0.6180E-02  0.6180E-02
    -21.556  0.7872E-02  0.7872E-02  0.6957E-02  0.6957E-02
    -21.457  0.4489E-02  0.4489E-02  0.7400E-02  0.7400E-02
    -21.358  0.3937E-02  0.3937E-02  0.7788E-02  0.7788E-02
    -21.260  0.4520E-02  0.4520E-02  0.8234E-02  0.8234E-02
    -21.161  0.4938E-02  0.4938E-02  0.8722E-02  0.8722E-02
    -21.062  0.6571E-02  0.6571E-02  0.9370E-02  0.9370E-02
    -20.964  0.5963E-02  0.5963E-02  0.9959E-02  0.9959E-02
    -20.865  0.5294E-02  0.5294E-02  0.1048E-01  0.1048E-01
    -20.766  0.7083E-02  0.7083E-02  0.1118E-01  0.1118E-01
    -20.668  0.7480E-02  0.7480E-02  0.1192E-01  0.1192E-01
    -20.569  0.5477E-02  0.5477E-02  0.1246E-01  0.1246E-01
    -20.470  0.8080E-02  0.8080E-02  0.1326E-01  0.1326E-01
    -20.372  0.6481E-02  0.6481E-02  0.1390E-01  0.1390E-01
    -20.273  0.9001E-02  0.9001E-02  0.1478E-01  0.1478E-01
    -20.174  0.5799E-02  0.5799E-02  0.1536E-01  0.1536E-01
    -20.076  0.1462E-02  0.1462E-02  0.1550E-01  0.1550E-01
    -19.977  0.1427E-02  0.1427E-02  0.1564E-01  0.1564E-01
    -19.878  0.1371E-01  0.1371E-01  0.1699E-01  0.1699E-01
    -19.780  0.3325E-02  0.3325E-02  0.1732E-01  0.1732E-01
    -19.681  0.7091E-02  0.7091E-02  0.1802E-01  0.1802E-01
    -19.582  0.1312E-01  0.1312E-01  0.1932E-01  0.1932E-01
    -19.484  0.8157E-02  0.8157E-02  0.2012E-01  0.2012E-01
    -19.385  0.7035E-02  0.7035E-02  0.2081E-01  0.2081E-01
    -19.286  0.6148E-02  0.6148E-02  0.2142E-01  0.2142E-01
    -19.188  0.1799E-02  0.1799E-02  0.2160E-01  0.2160E-01
    -19.089  0.7829E-02  0.7829E-02  0.2237E-01  0.2237E-01
    -18.990  0.2567E-02  0.2567E-02  0.2262E-01  0.2262E-01
    -18.892  0.3497E-02  0.3497E-02  0.2297E-01  0.2297E-01
    -18.793  0.7848E-02  0.7848E-02  0.2374E-01  0.2374E-01
    -18.694  0.1705E-01  0.1705E-01  0.2543E-01  0.2543E-01
    -18.595  0.1242E-01  0.1242E-01  0.2665E-01  0.2665E-01
    -18.497  0.2397E-02  0.2397E-02  0.2689E-01  0.2689E-01
    -18.398  0.3868E-02  0.3868E-02  0.2727E-01  0.2727E-01
    -18.299  0.1177E-01  0.1177E-01  0.2843E-01  0.2843E-01
    -18.201  0.5827E-02  0.5827E-02  0.2901E-01  0.2901E-01
    -18.102  0.2626E-02  0.2626E-02  0.2927E-01  0.2927E-01
    -18.003  0.4504E-02  0.4504E-02  0.2971E-01  0.2971E-01
    -17.905  0.5886E-02  0.5886E-02  0.3029E-01  0.3029E-01
    -17.806  0.8087E-02  0.8087E-02  0.3109E-01  0.3109E-01
    -17.707  0.7619E-02  0.7619E-02  0.3184E-01  0.3184E-01
    -17.609  0.1171E-01  0.1171E-01  0.3300E-01  0.3300E-01
    -17.510  0.1299E-01  0.1299E-01  0.3428E-01  0.3428E-01
    -17.411  0.1164E-01  0.1164E-01  0.3543E-01  0.3543E-01
    -17.313  0.8142E-02  0.8142E-02  0.3623E-01  0.3623E-01
    -17.214  0.4923E-02  0.4923E-02  0.3672E-01  0.3672E-01
    -17.115  0.7842E-02  0.7842E-02  0.3749E-01  0.3749E-01
    -17.017  0.5971E-02  0.5971E-02  0.3808E-01  0.3808E-01
    -16.918  0.4194E-02  0.4194E-02  0.3849E-01  0.3849E-01
    -16.819  0.5104E-02  0.5104E-02  0.3900E-01  0.3900E-01
    -16.721  0.6157E-02  0.6157E-02  0.3960E-01  0.3960E-01
    -16.622  0.7839E-02  0.7839E-02  0.4038E-01  0.4038E-01
    -16.523  0.2082E-01  0.2082E-01  0.4243E-01  0.4243E-01
    -16.425  0.9916E-02  0.9916E-02  0.4341E-01  0.4341E-01
    -16.326  0.3553E-02  0.3553E-02  0.4376E-01  0.4376E-01
    -16.227  0.2350E-02  0.2350E-02  0.4399E-01  0.4399E-01
    -16.129  0.6957E-04  0.6957E-04  0.4400E-01  0.4400E-01
    -16.030  0.5379E-05  0.5379E-05  0.4400E-01  0.4400E-01
    -15.931  0.1210E-02  0.1210E-02  0.4412E-01  0.4412E-01
    -15.833  0.4132E-02  0.4132E-02  0.4453E-01  0.4453E-01
    -15.734  0.6241E-02  0.6241E-02  0.4514E-01  0.4514E-01
    -15.635  0.5792E-02  0.5792E-02  0.4571E-01  0.4571E-01
    -15.537  0.6269E-02  0.6269E-02  0.4633E-01  0.4633E-01
    -15.438  0.7695E-02  0.7695E-02  0.4709E-01  0.4709E-01
    -15.339  0.4279E-02  0.4279E-02  0.4752E-01  0.4752E-01
    -15.241  0.1078E-01  0.1078E-01  0.4858E-01  0.4858E-01
    -15.142  0.1582E-01  0.1582E-01  0.5014E-01  0.5014E-01
    -15.043  0.7724E-02  0.7724E-02  0.5090E-01  0.5090E-01
    -14.945  0.3956E-02  0.3956E-02  0.5129E-01  0.5129E-01
    -14.846  0.8437E-02  0.8437E-02  0.5213E-01  0.5213E-01
    -14.747  0.1122E-01  0.1122E-01  0.5323E-01  0.5323E-01
    -14.649  0.7354E-02  0.7354E-02  0.5396E-01  0.5396E-01
    -14.550  0.7370E-02  0.7370E-02  0.5469E-01  0.5469E-01
    -14.451  0.8398E-02  0.8398E-02  0.5551E-01  0.5551E-01
    -14.352  0.1431E-01  0.1431E-01  0.5693E-01  0.5693E-01
    -14.254  0.8240E-02  0.8240E-02  0.5774E-01  0.5774E-01
    -14.155  0.6066E-02  0.6066E-02  0.5834E-01  0.5834E-01
    -14.056  0.4026E-02  0.4026E-02  0.5874E-01  0.5874E-01
    -13.958  0.3423E-02  0.3423E-02  0.5907E-01  0.5907E-01
    -13.859  0.3686E-02  0.3686E-02  0.5944E-01  0.5944E-01
    -13.760  0.6656E-02  0.6656E-02  0.6009E-01  0.6009E-01
    -13.662  0.1243E-01  0.1243E-01  0.6132E-01  0.6132E-01
    -13.563  0.1085E-01  0.1085E-01  0.6239E-01  0.6239E-01
    -13.464  0.6240E-02  0.6240E-02  0.6301E-01  0.6301E-01
    -13.366  0.6468E-02  0.6468E-02  0.6365E-01  0.6365E-01
    -13.267  0.5499E-02  0.5499E-02  0.6419E-01  0.6419E-01
    -13.168  0.3157E-02  0.3157E-02  0.6450E-01  0.6450E-01
    -13.070  0.2971E-02  0.2971E-02  0.6479E-01  0.6479E-01
    -12.971  0.5772E-02  0.5772E-02  0.6536E-01  0.6536E-01
    -12.872  0.8055E-02  0.8055E-02  0.6616E-01  0.6616E-01
    -12.774  0.6404E-02  0.6404E-02  0.6679E-01  0.6679E-01
    -12.675  0.1214E-01  0.1214E-01  0.6799E-01  0.6799E-01
    -12.576  0.1579E-01  0.1579E-01  0.6955E-01  0.6955E-01
    -12.478  0.8942E-02  0.8942E-02  0.7043E-01  0.7043E-01
    -12.379  0.1106E-01  0.1106E-01  0.7152E-01  0.7152E-01
    -12.280  0.2947E-02  0.2947E-02  0.7181E-01  0.7181E-01
    -12.182  0.6111E-02  0.6111E-02  0.7241E-01  0.7241E-01
    -12.083  0.4212E-02  0.4212E-02  0.7283E-01  0.7283E-01
    -11.984  0.7206E-02  0.7206E-02  0.7354E-01  0.7354E-01
    -11.886  0.5904E-02  0.5904E-02  0.7412E-01  0.7412E-01
    -11.787  0.8508E-02  0.8508E-02  0.7496E-01  0.7496E-01
    -11.688  0.1093E-01  0.1093E-01  0.7604E-01  0.7604E-01
    -11.590  0.9298E-02  0.9298E-02  0.7696E-01  0.7696E-01
    -11.491  0.1216E-01  0.1216E-01  0.7816E-01  0.7816E-01
    -11.392  0.1420E-01  0.1420E-01  0.7956E-01  0.7956E-01
    -11.294  0.8340E-02  0.8340E-02  0.8038E-01  0.8038E-01
    -11.195  0.8922E-02  0.8922E-02  0.8126E-01  0.8126E-01
    -11.096  0.1165E-01  0.1165E-01  0.8241E-01  0.8241E-01
    -10.998  0.1072E-01  0.1072E-01  0.8347E-01  0.8347E-01
    -10.899  0.8891E-02  0.8891E-02  0.8435E-01  0.8435E-01
    -10.800  0.7783E-02  0.7783E-02  0.8511E-01  0.8511E-01
    -10.702  0.1054E-01  0.1054E-01  0.8615E-01  0.8615E-01
    -10.603  0.6736E-02  0.6736E-02  0.8682E-01  0.8682E-01
    -10.504  0.5429E-02  0.5429E-02  0.8736E-01  0.8736E-01
    -10.406  0.8182E-02  0.8182E-02  0.8816E-01  0.8816E-01
    -10.307  0.1367E-01  0.1367E-01  0.8951E-01  0.8951E-01
    -10.208  0.1478E-01  0.1478E-01  0.9097E-01  0.9097E-01
    -10.110  0.1636E-01  0.1636E-01  0.9258E-01  0.9258E-01
    -10.011  0.2027E-01  0.2027E-01  0.9458E-01  0.9458E-01
     -9.912  0.1675E-01  0.1675E-01  0.9624E-01  0.9624E-01
     -9.813  0.1420E-01  0.1420E-01  0.9764E-01  0.9764E-01
     -9.715  0.1369E-01  0.1369E-01  0.9899E-01  0.9899E-01
     -9.616  0.2066E-01  0.2066E-01  0.1010E+00  0.1010E+00
     -9.517  0.1805E-01  0.1805E-01  0.1028E+00  0.1028E+00
     -9.419  0.1635E-01  0.1635E-01  0.1044E+00  0.1044E+00
     -9.320  0.1533E-01  0.1533E-01  0.1059E+00  0.1059E+00
     -9.221  0.1738E-01  0.1738E-01  0.1077E+00  0.1077E+00
     -9.123  0.2456E-01  0.2456E-01  0.1101E+00  0.1101E+00
     -9.024  0.2866E-01  0.2866E-01  0.1129E+00  0.1129E+00
     -8.925  0.2363E-01  0.2363E-01  0.1152E+00  0.1152E+00
     -8.827  0.2186E-01  0.2186E-01  0.1174E+00  0.1174E+00
     -8.728  0.1666E-01  0.1666E-01  0.1190E+00  0.1190E+00
     -8.629  0.1491E-01  0.1491E-01  0.1205E+00  0.1205E+00
     -8.531  0.1701E-01  0.1701E-01  0.1222E+00  0.1222E+00
     -8.432  0.1548E-01  0.1548E-01  0.1237E+00  0.1237E+00
     -8.333  0.2022E-01  0.2022E-01  0.1257E+00  0.1257E+00
     -8.235  0.2698E-01  0.2698E-01  0.1284E+00  0.1284E+00
     -8.136  0.1687E-01  0.1687E-01  0.1300E+00  0.1300E+00
     -8.037  0.1380E-01  0.1380E-01  0.1314E+00  0.1314E+00
     -7.939  0.1734E-01  0.1734E-01  0.1331E+00  0.1331E+00
     -7.840  0.1587E-01  0.1587E-01  0.1347E+00  0.1347E+00
     -7.741  0.4412E-02  0.4412E-02  0.1351E+00  0.1351E+00
     -7.643  0.1540E-01  0.1540E-01  0.1366E+00  0.1366E+00
     -7.544  0.9153E-02  0.9153E-02  0.1375E+00  0.1375E+00
     -7.445  0.2347E-01  0.2347E-01  0.1398E+00  0.1398E+00
     -7.347  0.1791E-01  0.1791E-01  0.1416E+00  0.1416E+00
     -7.248  0.1850E-01  0.1850E-01  0.1434E+00  0.1434E+00
     -7.149  0.1409E-01  0.1409E-01  0.1448E+00  0.1448E+00
     -7.051  0.1600E-01  0.1600E-01  0.1464E+00  0.1464E+00
     -6.952  0.1189E-01  0.1189E-01  0.1476E+00  0.1476E+00
     -6.853  0.8943E-02  0.8943E-02  0.1485E+00  0.1485E+00
     -6.755  0.9514E-02  0.9514E-02  0.1494E+00  0.1494E+00
     -6.656  0.1224E-01  0.1224E-01  0.1506E+00  0.1506E+00
     -6.557  0.1104E-01  0.1104E-01  0.1517E+00  0.1517E+00
     -6.459  0.1127E-01  0.1127E-01  0.1528E+00  0.1528E+00
     -6.360  0.1843E-01  0.1843E-01  0.1546E+00  0.1546E+00
     -6.261  0.2462E-01  0.2462E-01  0.1571E+00  0.1571E+00
     -6.163  0.1766E-01  0.1766E-01  0.1588E+00  0.1588E+00
     -6.064  0.6043E-02  0.6043E-02  0.1594E+00  0.1594E+00
     -5.965  0.1275E-01  0.1275E-01  0.1607E+00  0.1607E+00
     -5.867  0.1327E-01  0.1327E-01  0.1620E+00  0.1620E+00
     -5.768  0.9390E-02  0.9390E-02  0.1629E+00  0.1629E+00
     -5.669  0.3896E-02  0.3896E-02  0.1633E+00  0.1633E+00
     -5.571  0.4635E-02  0.4635E-02  0.1637E+00  0.1637E+00
     -5.472  0.2055E-02  0.2055E-02  0.1639E+00  0.1639E+00
     -5.373  0.5049E-02  0.5049E-02  0.1644E+00  0.1644E+00
     -5.274  0.8189E-02  0.8189E-02  0.1652E+00  0.1652E+00
     -5.176  0.2208E-01  0.2208E-01  0.1674E+00  0.1674E+00
     -5.077  0.1305E-01  0.1305E-01  0.1687E+00  0.1687E+00
     -4.978  0.1971E-01  0.1971E-01  0.1707E+00  0.1707E+00
     -4.880  0.1213E-01  0.1213E-01  0.1719E+00  0.1719E+00
     -4.781  0.8861E-02  0.8861E-02  0.1727E+00  0.1727E+00
     -4.682  0.1037E-01  0.1037E-01  0.1738E+00  0.1738E+00
     -4.584  0.1617E-01  0.1617E-01  0.1753E+00  0.1753E+00
     -4.485  0.7819E-02  0.7819E-02  0.1761E+00  0.1761E+00
     -4.386  0.2029E-01  0.2029E-01  0.1781E+00  0.1781E+00
     -4.288  0.1127E-01  0.1127E-01  0.1792E+00  0.1792E+00
     -4.189  0.1156E-01  0.1156E-01  0.1804E+00  0.1804E+00
     -4.090  0.7403E-02  0.7403E-02  0.1811E+00  0.1811E+00
     -3.992  0.8505E-02  0.8505E-02  0.1819E+00  0.1819E+00
     -3.893  0.5894E-03  0.5894E-03  0.1820E+00  0.1820E+00
     -3.794  0.9808E-03  0.9808E-03  0.1821E+00  0.1821E+00
     -3.696  0.1570E-02  0.1570E-02  0.1823E+00  0.1823E+00
     -3.597  0.3749E-02  0.3749E-02  0.1826E+00  0.1826E+00
     -3.498  0.3892E-02  0.3892E-02  0.1830E+00  0.1830E+00
     -3.400  0.2116E-02  0.2116E-02  0.1832E+00  0.1832E+00
     -3.301  0.5549E-03  0.5549E-03  0.1833E+00  0.1833E+00
     -3.202  0.2121E-02  0.2121E-02  0.1835E+00  0.1835E+00
     -3.104  0.2160E-03  0.2160E-03  0.1835E+00  0.1835E+00
     -3.005  0.6008E-03  0.6008E-03  0.1836E+00  0.1836E+00
     -2.906  0.2563E-02  0.2563E-02  0.1838E+00  0.1838E+00
     -2.808  0.1865E-02  0.1865E-02  0.1840E+00  0.1840E+00
     -2.709  0.3803E-04  0.3803E-04  0.1840E+00  0.1840E+00
     -2.610  0.3778E-03  0.3778E-03  0.1840E+00  0.1840E+00
     -2.512  0.3438E-02  0.3438E-02  0.1844E+00  0.1844E+00
     -2.413  0.1247E-02  0.1247E-02  0.1845E+00  0.1845E+00
     -2.314  0.4579E-05  0.4579E-05  0.1845E+00  0.1845E+00
     -2.216  0.1521E-04  0.1521E-04  0.1845E+00  0.1845E+00
     -2.117  0.2563E-02  0.2563E-02  0.1848E+00  0.1848E+00
     -2.018  0.2498E-02  0.2498E-02  0.1850E+00  0.1850E+00
     -1.920  0.2519E-02  0.2519E-02  0.1852E+00  0.1852E+00
     -1.821  0.3791E-02  0.3791E-02  0.1856E+00  0.1856E+00
     -1.722  0.3415E-02  0.3415E-02  0.1860E+00  0.1860E+00
     -1.624  0.4170E-03  0.4170E-03  0.1860E+00  0.1860E+00
     -1.525  0.3278E-02  0.3278E-02  0.1863E+00  0.1863E+00
     -1.426  0.8604E-02  0.8604E-02  0.1872E+00  0.1872E+00
     -1.328  0.3056E-02  0.3056E-02  0.1875E+00  0.1875E+00
     -1.229  0.3343E-03  0.3343E-03  0.1875E+00  0.1875E+00
     -1.130  0.4701E-02  0.4701E-02  0.1880E+00  0.1880E+00
     -1.031  0.1517E-01  0.1517E-01  0.1895E+00  0.1895E+00
     -0.933  0.1333E-01  0.1333E-01  0.1908E+00  0.1908E+00
     -0.834  0.5107E-02  0.5107E-02  0.1913E+00  0.1913E+00
     -0.735  0.1020E-01  0.1020E-01  0.1923E+00  0.1923E+00
     -0.637  0.1128E-01  0.1128E-01  0.1934E+00  0.1934E+00
     -0.538  0.6127E-02  0.6127E-02  0.1940E+00  0.1940E+00
     -0.439  0.3242E-02  0.3242E-02  0.1943E+00  0.1943E+00
     -0.341  0.7794E-02  0.7794E-02  0.1951E+00  0.1951E+00
     -0.242  0.9819E-02  0.9819E-02  0.1961E+00  0.1961E+00
     -0.143  0.9800E-02  0.9800E-02  0.1970E+00  0.1970E+00
     -0.045  0.1045E-01  0.1045E-01  0.1981E+00  0.1981E+00
      0.054  0.1166E-01  0.1166E-01  0.1992E+00  0.1992E+00
      0.153  0.6000E-02  0.6000E-02  0.1998E+00  0.1998E+00
      0.251  0.1882E-02  0.1882E-02  0.2000E+00  0.2000E+00
      0.350  0.1102E-02  0.1102E-02  0.2001E+00  0.2001E+00
      0.449  0.6517E-02  0.6517E-02  0.2007E+00  0.2007E+00
      0.547  0.9502E-02  0.9502E-02  0.2017E+00  0.2017E+00
      0.646  0.6951E-02  0.6951E-02  0.2024E+00  0.2024E+00
      0.745  0.5119E-02  0.5119E-02  0.2029E+00  0.2029E+00
      0.843  0.4780E-02  0.4780E-02  0.2033E+00  0.2033E+00
      0.942  0.8554E-02  0.8554E-02  0.2042E+00  0.2042E+00
      1.041  0.1234E-01  0.1234E-01  0.2054E+00  0.2054E+00
      1.139  0.3702E-02  0.3702E-02  0.2058E+00  0.2058E+00
      1.238  0.6383E-02  0.6383E-02  0.2064E+00  0.2064E+00
      1.337  0.1772E-01  0.1772E-01  0.2082E+00  0.2082E+00
      1.435  0.2237E-01  0.2237E-01  0.2104E+00  0.2104E+00
      1.534  0.1021E-01  0.1021E-01  0.2114E+00  0.2114E+00
      1.633  0.6906E-02  0.6905E-02  0.2120E+00  0.2120E+00
      1.731  0.7250E-02  0.7251E-02  0.2128E+00  0.2128E+00
      1.830  0.9027E-02  0.9027E-02  0.2137E+00  0.2137E+00
      1.929  0.1706E-01  0.1706E-01  0.2153E+00  0.2153E+00
      2.027  0.2823E-01  0.2823E-01  0.2181E+00  0.2181E+00
      2.126  0.1273E-01  0.1273E-01  0.2194E+00  0.2194E+00
      2.225  0.1270E-01  0.1270E-01  0.2206E+00  0.2206E+00
      2.323  0.1931E-01  0.1931E-01  0.2225E+00  0.2225E+00
      2.422  0.2420E-01  0.2420E-01  0.2249E+00  0.2249E+00
      2.521  0.1377E-01  0.1377E-01  0.2263E+00  0.2263E+00
      2.619  0.7070E-02  0.7070E-02  0.2270E+00  0.2270E+00
      2.718  0.1654E-01  0.1654E-01  0.2286E+00  0.2286E+00
      2.817  0.2125E-01  0.2125E-01  0.2307E+00  0.2307E+00
      2.915  0.5477E-01  0.5477E-01  0.2361E+00  0.2361E+00
      3.014  0.2715E-01  0.2714E-01  0.2388E+00  0.2388E+00
      3.113  0.9997E-02  0.9997E-02  0.2398E+00  0.2398E+00
      3.211  0.1515E-01  0.1515E-01  0.2413E+00  0.2413E+00
      3.310  0.1647E-01  0.1647E-01  0.2429E+00  0.2429E+00
      3.409  0.1753E-01  0.1753E-01  0.2446E+00  0.2446E+00
      3.508  0.2359E-01  0.2359E-01  0.2470E+00  0.2470E+00
      3.606  0.1464E-01  0.1464E-01  0.2484E+00  0.2484E+00
      3.705  0.1315E-01  0.1315E-01  0.2497E+00  0.2497E+00
      3.804  0.2498E-01  0.2498E-01  0.2522E+00  0.2522E+00
      3.902  0.2715E-01  0.2715E-01  0.2548E+00  0.2548E+00
      4.001  0.2539E-01  0.2539E-01  0.2574E+00  0.2574E+00
      4.100  0.1090E-01  0.1090E-01  0.2584E+00  0.2584E+00
      4.198  0.9524E-02  0.9526E-02  0.2594E+00  0.2594E+00
      4.297  0.3833E-01  0.3833E-01  0.2631E+00  0.2631E+00
      4.396  0.1836E-01  0.1836E-01  0.2650E+00  0.2650E+00
      4.494  0.4020E-03  0.4018E-03  0.2650E+00  0.2650E+00
      4.593  0.1842E-07  0.1840E-07  0.2650E+00  0.2650E+00
      4.692  0.5567E-15  0.5553E-15  0.2650E+00  0.2650E+00
      4.790  0.0000E+00  0.0000E+00  0.2650E+00  0.2650E+00
      4.889  0.0000E+00  0.0000E+00  0.2650E+00  0.2650E+00
      4.988  0.0000E+00  0.0000E+00  0.2650E+00  0.2650E+00
      5.086  0.0000E+00  0.0000E+00  0.2650E+00  0.2650E+00
      5.185  0.0000E+00  0.0000E+00  0.2650E+00  0.2650E+00
      5.284  0.0000E+00  0.0000E+00  0.2650E+00  0.2650E+00
      5.382  0.0000E+00  0.0000E+00  0.2650E+00  0.2650E+00
      5.481  0.0000E+00  0.0000E+00  0.2650E+00  0.2650E+00
      5.580  0.0000E+00  0.0000E+00  0.2650E+00  0.2650E+00
      5.678  0.0000E+00  0.0000E+00  0.2650E+00  0.2650E+00
