       N       E                     dE             d eps       ncg     rms          rms(c)
DAV:   1     0.328565042132E+04    0.32857E+04   -0.13754E+05  4580   0.105E+03
DAV:   2    -0.233568147447E+03   -0.35192E+04   -0.33129E+04  6410   0.258E+02
DAV:   3    -0.852975450758E+03   -0.61941E+03   -0.61658E+03  5330   0.112E+02
DAV:   4    -0.875163423721E+03   -0.22188E+02   -0.22103E+02  5390   0.266E+01
DAV:   5    -0.875819799774E+03   -0.65638E+00   -0.65554E+00  6050   0.389E+00    0.513E+01
DAV:   6    -0.859392522255E+03    0.16427E+02   -0.21057E+01  5120   0.717E+00    0.334E+01
DAV:   7    -0.838276434774E+03    0.21116E+02   -0.31095E+01  4990   0.831E+00    0.202E+01
DAV:   8    -0.833574125265E+03    0.47023E+01   -0.23276E+01  5030   0.708E+00    0.800E+00
DAV:   9    -0.833501146089E+03    0.72979E-01   -0.10416E+00  4970   0.179E+00    0.331E+00
DAV:  10    -0.833401231261E+03    0.99915E-01   -0.35902E-01  4890   0.101E+00    0.901E-01
DAV:  11    -0.833388516320E+03    0.12715E-01   -0.78691E-02  4860   0.489E-01    0.251E-01
DAV:  12    -0.833388174928E+03    0.34139E-03   -0.66601E-03  5250   0.166E-01    0.136E-01
DAV:  13    -0.833388010074E+03    0.16485E-03   -0.19479E-03  5140   0.904E-02    0.695E-02
DAV:  14    -0.833388084260E+03   -0.74186E-04   -0.34844E-04  4980   0.339E-02    0.473E-02
DAV:  15    -0.833388120283E+03   -0.36023E-04   -0.94071E-05  4990   0.179E-02    0.225E-02
DAV:  16    -0.833388122708E+03   -0.24257E-05   -0.21807E-05  5110   0.900E-03    0.117E-02
DAV:  17    -0.833388122592E+03    0.11621E-06   -0.10129E-05  5050   0.620E-03    0.548E-03
DAV:  18    -0.833388121880E+03    0.71243E-06   -0.31970E-06  4130   0.394E-03
   1 F= -.84102657E+03 E0= -.84102657E+03  d E =-.841027E+03  mag=    -0.0000
       N       E                     dE             d eps       ncg     rms          rms(c)
DAV:   1    -0.833388126624E+03   -0.40316E-05   -0.30804E-04  4570   0.271E-02    0.354E-03
DAV:   2    -0.833388127017E+03   -0.39303E-06   -0.60851E-06  3900   0.371E-03
   2 F= -.84102658E+03 E0= -.84102658E+03  d E =-.522311E-05  mag=    -0.0000
       N       E                     dE             d eps       ncg     rms          rms(c)
DAV:   1    -0.833388132792E+03   -0.61681E-05   -0.96617E-04  4520   0.402E-02    0.719E-03
DAV:   2    -0.833388133449E+03   -0.65692E-06   -0.15164E-05  4280   0.492E-03    0.598E-03
DAV:   3    -0.833388133336E+03    0.11214E-06   -0.38999E-07  3320   0.117E-03
   3 F= -.84102659E+03 E0= -.84102659E+03  d E =-.788937E-05  mag=     0.0000
       N       E                     dE             d eps       ncg     rms          rms(c)
DAV:   1    -0.833388141170E+03   -0.77219E-05   -0.18987E-03  4520   0.558E-02    0.814E-03
DAV:   2    -0.833388143061E+03   -0.18905E-05   -0.28129E-05  4590   0.656E-03    0.661E-03
DAV:   3    -0.833388143023E+03    0.37944E-07   -0.48116E-07  3280   0.120E-03
   4 F= -.84102660E+03 E0= -.84102660E+03  d E =-.139613E-04  mag=    -0.0000
       N       E                     dE             d eps       ncg     rms          rms(c)
DAV:   1    -0.833388151309E+03   -0.82485E-05   -0.28722E-03  4500   0.703E-02    0.103E-02
DAV:   2    -0.833388154370E+03   -0.30603E-05   -0.43559E-05  4620   0.823E-03    0.840E-03
DAV:   3    -0.833388154339E+03    0.30872E-07   -0.77486E-07  3480   0.151E-03
   5 F= -.84102662E+03 E0= -.84102662E+03  d E =-.172523E-04  mag=     0.0000
       N       E                     dE             d eps       ncg     rms          rms(c)
DAV:   1    -0.833388165563E+03   -0.11193E-04   -0.35531E-03  4520   0.789E-02    0.119E-02
DAV:   2    -0.833388169339E+03   -0.37763E-05   -0.52431E-05  4620   0.914E-03    0.976E-03
DAV:   3    -0.833388169310E+03    0.29075E-07   -0.96317E-07  3500   0.169E-03
   6 F= -.84102664E+03 E0= -.84102664E+03  d E =-.206149E-04  mag=    -0.0000
       N       E                     dE             d eps       ncg     rms          rms(c)
DAV:   1    -0.833388183172E+03   -0.13833E-04   -0.41680E-03  4420   0.877E-02    0.135E-02
DAV:   2    -0.833388188077E+03   -0.49053E-05   -0.63243E-05  4640   0.104E-02    0.112E-02
DAV:   3    -0.833388187931E+03    0.14657E-06   -0.11783E-06  3490   0.192E-03
   7 F= -.84102666E+03 E0= -.84102666E+03  d E =-.251797E-04  mag=     0.0000
       N       E                     dE             d eps       ncg     rms          rms(c)
DAV:   1    -0.833388202014E+03   -0.13937E-04   -0.58517E-03  4360   0.104E-01    0.163E-02
DAV:   2    -0.833388209199E+03   -0.71849E-05   -0.86239E-05  4580   0.122E-02    0.140E-02
DAV:   3    -0.833388208755E+03    0.44434E-06   -0.16070E-06  3680   0.230E-03
   8 F= -.84102669E+03 E0= -.84102669E+03  d E =-.298682E-04  mag=     0.0000
       N       E                     dE             d eps       ncg     rms          rms(c)
DAV:   1    -0.833388227957E+03   -0.18758E-04   -0.72602E-03  4360   0.119E-01    0.190E-02
DAV:   2    -0.833388236835E+03   -0.88775E-05   -0.10406E-04  4600   0.137E-02    0.163E-02
DAV:   3    -0.833388236321E+03    0.51384E-06   -0.20812E-06  3800   0.274E-03
   9 F= -.84102673E+03 E0= -.84102673E+03  d E =-.391166E-04  mag=     0.0000
       N       E                     dE             d eps       ncg     rms          rms(c)
DAV:   1    -0.833388257155E+03   -0.20320E-04   -0.13522E-02  4340   0.153E-01    0.243E-02
DAV:   2    -0.833388271754E+03   -0.14598E-04   -0.18946E-04  4520   0.175E-02    0.204E-02
DAV:   3    -0.833388271138E+03    0.61606E-06   -0.35760E-06  3790   0.333E-03
  10 F= -.84102678E+03 E0= -.84102678E+03  d E =-.482055E-04  mag=    -0.0000
       N       E                     dE             d eps       ncg     rms          rms(c)
DAV:   1    -0.833388275930E+03   -0.41759E-05   -0.32943E-02  4320   0.221E-01    0.334E-02
DAV:   2    -0.833388305792E+03   -0.29862E-04   -0.43419E-04  4460   0.249E-02    0.272E-02
DAV:   3    -0.833388304543E+03    0.12490E-05   -0.79180E-06  4235   0.461E-03    0.210E-02
DAV:   4    -0.833388311073E+03   -0.65296E-05   -0.23567E-05  4160   0.695E-03    0.380E-03
DAV:   5    -0.833388311196E+03   -0.12356E-06   -0.29672E-06  3355   0.270E-03
  11 F= -.84102684E+03 E0= -.84102684E+03  d E =-.554427E-04  mag=     0.0000
       N       E                     dE             d eps       ncg     rms          rms(c)
DAV:   1    -0.833388270508E+03    0.40564E-04   -0.71846E-02  4270   0.311E-01    0.437E-02
DAV:   2    -0.833388330583E+03   -0.60075E-04   -0.96066E-04  4370   0.349E-02    0.343E-02
DAV:   3    -0.833388328502E+03    0.20813E-05   -0.17309E-05  4615   0.623E-03    0.270E-02
DAV:   4    -0.833388346035E+03   -0.17533E-04   -0.42194E-05  4275   0.953E-03    0.568E-03
DAV:   5    -0.833388346848E+03   -0.81297E-06   -0.61497E-06  3595   0.362E-03
  12 F= -.84102689E+03 E0= -.84102689E+03  d E =-.535765E-04  mag=     0.0000
       N       E                     dE             d eps       ncg     rms          rms(c)
DAV:   1    -0.833388176055E+03    0.16998E-03   -0.16868E-01  4270   0.469E-01    0.643E-02
DAV:   2    -0.833388326655E+03   -0.15060E-03   -0.23725E-03  4320   0.540E-02    0.481E-02
DAV:   3    -0.833388322065E+03    0.45900E-05   -0.40556E-05  4970   0.914E-03    0.379E-02
DAV:   4    -0.833388360672E+03   -0.38606E-04   -0.10308E-04  4375   0.149E-02    0.782E-03
DAV:   5    -0.833388362950E+03   -0.22785E-05   -0.15129E-05  4470   0.544E-03    0.671E-03
DAV:   6    -0.833388363211E+03   -0.26089E-06   -0.17133E-06  3260   0.244E-03
  13 F= -.84102692E+03 E0= -.84102692E+03  d E =-.307440E-04  mag=    -0.0000
       N       E                     dE             d eps       ncg     rms          rms(c)
DAV:   1    -0.833387932923E+03    0.43003E-03   -0.29447E-01  4250   0.659E-01    0.846E-02
DAV:   2    -0.833388202289E+03   -0.26937E-03   -0.42787E-03  4350   0.777E-02    0.628E-02
DAV:   3    -0.833388182811E+03    0.19477E-04   -0.85570E-05  5210   0.141E-02    0.492E-02
DAV:   4    -0.833388251240E+03   -0.68429E-04   -0.14714E-04  4450   0.203E-02    0.130E-02
DAV:   5    -0.833388259887E+03   -0.86471E-05   -0.26378E-05  4480   0.735E-03    0.894E-03
DAV:   6    -0.833388261576E+03   -0.16887E-05   -0.49094E-06  3920   0.398E-03    0.389E-03
DAV:   7    -0.833388261528E+03    0.48116E-07   -0.59285E-07  3560   0.155E-03
  14 F= -.84102685E+03 E0= -.84102685E+03  d E =0.756633E-04  mag=    -0.0000
       N       E                     dE             d eps       ncg     rms          rms(c)
DAV:   1    -0.833388420297E+03   -0.15872E-03   -0.94546E-03  4270   0.195E-01    0.220E-02
DAV:   2    -0.833388437628E+03   -0.17331E-04   -0.24825E-04  4900   0.289E-02    0.193E-02
DAV:   3    -0.833388433320E+03    0.43079E-05   -0.11193E-05  5500   0.634E-03    0.146E-02
DAV:   4    -0.833388429883E+03    0.34371E-05   -0.86478E-06  4360   0.630E-03    0.663E-03
DAV:   5    -0.833388429736E+03    0.14681E-06   -0.26206E-06  3380   0.307E-03
  15 F= -.84102701E+03 E0= -.84102701E+03  d E =-.163436E-03  mag=     0.0000
       N       E                     dE             d eps       ncg     rms          rms(c)
DAV:   1    -0.833388297184E+03    0.13270E-03   -0.10300E-02  4250   0.188E-01    0.215E-02
DAV:   2    -0.833388314247E+03   -0.17063E-04   -0.24257E-04  4720   0.270E-02    0.177E-02
DAV:   3    -0.833388311104E+03    0.31436E-05   -0.93191E-06  5380   0.577E-03    0.134E-02
DAV:   4    -0.833388309462E+03    0.16413E-05   -0.80021E-06  4240   0.597E-03    0.578E-03
DAV:   5    -0.833388309750E+03   -0.28710E-06   -0.21732E-06  3360   0.271E-03
  16 F= -.84102688E+03 E0= -.84102688E+03  d E =0.125164E-03  mag=     0.0000
       N       E                     dE             d eps       ncg     rms          rms(c)
DAV:   1    -0.833388368818E+03   -0.59356E-04   -0.48763E-04  4260   0.445E-02    0.505E-03
DAV:   2    -0.833388369625E+03   -0.80690E-06   -0.12952E-05  4670   0.665E-03    0.457E-03
DAV:   3    -0.833388369347E+03    0.27858E-06   -0.51676E-07  2620   0.152E-03
  17 F= -.84102695E+03 E0= -.84102694E+03  d E =-.607433E-04  mag=     0.0000
       N       E                     dE             d eps       ncg     rms          rms(c)
DAV:   1    -0.833388429291E+03   -0.59666E-04   -0.14853E-03  4250   0.773E-02    0.949E-03
DAV:   2    -0.833388431723E+03   -0.24322E-05   -0.36014E-05  4960   0.111E-02    0.827E-03
DAV:   3    -0.833388430936E+03    0.78751E-06   -0.15646E-06  3400   0.259E-03
  18 F= -.84102701E+03 E0= -.84102701E+03  d E =-.635548E-04  mag=     0.0000
       N       E                     dE             d eps       ncg     rms          rms(c)
DAV:   1    -0.833388430965E+03    0.75805E-06   -0.21469E-03  4250   0.909E-02    0.116E-02
DAV:   2    -0.833388434230E+03   -0.32645E-05   -0.48941E-05  4840   0.127E-02    0.988E-03
DAV:   3    -0.833388433319E+03    0.91057E-06   -0.21723E-06  3860   0.300E-03
  19 F= -.84102701E+03 E0= -.84102701E+03  d E =-.457875E-05  mag=     0.0000
       N       E                     dE             d eps       ncg     rms          rms(c)
DAV:   1    -0.833388434204E+03    0.25793E-07   -0.92263E-06  4180   0.602E-03    0.260E-03
DAV:   2    -0.833388434207E+03   -0.31941E-08   -0.78003E-07  2600   0.171E-03
  20 F= -.84102701E+03 E0= -.84102701E+03  d E =-.852370E-06  mag=     0.0000
       N       E                     dE             d eps       ncg     rms          rms(c)
DAV:   1    -0.833388436474E+03   -0.22696E-05   -0.16888E-05  4060   0.681E-03    0.102E-03
DAV:   2    -0.833388436492E+03   -0.18772E-07   -0.36379E-07  2560   0.999E-04
  21 F= -.84102702E+03 E0= -.84102702E+03  d E =-.221378E-05  mag=     0.0000
       N       E                     dE             d eps       ncg     rms          rms(c)
DAV:   1    -0.833388439396E+03   -0.29221E-05   -0.37521E-05  4250   0.100E-02    0.140E-03
DAV:   2    -0.833388439427E+03   -0.31250E-07   -0.72515E-07  2680   0.142E-03
  22 F= -.84102702E+03 E0= -.84102702E+03  d E =-.281821E-05  mag=     0.0000
       N       E                     dE             d eps       ncg     rms          rms(c)
DAV:   1    -0.833388442198E+03   -0.28028E-05   -0.63259E-05  4275   0.126E-02    0.211E-03
DAV:   2    -0.833388442236E+03   -0.37893E-07   -0.11321E-06  2760   0.173E-03
  23 F= -.84102702E+03 E0= -.84102702E+03  d E =-.266427E-05  mag=     0.0000
       N       E                     dE             d eps       ncg     rms          rms(c)
DAV:   1    -0.833388444460E+03   -0.22617E-05   -0.92407E-05  4260   0.146E-02    0.264E-03
DAV:   2    -0.833388444505E+03   -0.45366E-07   -0.15523E-06  2900   0.193E-03
  24 F= -.84102702E+03 E0= -.84102702E+03  d E =-.210852E-05  mag=     0.0000
       N       E                     dE             d eps       ncg     rms          rms(c)
DAV:   1    -0.833388445975E+03   -0.15145E-05   -0.12461E-04  4255   0.159E-02    0.304E-03
DAV:   2    -0.833388445992E+03   -0.17331E-07   -0.19533E-06  2920   0.204E-03
  25 F= -.84102703E+03 E0= -.84102702E+03  d E =-.134469E-05  mag=     0.0000
       N       E                     dE             d eps       ncg     rms          rms(c)
DAV:   1    -0.833388446912E+03   -0.93736E-06   -0.19611E-04  4255   0.184E-02    0.355E-03
DAV:   2    -0.833388446865E+03    0.47425E-07   -0.28359E-06  3010   0.226E-03
  26 F= -.84102703E+03 E0= -.84102703E+03  d E =-.751873E-06  mag=     0.0000
       N       E                     dE             d eps       ncg     rms          rms(c)
DAV:   1    -0.833388447734E+03   -0.82167E-06   -0.30024E-04  4255   0.208E-02    0.415E-03
DAV:   2    -0.833388447590E+03    0.14371E-06   -0.39739E-06  3020   0.240E-03
  27 F= -.84102703E+03 E0= -.84102703E+03  d E =-.691016E-06  mag=     0.0000
       N       E                     dE             d eps       ncg     rms          rms(c)
DAV:   1    -0.833388449329E+03   -0.15954E-05   -0.45621E-04  4210   0.238E-02    0.488E-03
DAV:   2    -0.833388449142E+03    0.18755E-06   -0.55920E-06  3130   0.259E-03
  28 F= -.84102703E+03 E0= -.84102703E+03  d E =-.164906E-05  mag=     0.0000
       N       E                     dE             d eps       ncg     rms          rms(c)
DAV:   1    -0.833388452688E+03   -0.33592E-05   -0.69843E-04  4250   0.290E-02    0.588E-03
DAV:   2    -0.833388452497E+03    0.19187E-06   -0.83536E-06  3280   0.308E-03
  29 F= -.84102703E+03 E0= -.84102703E+03  d E =-.356219E-05  mag=     0.0000
       N       E                     dE             d eps       ncg     rms          rms(c)
DAV:   1    -0.833388457075E+03   -0.43867E-05   -0.10872E-03  4270   0.372E-02    0.732E-03
DAV:   2    -0.833388456928E+03    0.14756E-06   -0.13472E-05  3550   0.404E-03    0.565E-03
DAV:   3    -0.833388457412E+03   -0.48491E-06   -0.42920E-07  2920   0.110E-03
  30 F= -.84102704E+03 E0= -.84102704E+03  d E =-.525762E-05  mag=     0.0000
       N       E                     dE             d eps       ncg     rms          rms(c)
DAV:   1    -0.833388462383E+03   -0.54556E-05   -0.16686E-03  4250   0.465E-02    0.638E-03
DAV:   2    -0.833388463215E+03   -0.83193E-06   -0.20715E-05  3870   0.500E-03    0.441E-03
DAV:   3    -0.833388463333E+03   -0.11806E-06   -0.37702E-07  2960   0.957E-04
  31 F= -.84102704E+03 E0= -.84102704E+03  d E =-.640706E-05  mag=     0.0000
       N       E                     dE             d eps       ncg     rms          rms(c)
DAV:   1    -0.833388467578E+03   -0.43626E-05   -0.26289E-03  4290   0.572E-02    0.774E-03
DAV:   2    -0.833388469127E+03   -0.15496E-05   -0.32800E-05  4130   0.608E-03    0.538E-03
DAV:   3    -0.833388469177E+03   -0.49993E-07   -0.55281E-07  3000   0.104E-03
  32 F= -.84102705E+03 E0= -.84102705E+03  d E =-.644004E-05  mag=     0.0000
       N       E                     dE             d eps       ncg     rms          rms(c)
DAV:   1    -0.833388475175E+03   -0.60474E-05   -0.40215E-03  4310   0.685E-02    0.946E-03
DAV:   2    -0.833388477398E+03   -0.22231E-05   -0.47871E-05  4270   0.704E-03    0.656E-03
DAV:   3    -0.833388477510E+03   -0.11160E-06   -0.76778E-07  3140   0.110E-03
  33 F= -.84102706E+03 E0= -.84102706E+03  d E =-.869812E-05  mag=     0.0000
       N       E                     dE             d eps       ncg     rms          rms(c)
DAV:   1    -0.833388486823E+03   -0.94252E-05   -0.61448E-03  4330   0.841E-02    0.116E-02
DAV:   2    -0.833388490234E+03   -0.34110E-05   -0.72073E-05  4310   0.859E-03    0.804E-03
DAV:   3    -0.833388490404E+03   -0.16977E-06   -0.11525E-06  3300   0.132E-03
  34 F= -.84102707E+03 E0= -.84102707E+03  d E =-.130783E-04  mag=     0.0000
       N       E                     dE             d eps       ncg     rms          rms(c)
DAV:   1    -0.833388500668E+03   -0.10433E-04   -0.94433E-03  4310   0.105E-01    0.144E-02
DAV:   2    -0.833388506160E+03   -0.54929E-05   -0.11211E-04  4290   0.109E-02    0.100E-02
DAV:   3    -0.833388506311E+03   -0.15060E-06   -0.18262E-06  3480   0.171E-03
  35 F= -.84102709E+03 E0= -.84102709E+03  d E =-.161240E-04  mag=     0.0000
       N       E                     dE             d eps       ncg     rms          rms(c)
DAV:   1    -0.833388515300E+03   -0.91398E-05   -0.14330E-02  4320   0.128E-01    0.177E-02
DAV:   2    -0.833388523225E+03   -0.79250E-05   -0.16747E-04  4290   0.131E-02    0.123E-02
DAV:   3    -0.833388523715E+03   -0.48968E-06   -0.27155E-06  3375   0.202E-03
  36 F= -.84102711E+03 E0= -.84102711E+03  d E =-.179802E-04  mag=     0.0000
       N       E                     dE             d eps       ncg     rms          rms(c)
DAV:   1    -0.833388528521E+03   -0.52959E-05   -0.21424E-02  4320   0.155E-01    0.216E-02
DAV:   2    -0.833388539198E+03   -0.10677E-04   -0.24687E-04  4310   0.156E-02    0.150E-02
DAV:   3    -0.833388540000E+03   -0.80203E-06   -0.39835E-06  3495   0.240E-03
  37 F= -.84102712E+03 E0= -.84102712E+03  d E =-.173461E-04  mag=     0.0000
       N       E                     dE             d eps       ncg     rms          rms(c)
DAV:   1    -0.833388544450E+03   -0.52513E-05   -0.31617E-02  4300   0.188E-01    0.262E-02
DAV:   2    -0.833388561683E+03   -0.17233E-04   -0.36526E-04  4290   0.191E-02    0.181E-02
DAV:   3    -0.833388562329E+03   -0.64611E-06   -0.59592E-06  4015   0.293E-03
  38 F= -.84102715E+03 E0= -.84102715E+03  d E =-.233011E-04  mag=     0.0000
       N       E                     dE             d eps       ncg     rms          rms(c)
DAV:   1    -0.833388567276E+03   -0.55937E-05   -0.47075E-02  4320   0.228E-01    0.318E-02
DAV:   2    -0.833388591621E+03   -0.24345E-04   -0.53744E-04  4260   0.229E-02    0.220E-02
DAV:   3    -0.833388593513E+03   -0.18914E-05   -0.86900E-06  3920   0.347E-03    0.168E-02
DAV:   4    -0.833388611110E+03   -0.17597E-04   -0.19293E-05  3915   0.568E-03    0.314E-03
DAV:   5    -0.833388611602E+03   -0.49228E-06   -0.27050E-06  3380   0.167E-03
  39 F= -.84102720E+03 E0= -.84102720E+03  d E =-.502677E-04  mag=    -0.0000
       N       E                     dE             d eps       ncg     rms          rms(c)
DAV:   1    -0.833388596200E+03    0.14910E-04   -0.71362E-02  4320   0.280E-01    0.377E-02
DAV:   2    -0.833388645900E+03   -0.49699E-04   -0.87388E-04  4240   0.292E-02    0.261E-02
DAV:   3    -0.833388644134E+03    0.17652E-05   -0.14006E-05  4340   0.437E-03    0.203E-02
DAV:   4    -0.833388665574E+03   -0.21439E-04   -0.33448E-05  4030   0.749E-03    0.403E-03
DAV:   5    -0.833388666435E+03   -0.86116E-06   -0.48276E-06  3400   0.221E-03
  40 F= -.84102725E+03 E0= -.84102725E+03  d E =-.556239E-04  mag=    -0.0000
       N       E                     dE             d eps       ncg     rms          rms(c)
DAV:   1    -0.833388637357E+03    0.28217E-04   -0.10393E-01  4340   0.335E-01    0.456E-02
DAV:   2    -0.833388705743E+03   -0.68386E-04   -0.12639E-03  4240   0.347E-02    0.315E-02
DAV:   3    -0.833388706446E+03   -0.70276E-06   -0.20243E-05  4280   0.516E-03    0.244E-02
DAV:   4    -0.833388738566E+03   -0.32120E-04   -0.47763E-05  4150   0.885E-03    0.488E-03
DAV:   5    -0.833388739808E+03   -0.12414E-05   -0.67912E-06  3460   0.256E-03    0.488E-03
DAV:   6    -0.833388739747E+03    0.60514E-07   -0.12382E-06  3120   0.196E-03
  41 F= -.84102732E+03 E0= -.84102732E+03  d E =-.716268E-04  mag=     0.0000
       N       E                     dE             d eps       ncg     rms          rms(c)
DAV:   1    -0.833388691181E+03    0.48627E-04   -0.15034E-01  4340   0.401E-01    0.546E-02
DAV:   2    -0.833388788019E+03   -0.96838E-04   -0.18122E-03  4240   0.413E-02    0.379E-02
DAV:   3    -0.833388782782E+03    0.52368E-05   -0.29332E-05  4640   0.617E-03    0.294E-02
DAV:   4    -0.833388832163E+03   -0.49381E-04   -0.72715E-05  4135   0.108E-02    0.602E-03
DAV:   5    -0.833388834388E+03   -0.22250E-05   -0.10451E-05  3820   0.310E-03    0.603E-03
DAV:   6    -0.833388834536E+03   -0.14769E-06   -0.17608E-06  3200   0.228E-03
  42 F= -.84102741E+03 E0= -.84102741E+03  d E =-.907156E-04  mag=    -0.0000
       N       E                     dE             d eps       ncg     rms          rms(c)
DAV:   1    -0.833388744184E+03    0.90203E-04   -0.21844E-01  4340   0.481E-01    0.660E-02
DAV:   2    -0.833388903676E+03   -0.15949E-03   -0.26198E-03  4250   0.494E-02    0.456E-02
DAV:   3    -0.833388889140E+03    0.14537E-04   -0.42131E-05  4760   0.734E-03    0.353E-02
DAV:   4    -0.833388948197E+03   -0.59057E-04   -0.10377E-04  4225   0.128E-02    0.727E-03
DAV:   5    -0.833388951739E+03   -0.35428E-05   -0.14724E-05  3900   0.367E-03    0.722E-03
DAV:   6    -0.833388952102E+03   -0.36282E-06   -0.28373E-06  3300   0.285E-03
  43 F= -.84102753E+03 E0= -.84102753E+03  d E =-.112553E-03  mag=     0.0000
       N       E                     dE             d eps       ncg     rms          rms(c)
DAV:   1    -0.833388770186E+03    0.18155E-03   -0.30943E-01  4320   0.576E-01    0.790E-02
DAV:   2    -0.833389007715E+03   -0.23753E-03   -0.37440E-03  4260   0.596E-02    0.545E-02
DAV:   3    -0.833388994283E+03    0.13432E-04   -0.61097E-05  4840   0.900E-03    0.422E-02
DAV:   4    -0.833389061917E+03   -0.67634E-04   -0.14825E-04  4270   0.156E-02    0.892E-03
DAV:   5    -0.833389067054E+03   -0.51364E-05   -0.21207E-05  4260   0.458E-03    0.879E-03
DAV:   6    -0.833389067654E+03   -0.60022E-06   -0.44955E-06  3500   0.358E-03
  44 F= -.84102763E+03 E0= -.84102763E+03  d E =-.104660E-03  mag=    -0.0000
       N       E                     dE             d eps       ncg     rms          rms(c)
DAV:   1    -0.833388791493E+03    0.27556E-03   -0.43372E-01  4320   0.692E-01    0.942E-02
DAV:   2    -0.833389145276E+03   -0.35378E-03   -0.52901E-03  4300   0.727E-02    0.651E-02
DAV:   3    -0.833389122837E+03    0.22438E-04   -0.87693E-05  5000   0.113E-02    0.505E-02
DAV:   4    -0.833389203135E+03   -0.80298E-04   -0.20719E-04  4370   0.193E-02    0.112E-02
DAV:   5    -0.833389211098E+03   -0.79624E-05   -0.30296E-05  4600   0.602E-03    0.107E-02
DAV:   6    -0.833389212397E+03   -0.12997E-05   -0.63002E-06  3800   0.429E-03    0.449E-03
DAV:   7    -0.833389212410E+03   -0.13213E-07   -0.14372E-06  3640   0.184E-03
  45 F= -.84102777E+03 E0= -.84102777E+03  d E =-.137601E-03  mag=    -0.0000
       N       E                     dE             d eps       ncg     rms          rms(c)
DAV:   1    -0.833388776688E+03    0.43571E-03   -0.60226E-01  4260   0.847E-01    0.113E-01
DAV:   2    -0.833389300985E+03   -0.52430E-03   -0.75709E-03  4310   0.923E-02    0.781E-02
DAV:   3    -0.833389267460E+03    0.33526E-04   -0.13665E-04  4980   0.153E-02    0.605E-02
DAV:   4    -0.833389341785E+03   -0.74325E-04   -0.27388E-04  4470   0.239E-02    0.143E-02
DAV:   5    -0.833389361042E+03   -0.19258E-04   -0.43208E-05  4480   0.768E-03    0.122E-02
DAV:   6    -0.833389364893E+03   -0.38508E-05   -0.10532E-05  4140   0.565E-03    0.477E-03
DAV:   7    -0.833389364695E+03    0.19858E-06   -0.13517E-06  3860   0.206E-03
  46 F= -.84102789E+03 E0= -.84102789E+03  d E =-.121022E-03  mag=     0.0000
       N       E                     dE             d eps       ncg     rms          rms(c)
DAV:   1    -0.833389462000E+03   -0.97106E-04   -0.40017E-03  4240   0.130E-01    0.148E-02
DAV:   2    -0.833389469204E+03   -0.72043E-05   -0.10561E-04  5360   0.194E-02    0.129E-02
DAV:   3    -0.833389467033E+03    0.21711E-05   -0.55280E-06  4960   0.449E-03    0.947E-03
DAV:   4    -0.833389465562E+03    0.14712E-05   -0.39704E-06  3940   0.424E-03    0.449E-03
DAV:   5    -0.833389465444E+03    0.11783E-06   -0.99322E-07  2720   0.202E-03
  47 F= -.84102800E+03 E0= -.84102800E+03  d E =-.108778E-03  mag=    -0.0000
       N       E                     dE             d eps       ncg     rms          rms(c)
DAV:   1    -0.833389395112E+03    0.70450E-04   -0.52854E-03  4240   0.149E-01    0.171E-02
DAV:   2    -0.833389404554E+03   -0.94426E-05   -0.13460E-04  5400   0.219E-02    0.146E-02
DAV:   3    -0.833389401856E+03    0.26979E-05   -0.72553E-06  5420   0.516E-03    0.106E-02
DAV:   4    -0.833389400333E+03    0.15235E-05   -0.49226E-06  4240   0.472E-03    0.509E-03
DAV:   5    -0.833389400236E+03    0.96858E-07   -0.12148E-06  2860   0.223E-03
  48 F= -.84102794E+03 E0= -.84102794E+03  d E =0.555869E-04  mag=     0.0000
       N       E                     dE             d eps       ncg     rms          rms(c)
DAV:   1    -0.833389430455E+03   -0.30122E-04   -0.19460E-04  4260   0.284E-02    0.328E-03
DAV:   2    -0.833389430770E+03   -0.31497E-06   -0.53472E-06  4380   0.433E-03
  49 F= -.84102797E+03 E0= -.84102797E+03  d E =-.295300E-04  mag=     0.0000
       N       E                     dE             d eps       ncg     rms          rms(c)
DAV:   1    -0.833389466782E+03   -0.36327E-04   -0.60405E-04  4270   0.499E-02    0.749E-03
DAV:   2    -0.833389467398E+03   -0.61563E-06   -0.15097E-05  5450   0.734E-03    0.647E-03
DAV:   3    -0.833389466700E+03    0.69755E-06   -0.13077E-06  2410   0.246E-03
  50 F= -.84102801E+03 E0= -.84102801E+03  d E =-.341033E-04  mag=    -0.0000
       N       E                     dE             d eps       ncg     rms          rms(c)
DAV:   1    -0.833389479714E+03   -0.12316E-04   -0.87761E-04  4270   0.598E-02    0.784E-03
DAV:   2    -0.833389481155E+03   -0.14411E-05   -0.20592E-05  5310   0.848E-03    0.678E-03
DAV:   3    -0.833389480667E+03    0.48732E-06   -0.95333E-07  2585   0.212E-03
  51 F= -.84102802E+03 E0= -.84102802E+03  d E =-.117667E-04  mag=     0.0000
       N       E                     dE             d eps       ncg     rms          rms(c)
DAV:   1    -0.833389480718E+03    0.43700E-06   -0.23209E-06  3120   0.323E-03    0.171E-03
DAV:   2    -0.833389480716E+03    0.14334E-08   -0.35539E-07  2180   0.123E-03
  52 F= -.84102802E+03 E0= -.84102802E+03  d E =-.102466E-06  mag=     0.0000
       N       E                     dE             d eps       ncg     rms          rms(c)
DAV:   1    -0.833389481135E+03   -0.41690E-06   -0.16176E-06  2620   0.233E-03    0.679E-04
DAV:   2    -0.833389481144E+03   -0.95897E-08   -0.70012E-08  2180   0.562E-04
  53 F= -.84102802E+03 E0= -.84102802E+03  d E =-.539334E-06  mag=     0.0000
       N       E                     dE             d eps       ncg     rms          rms(c)
DAV:   1    -0.833389481677E+03   -0.54270E-06   -0.35835E-06  3260   0.341E-03    0.583E-04
DAV:   2    -0.833389481685E+03   -0.78144E-08   -0.80394E-08  2180   0.569E-04
  54 F= -.84102802E+03 E0= -.84102802E+03  d E =-.705863E-06  mag=     0.0000
       N       E                     dE             d eps       ncg     rms          rms(c)
DAV:   1    -0.833389482251E+03   -0.57408E-06   -0.62242E-06  3805   0.437E-03    0.808E-04
DAV:   2    -0.833389482255E+03   -0.37398E-08   -0.12393E-07  2195   0.671E-04
  55 F= -.84102802E+03 E0= -.84102802E+03  d E =-.795257E-06  mag=     0.0000
       N       E                     dE             d eps       ncg     rms          rms(c)
DAV:   1    -0.833389482798E+03   -0.54680E-06   -0.94737E-06  3950   0.525E-03    0.100E-03
DAV:   2    -0.833389482803E+03   -0.49258E-08   -0.18062E-07  2285   0.756E-04
  56 F= -.84102802E+03 E0= -.84102802E+03  d E =-.831490E-06  mag=     0.0000
       N       E                     dE             d eps       ncg     rms          rms(c)
DAV:   1    -0.833389483273E+03   -0.47499E-06   -0.13267E-05  3980   0.600E-03    0.122E-03
DAV:   2    -0.833389483277E+03   -0.42346E-08   -0.23706E-07  2320   0.835E-04
  57 F= -.84102802E+03 E0= -.84102802E+03  d E =-.814438E-06  mag=     0.0000
       N       E                     dE             d eps       ncg     rms          rms(c)
DAV:   1    -0.833389483712E+03   -0.43919E-06   -0.21394E-05  4020   0.728E-03    0.148E-03
DAV:   2    -0.833389483718E+03   -0.56680E-08   -0.35844E-07  2390   0.970E-04
  58 F= -.84102802E+03 E0= -.84102802E+03  d E =-.884142E-06  mag=     0.0000
       N       E                     dE             d eps       ncg     rms          rms(c)
DAV:   1    -0.833389484098E+03   -0.38513E-06   -0.34173E-05  4020   0.881E-03    0.184E-03
DAV:   2    -0.833389484107E+03   -0.97280E-08   -0.55128E-07  2745   0.115E-03
  59 F= -.84102802E+03 E0= -.84102802E+03  d E =-.967628E-06  mag=     0.0000
       N       E                     dE             d eps       ncg     rms          rms(c)
DAV:   1    -0.833389484450E+03   -0.35264E-06   -0.54352E-05  4090   0.107E-02    0.229E-03
DAV:   2    -0.833389484467E+03   -0.17237E-07   -0.83673E-07  2820   0.134E-03
  60 F= -.84102803E+03 E0= -.84102803E+03  d E =-.111297E-05  mag=     0.0000
       N       E                     dE             d eps       ncg     rms          rms(c)
DAV:   1    -0.833389484961E+03   -0.51087E-06   -0.86465E-05  4180   0.132E-02    0.285E-03
DAV:   2    -0.833389484995E+03   -0.33935E-07   -0.12918E-06  2940   0.159E-03
  61 F= -.84102803E+03 E0= -.84102803E+03  d E =-.141105E-05  mag=     0.0000
       N       E                     dE             d eps       ncg     rms          rms(c)
DAV:   1    -0.833389485629E+03   -0.66843E-06   -0.13690E-04  4260   0.164E-02    0.359E-03
DAV:   2    -0.833389485694E+03   -0.64530E-07   -0.20164E-06  3020   0.193E-03
  62 F= -.84102803E+03 E0= -.84102803E+03  d E =-.174889E-05  mag=     0.0000
       N       E                     dE             d eps       ncg     rms          rms(c)
DAV:   1    -0.833389486493E+03   -0.86308E-06   -0.21487E-04  4240   0.204E-02    0.451E-03
DAV:   2    -0.833389486609E+03   -0.11673E-06   -0.32298E-06  3180   0.244E-03
  63 F= -.84102803E+03 E0= -.84102803E+03  d E =-.216391E-05  mag=     0.0000
       N       E                     dE             d eps       ncg     rms          rms(c)
DAV:   1    -0.833389487477E+03   -0.98446E-06   -0.32913E-04  4250   0.250E-02    0.566E-03
DAV:   2    -0.833389487683E+03   -0.20582E-06   -0.49636E-06  3340   0.300E-03
  64 F= -.84102803E+03 E0= -.84102803E+03  d E =-.267763E-05  mag=     0.0000
       N       E                     dE             d eps       ncg     rms          rms(c)
DAV:   1    -0.833389488359E+03   -0.88208E-06   -0.49615E-04  4240   0.305E-02    0.702E-03
DAV:   2    -0.833389488687E+03   -0.32819E-06   -0.74435E-06  3540   0.362E-03
  65 F= -.84102804E+03 E0= -.84102804E+03  d E =-.322903E-05  mag=     0.0000
       N       E                     dE             d eps       ncg     rms          rms(c)
DAV:   1    -0.833389488937E+03   -0.57773E-06   -0.72850E-04  4260   0.365E-02    0.860E-03
DAV:   2    -0.833389489463E+03   -0.52653E-06   -0.10810E-05  3760   0.430E-03    0.706E-03
DAV:   3    -0.833389489704E+03   -0.24052E-06   -0.47807E-07  3070   0.137E-03
  66 F= -.84102804E+03 E0= -.84102804E+03  d E =-.420774E-05  mag=     0.0000
       N       E                     dE             d eps       ncg     rms          rms(c)
DAV:   1    -0.833389489082E+03    0.38141E-06   -0.10505E-03  4240   0.437E-02    0.687E-03
DAV:   2    -0.833389490205E+03   -0.11231E-05   -0.15649E-05  4050   0.511E-03    0.556E-03
DAV:   3    -0.833389490283E+03   -0.77547E-07   -0.30375E-07  3260   0.108E-03
  67 F= -.84102805E+03 E0= -.84102805E+03  d E =-.509758E-05  mag=     0.0000
       N       E                     dE             d eps       ncg     rms          rms(c)
DAV:   1    -0.833389487546E+03    0.26590E-05   -0.14952E-03  4260   0.524E-02    0.826E-03
DAV:   2    -0.833389489177E+03   -0.16307E-05   -0.22409E-05  4330   0.612E-03    0.677E-03
DAV:   3    -0.833389489227E+03   -0.50131E-07   -0.42846E-07  3240   0.125E-03
  68 F= -.84102805E+03 E0= -.84102805E+03  d E =-.446979E-05  mag=     0.0000
       N       E                     dE             d eps       ncg     rms          rms(c)
DAV:   1    -0.833389485801E+03    0.33756E-05   -0.21582E-03  4260   0.625E-02    0.100E-02
DAV:   2    -0.833389488155E+03   -0.23541E-05   -0.31939E-05  4380   0.724E-03    0.822E-03
DAV:   3    -0.833389488238E+03   -0.82378E-07   -0.63836E-07  3460   0.150E-03
  69 F= -.84102806E+03 E0= -.84102806E+03  d E =-.537945E-05  mag=     0.0000
       N       E                     dE             d eps       ncg     rms          rms(c)
DAV:   1    -0.833389483742E+03    0.44136E-05   -0.33154E-03  4260   0.774E-02    0.124E-02
DAV:   2    -0.833389487527E+03   -0.37856E-05   -0.49855E-05  4400   0.907E-03    0.102E-02
DAV:   3    -0.833389487609E+03   -0.81738E-07   -0.98383E-07  3460   0.188E-03
  70 F= -.84102806E+03 E0= -.84102806E+03  d E =-.659437E-05  mag=     0.0000
       N       E                     dE             d eps       ncg     rms          rms(c)
DAV:   1    -0.833389481078E+03    0.64488E-05   -0.51182E-03  4260   0.938E-02    0.151E-02
DAV:   2    -0.833389487008E+03   -0.59298E-05   -0.76638E-05  4440   0.110E-02    0.125E-02
DAV:   3    -0.833389487129E+03   -0.12121E-06   -0.14415E-06  3540   0.221E-03
  71 F= -.84102807E+03 E0= -.84102807E+03  d E =-.765336E-05  mag=     0.0000
       N       E                     dE             d eps       ncg     rms          rms(c)
DAV:   1    -0.833389476738E+03    0.10270E-04   -0.72948E-03  4260   0.112E-01    0.180E-02
DAV:   2    -0.833389485266E+03   -0.85276E-05   -0.11065E-04  4420   0.131E-02    0.149E-02
DAV:   3    -0.833389485553E+03   -0.28712E-06   -0.20613E-06  3600   0.260E-03
  72 F= -.84102808E+03 E0= -.84102808E+03  d E =-.853470E-05  mag=     0.0000
       N       E                     dE             d eps       ncg     rms          rms(c)
DAV:   1    -0.833389471816E+03    0.13450E-04   -0.95550E-03  4260   0.128E-01    0.211E-02
DAV:   2    -0.833389482980E+03   -0.11165E-04   -0.14583E-04  4420   0.150E-02    0.173E-02
DAV:   3    -0.833389483463E+03   -0.48316E-06   -0.27388E-06  3720   0.299E-03
  73 F= -.84102809E+03 E0= -.84102809E+03  d E =-.104052E-04  mag=     0.0000
       N       E                     dE             d eps       ncg     rms          rms(c)
DAV:   1    -0.833389463640E+03    0.19340E-04   -0.13835E-02  4260   0.155E-01    0.252E-02
DAV:   2    -0.833389480095E+03   -0.16455E-04   -0.21389E-04  4440   0.182E-02    0.207E-02
DAV:   3    -0.833389480562E+03   -0.46692E-06   -0.40362E-06  3800   0.362E-03
  74 F= -.84102810E+03 E0= -.84102810E+03  d E =-.125799E-04  mag=     0.0000
       N       E                     dE             d eps       ncg     rms          rms(c)
DAV:   1    -0.833389452341E+03    0.27754E-04   -0.21245E-02  4240   0.190E-01    0.307E-02
DAV:   2    -0.833389478159E+03   -0.25818E-04   -0.33107E-04  4400   0.224E-02    0.253E-02
DAV:   3    -0.833389478174E+03   -0.14545E-07   -0.61178E-06  4160   0.439E-03
  75 F= -.84102811E+03 E0= -.84102811E+03  d E =-.108416E-04  mag=     0.0000
       N       E                     dE             d eps       ncg     rms          rms(c)
DAV:   1    -0.833389430600E+03    0.47559E-04   -0.29301E-02  4240   0.224E-01    0.365E-02
DAV:   2    -0.833389466006E+03   -0.35405E-04   -0.46171E-04  4420   0.266E-02    0.300E-02
DAV:   3    -0.833389466689E+03   -0.68324E-06   -0.89148E-06  4420   0.528E-03
  76 F= -.84102812E+03 E0= -.84102812E+03  d E =-.308781E-05  mag=     0.0000
       N       E                     dE             d eps       ncg     rms          rms(c)
DAV:   1    -0.833389378866E+03    0.87139E-04   -0.42063E-02  4240   0.271E-01    0.442E-02
DAV:   2    -0.833389428825E+03   -0.49958E-04   -0.67133E-04  4380   0.324E-02    0.359E-02
DAV:   3    -0.833389430812E+03   -0.19879E-05   -0.13414E-05  4800   0.647E-03    0.268E-02
DAV:   4    -0.833389440878E+03   -0.10066E-04   -0.27103E-05  4240   0.830E-03    0.494E-03
DAV:   5    -0.833389441097E+03   -0.21836E-06   -0.39719E-06  3510   0.349E-03
  77 F= -.84102811E+03 E0= -.84102811E+03  d E =0.549004E-05  mag=     0.0000
       N       E                     dE             d eps       ncg     rms          rms(c)
DAV:   1    -0.833389274892E+03    0.16599E-03   -0.65208E-02  4240   0.341E-01    0.512E-02
DAV:   2    -0.833389357939E+03   -0.83048E-04   -0.11179E-03  4470   0.427E-02    0.408E-02
DAV:   3    -0.833389358760E+03   -0.82074E-06   -0.21905E-05  4680   0.819E-03    0.311E-02
DAV:   4    -0.833389370884E+03   -0.12124E-04   -0.39971E-05  4350   0.106E-02    0.705E-03
DAV:   5    -0.833389372236E+03   -0.13514E-05   -0.66644E-06  3960   0.441E-03    0.466E-03
DAV:   6    -0.833389372262E+03   -0.26484E-07   -0.11450E-06  3360   0.209E-03
  78 F= -.84102806E+03 E0= -.84102806E+03  d E =0.467187E-04  mag=     0.0000
       N       E                     dE             d eps       ncg     rms          rms(c)
DAV:   1    -0.833389080138E+03    0.29210E-03   -0.11337E-01  4240   0.457E-01    0.643E-02
DAV:   2    -0.833389238793E+03   -0.15865E-03   -0.20846E-03  4510   0.598E-02    0.517E-02
DAV:   3    -0.833389234303E+03    0.44902E-05   -0.39931E-05  4960   0.108E-02    0.403E-02
DAV:   4    -0.833389246928E+03   -0.12625E-04   -0.94860E-05  4390   0.161E-02    0.932E-03
DAV:   5    -0.833389249089E+03   -0.21612E-05   -0.14256E-05  4520   0.633E-03    0.662E-03
DAV:   6    -0.833389249505E+03   -0.41604E-06   -0.18066E-06  3240   0.259E-03
  79 F= -.84102797E+03 E0= -.84102797E+03  d E =0.964525E-04  mag=    -0.0000
       N       E                     dE             d eps       ncg     rms          rms(c)
DAV:   1    -0.833389316229E+03   -0.67140E-04   -0.34823E-03  4440   0.115E-01    0.135E-02
DAV:   2    -0.833389322833E+03   -0.66038E-05   -0.95051E-05  4740   0.175E-02    0.121E-02
DAV:   3    -0.833389321400E+03    0.14330E-05   -0.34902E-06  4380   0.362E-03    0.965E-03
DAV:   4    -0.833389319918E+03    0.14812E-05   -0.50175E-06  4070   0.460E-03    0.376E-03
DAV:   5    -0.833389319928E+03   -0.94806E-08   -0.10977E-06  2880   0.196E-03
  80 F= -.84102804E+03 E0= -.84102804E+03  d E =-.696913E-04  mag=    -0.0000
       N       E                     dE             d eps       ncg     rms          rms(c)
DAV:   1    -0.833389259594E+03    0.60324E-04   -0.42419E-03  4280   0.125E-01    0.147E-02
DAV:   2    -0.833389267902E+03   -0.83082E-05   -0.11467E-04  4780   0.189E-02    0.124E-02
DAV:   3    -0.833389266542E+03    0.13598E-05   -0.41377E-06  4560   0.394E-03    0.980E-03
DAV:   4    -0.833389265565E+03    0.97771E-06   -0.48502E-06  4035   0.459E-03
  81 F= -.84102798E+03 E0= -.84102798E+03  d E =0.538031E-04  mag=    -0.0000
       N       E                     dE             d eps       ncg     rms          rms(c)
DAV:   1    -0.833389284967E+03   -0.18424E-04   -0.15968E-04  4360   0.246E-02    0.270E-03
DAV:   2    -0.833389285323E+03   -0.35657E-06   -0.53058E-06  3960   0.410E-03
  82 F= -.84102800E+03 E0= -.84102800E+03  d E =-.204693E-04  mag=    -0.0000
       N       E                     dE             d eps       ncg     rms          rms(c)
DAV:   1    -0.833389306583E+03   -0.21616E-04   -0.49865E-04  4500   0.432E-02    0.613E-03
DAV:   2    -0.833389307179E+03   -0.59605E-06   -0.13332E-05  4960   0.658E-03    0.540E-03
DAV:   3    -0.833389306812E+03    0.36727E-06   -0.70836E-07  2600   0.176E-03
  83 F= -.84102803E+03 E0= -.84102803E+03  d E =-.227839E-04  mag=     0.0000
       N       E                     dE             d eps       ncg     rms          rms(c)
DAV:   1    -0.833389308547E+03   -0.13678E-05   -0.72082E-04  4490   0.518E-02    0.701E-03
DAV:   2    -0.833389309638E+03   -0.10915E-05   -0.17508E-05  5020   0.747E-03    0.613E-03
DAV:   3    -0.833389309323E+03    0.31535E-06   -0.62306E-07  2840   0.170E-03
  84 F= -.84102803E+03 E0= -.84102803E+03  d E =-.407440E-05  mag=     0.0000
       N       E                     dE             d eps       ncg     rms          rms(c)
DAV:   1    -0.833389309233E+03    0.40523E-06   -0.27819E-06  3400   0.327E-03    0.145E-03
DAV:   2    -0.833389309245E+03   -0.11991E-07   -0.35333E-07  2230   0.115E-03
  85 F= -.84102803E+03 E0= -.84102803E+03  d E =0.101925E-06  mag=    -0.0000
       N       E                     dE             d eps       ncg     rms          rms(c)
DAV:   1    -0.833389309408E+03   -0.17453E-06   -0.32243E-06  2830   0.274E-03    0.819E-04
DAV:   2    -0.833389309412E+03   -0.38344E-08   -0.79971E-08  2150   0.542E-04
  86 F= -.84102803E+03 E0= -.84102803E+03  d E =-.104477E-06  mag=     0.0000
       N       E                     dE             d eps       ncg     rms          rms(c)
DAV:   1    -0.833389309614E+03   -0.20653E-06   -0.72533E-06  3730   0.406E-03    0.703E-04
DAV:   2    -0.833389309622E+03   -0.79235E-08   -0.14169E-07  2310   0.611E-04
  87 F= -.84102803E+03 E0= -.84102803E+03  d E =-.116550E-06  mag=     0.0000
       N       E                     dE             d eps       ncg     rms          rms(c)
DAV:   1    -0.833389309766E+03   -0.15199E-06   -0.12611E-05  3840   0.526E-03    0.980E-04
DAV:   2    -0.833389309773E+03   -0.64829E-08   -0.23289E-07  2310   0.775E-04
  88 F= -.84102803E+03 E0= -.84102803E+03  d E =-.312364E-07  mag=     0.0000
       N       E                     dE             d eps       ncg     rms          rms(c)
DAV:   1    -0.833389309722E+03    0.44158E-07   -0.18828E-05  3900   0.630E-03    0.124E-03
DAV:   2    -0.833389309723E+03   -0.10477E-08   -0.33025E-07  2310   0.890E-04
  89 F= -.84102803E+03 E0= -.84102803E+03  d E =0.174586E-06  mag=     0.0000
       N       E                     dE             d eps       ncg     rms          rms(c)
DAV:   1    -0.833389309439E+03    0.28348E-06   -0.25463E-05  3920   0.707E-03    0.145E-03
DAV:   2    -0.833389309434E+03    0.49258E-08   -0.42555E-07  2350   0.965E-04
  90 F= -.84102803E+03 E0= -.84102803E+03  d E =0.388625E-06  mag=     0.0000
       N       E                     dE             d eps       ncg     rms          rms(c)
DAV:   1    -0.833389308858E+03    0.58075E-06   -0.40637E-05  4020   0.863E-03    0.173E-03
DAV:   2    -0.833389308844E+03    0.13868E-07   -0.64435E-07  2540   0.112E-03
  91 F= -.84102803E+03 E0= -.84102803E+03  d E =0.643839E-06  mag=     0.0000
       N       E                     dE             d eps       ncg     rms          rms(c)
DAV:   1    -0.833389307839E+03    0.10191E-05   -0.61452E-05  4020   0.103E-02    0.208E-03
DAV:   2    -0.833389307813E+03    0.26070E-07   -0.94043E-07  2730   0.129E-03
  92 F= -.84102803E+03 E0= -.84102803E+03  d E =0.101246E-05  mag=     0.0000
       N       E                     dE             d eps       ncg     rms          rms(c)
DAV:   1    -0.833389306486E+03    0.13530E-05   -0.92509E-05  4080   0.123E-02    0.250E-03
DAV:   2    -0.833389306441E+03    0.44689E-07   -0.13627E-06  2840   0.148E-03
  93 F= -.84102803E+03 E0= -.84102803E+03  d E =0.126019E-05  mag=     0.0000
       N       E                     dE             d eps       ncg     rms          rms(c)
DAV:   1    -0.833389304954E+03    0.15323E-05   -0.14060E-04  4170   0.151E-02    0.302E-03
DAV:   2    -0.833389304884E+03    0.69944E-07   -0.20248E-06  2940   0.174E-03
  94 F= -.84102803E+03 E0= -.84102803E+03  d E =0.137243E-05  mag=     0.0000
       N       E                     dE             d eps       ncg     rms          rms(c)
DAV:   1    -0.833389303169E+03    0.17841E-05   -0.21635E-04  4250   0.187E-02    0.372E-03
DAV:   2    -0.833389303061E+03    0.10858E-06   -0.30706E-06  2980   0.212E-03
  95 F= -.84102802E+03 E0= -.84102802E+03  d E =0.159929E-05  mag=     0.0000
       N       E                     dE             d eps       ncg     rms          rms(c)
DAV:   1    -0.833389300644E+03    0.25250E-05   -0.33246E-04  4245   0.231E-02    0.461E-03
DAV:   2    -0.833389300524E+03    0.12057E-06   -0.47142E-06  3040   0.261E-03
  96 F= -.84102802E+03 E0= -.84102802E+03  d E =0.208184E-05  mag=     0.0000
       N       E                     dE             d eps       ncg     rms          rms(c)
DAV:   1    -0.833389297316E+03    0.33282E-05   -0.50594E-04  4240   0.282E-02    0.569E-03
DAV:   2    -0.833389297210E+03    0.10602E-06   -0.71336E-06  3210   0.318E-03
  97 F= -.84102802E+03 E0= -.84102802E+03  d E =0.270179E-05  mag=     0.0000
       N       E                     dE             d eps       ncg     rms          rms(c)
DAV:   1    -0.833389293205E+03    0.41111E-05   -0.76319E-04  4240   0.344E-02    0.698E-03
DAV:   2    -0.833389293139E+03    0.66480E-07   -0.10659E-05  3440   0.384E-03    0.506E-03
DAV:   3    -0.833389293737E+03   -0.59835E-06   -0.34747E-07  2800   0.112E-03
  98 F= -.84102802E+03 E0= -.84102802E+03  d E =0.272687E-05  mag=    -0.0000
       N       E                     dE             d eps       ncg     rms          rms(c)
DAV:   1    -0.833389289532E+03    0.36069E-05   -0.11118E-03  4260   0.413E-02    0.599E-03
DAV:   2    -0.833389290094E+03   -0.56216E-06   -0.15458E-05  3720   0.455E-03    0.389E-03
DAV:   3    -0.833389290282E+03   -0.18856E-06   -0.28026E-07  2920   0.946E-04
  99 F= -.84102801E+03 E0= -.84102801E+03  d E =0.277348E-05  mag=     0.0000
       N       E                     dE             d eps       ncg     rms          rms(c)
DAV:   1    -0.833389285575E+03    0.45186E-05   -0.16505E-03  4260   0.502E-02    0.714E-03
DAV:   2    -0.833389286614E+03   -0.10389E-05   -0.23526E-05  4040   0.560E-03    0.468E-03
DAV:   3    -0.833389286798E+03   -0.18341E-06   -0.38166E-07  2800   0.104E-03
 100 F= -.84102801E+03 E0= -.84102801E+03  d E =0.320040E-05  mag=     0.0000
       N       E                     dE             d eps       ncg     rms          rms(c)
DAV:   1    -0.833389280729E+03    0.58846E-05   -0.23821E-03  4260   0.602E-02    0.862E-03
DAV:   2    -0.833389282279E+03   -0.15500E-05   -0.33708E-05  4240   0.669E-03    0.567E-03
DAV:   3    -0.833389282550E+03   -0.27019E-06   -0.51189E-07  2900   0.116E-03
 101 F= -.84102801E+03 E0= -.84102801E+03  d E =0.399364E-05  mag=     0.0000
       N       E                     dE             d eps       ncg     rms          rms(c)
DAV:   1    -0.833389274086E+03    0.81930E-05   -0.33833E-03  4240   0.719E-02    0.103E-02
DAV:   2    -0.833389276406E+03   -0.23198E-05   -0.47564E-05  4340   0.795E-03    0.674E-03
DAV:   3    -0.833389276728E+03   -0.32152E-06   -0.71960E-07  2960   0.139E-03
 102 F= -.84102800E+03 E0= -.84102800E+03  d E =0.495409E-05  mag=     0.0000
       N       E                     dE             d eps       ncg     rms          rms(c)
DAV:   1    -0.833389266820E+03    0.95859E-05   -0.47519E-03  4260   0.853E-02    0.123E-02
DAV:   2    -0.833389270389E+03   -0.35683E-05   -0.65843E-05  4340   0.932E-03    0.797E-03
DAV:   3    -0.833389270701E+03   -0.31204E-06   -0.10084E-06  3020   0.162E-03
 103 F= -.84102800E+03 E0= -.84102800E+03  d E =0.487858E-05  mag=     0.0000
       N       E                     dE             d eps       ncg     rms          rms(c)
DAV:   1    -0.833389258597E+03    0.11792E-04   -0.67970E-03  4260   0.102E-01    0.147E-02
DAV:   2    -0.833389264138E+03   -0.55413E-05   -0.94036E-05  4320   0.112E-02    0.958E-03
DAV:   3    -0.833389264606E+03   -0.46795E-06   -0.14540E-06  3080   0.195E-03
 104 F= -.84102799E+03 E0= -.84102799E+03  d E =0.570541E-05  mag=     0.0000
       N       E                     dE             d eps       ncg     rms          rms(c)
DAV:   1    -0.833389250030E+03    0.14108E-04   -0.96589E-03  4280   0.122E-01    0.176E-02
DAV:   2    -0.833389258080E+03   -0.80494E-05   -0.13209E-04  4340   0.133E-02    0.115E-02
DAV:   3    -0.833389258877E+03   -0.79707E-06   -0.20441E-06  3060   0.232E-03
 105 F= -.84102798E+03 E0= -.84102798E+03  d E =0.635180E-05  mag=     0.0000
       N       E                     dE             d eps       ncg     rms          rms(c)
DAV:   1    -0.833389236608E+03    0.21472E-04   -0.13454E-02  4260   0.144E-01    0.208E-02
DAV:   2    -0.833389247966E+03   -0.11358E-04   -0.18339E-04  4340   0.158E-02    0.137E-02
DAV:   3    -0.833389249106E+03   -0.11399E-05   -0.28645E-06  3280   0.280E-03    0.975E-03
DAV:   4    -0.833389253432E+03   -0.43264E-05   -0.43014E-06  3710   0.352E-03    0.187E-03
DAV:   5    -0.833389253571E+03   -0.13829E-06   -0.77289E-07  3180   0.140E-03
 106 F= -.84102798E+03 E0= -.84102798E+03  d E =0.550897E-05  mag=    -0.0000
       N       E                     dE             d eps       ncg     rms          rms(c)
DAV:   1    -0.833389212154E+03    0.41279E-04   -0.18588E-02  4300   0.170E-01    0.237E-02
DAV:   2    -0.833389229370E+03   -0.17216E-04   -0.26198E-04  4300   0.191E-02    0.154E-02
DAV:   3    -0.833389230316E+03   -0.94675E-06   -0.41200E-06  3420   0.341E-03
 107 F= -.84102796E+03 E0= -.84102796E+03  d E =0.211539E-04  mag=     0.0000
       N       E                     dE             d eps       ncg     rms          rms(c)
DAV:   1    -0.833389180676E+03    0.48694E-04   -0.27568E-02  4280   0.206E-01    0.300E-02
DAV:   2    -0.833389201872E+03   -0.21196E-04   -0.36651E-04  4320   0.225E-02    0.198E-02
DAV:   3    -0.833389205439E+03   -0.35677E-05   -0.59267E-06  3660   0.398E-03    0.139E-02
DAV:   4    -0.833389214267E+03   -0.88277E-05   -0.81991E-06  3950   0.485E-03    0.266E-03
DAV:   5    -0.833389214511E+03   -0.24442E-06   -0.15481E-06  3160   0.191E-03
 108 F= -.84102794E+03 E0= -.84102794E+03  d E =0.168360E-04  mag=     0.0000
       N       E                     dE             d eps       ncg     rms          rms(c)
DAV:   1    -0.833389141545E+03    0.72722E-04   -0.40987E-02  4320   0.252E-01    0.352E-02
DAV:   2    -0.833389176583E+03   -0.35037E-04   -0.57447E-04  4250   0.286E-02    0.229E-02
DAV:   3    -0.833389179014E+03   -0.24308E-05   -0.93450E-06  4000   0.508E-03    0.164E-02
DAV:   4    -0.833389191587E+03   -0.12573E-04   -0.13473E-05  4250   0.642E-03    0.342E-03
DAV:   5    -0.833389192034E+03   -0.44746E-06   -0.27770E-06  3420   0.259E-03
 109 F= -.84102792E+03 E0= -.84102792E+03  d E =0.236009E-04  mag=     0.0000
       N       E                     dE             d eps       ncg     rms          rms(c)
DAV:   1    -0.833389089427E+03    0.10216E-03   -0.58066E-02  4300   0.302E-01    0.419E-02
DAV:   2    -0.833389136835E+03   -0.47408E-04   -0.80911E-04  4290   0.343E-02    0.274E-02
DAV:   3    -0.833389140964E+03   -0.41282E-05   -0.13616E-05  4440   0.622E-03    0.195E-02
DAV:   4    -0.833389159759E+03   -0.18795E-04   -0.18256E-05  4270   0.759E-03    0.429E-03
DAV:   5    -0.833389160498E+03   -0.73871E-06   -0.39229E-06  3560   0.310E-03
 110 F= -.84102789E+03 E0= -.84102789E+03  d E =0.316036E-04  mag=     0.0000
       N       E                     dE             d eps       ncg     rms          rms(c)
DAV:   1    -0.833389003132E+03    0.15663E-03   -0.81456E-02  4300   0.369E-01    0.502E-02
DAV:   2    -0.833389080020E+03   -0.76888E-04   -0.12072E-03  4290   0.437E-02    0.334E-02
DAV:   3    -0.833389080704E+03   -0.68348E-06   -0.22151E-05  4900   0.815E-03    0.240E-02
DAV:   4    -0.833389104559E+03   -0.23855E-04   -0.30074E-05  4420   0.100E-02    0.595E-03
DAV:   5    -0.833389106073E+03   -0.15142E-05   -0.63832E-06  3980   0.414E-03    0.406E-03
DAV:   6    -0.833389106350E+03   -0.27708E-06   -0.95574E-07  2820   0.183E-03
 111 F= -.84102783E+03 E0= -.84102783E+03  d E =0.594378E-04  mag=    -0.0000
       N       E                     dE             d eps       ncg     rms          rms(c)
DAV:   1    -0.833388808938E+03    0.29714E-03   -0.12328E-01  4260   0.485E-01    0.628E-02
DAV:   2    -0.833388942239E+03   -0.13330E-03   -0.20057E-03  4360   0.601E-02    0.431E-02
DAV:   3    -0.833388943319E+03   -0.10797E-05   -0.43897E-05  4940   0.117E-02    0.313E-02
DAV:   4    -0.833388967547E+03   -0.24228E-04   -0.48065E-05  4450   0.136E-02    0.935E-03
DAV:   5    -0.833388972062E+03   -0.45145E-05   -0.11449E-05  4480   0.557E-03    0.537E-03
DAV:   6    -0.833388972874E+03   -0.81198E-06   -0.15236E-06  2900   0.226E-03
 112 F= -.84102769E+03 E0= -.84102769E+03  d E =0.132573E-03  mag=     0.0000
       N       E                     dE             d eps       ncg     rms          rms(c)
DAV:   1    -0.833389076760E+03   -0.10470E-03   -0.50878E-03  4300   0.144E-01    0.165E-02
DAV:   2    -0.833389086295E+03   -0.95348E-05   -0.13736E-04  5020   0.216E-02    0.148E-02
DAV:   3    -0.833389083843E+03    0.24518E-05   -0.58811E-06  5240   0.460E-03    0.114E-02
DAV:   4    -0.833389081490E+03    0.23532E-05   -0.54251E-06  4180   0.499E-03    0.489E-03
DAV:   5    -0.833389081398E+03    0.91917E-07   -0.16205E-06  3100   0.240E-03
 113 F= -.84102780E+03 E0= -.84102780E+03  d E =-.105937E-03  mag=    -0.0000
       N       E                     dE             d eps       ncg     rms          rms(c)
DAV:   1    -0.833388993982E+03    0.87508E-04   -0.53862E-03  4280   0.146E-01    0.171E-02
DAV:   2    -0.833389004100E+03   -0.10118E-04   -0.14198E-04  4940   0.216E-02    0.145E-02
DAV:   3    -0.833389001908E+03    0.21920E-05   -0.59772E-06  5300   0.468E-03    0.110E-02
DAV:   4    -0.833389000282E+03    0.16253E-05   -0.49720E-06  4160   0.478E-03    0.478E-03
DAV:   5    -0.833389000292E+03   -0.98444E-08   -0.14205E-06  3220   0.226E-03
 114 F= -.84102772E+03 E0= -.84102772E+03  d E =0.845511E-04  mag=    -0.0000
       N       E                     dE             d eps       ncg     rms          rms(c)
DAV:   1    -0.833389034260E+03   -0.33978E-04   -0.26120E-04  4260   0.325E-02    0.374E-03
DAV:   2    -0.833389034705E+03   -0.44499E-06   -0.72327E-06  4640   0.492E-03
 115 F= -.84102775E+03 E0= -.84102775E+03  d E =-.350342E-04  mag=    -0.0000
       N       E                     dE             d eps       ncg     rms          rms(c)
DAV:   1    -0.833389071334E+03   -0.37074E-04   -0.82183E-04  4300   0.575E-02    0.873E-03
DAV:   2    -0.833389072259E+03   -0.92513E-06   -0.21366E-05  5280   0.851E-03    0.763E-03
DAV:   3    -0.833389071383E+03    0.87573E-06   -0.14224E-06  2870   0.253E-03
 116 F= -.84102779E+03 E0= -.84102779E+03  d E =-.377654E-04  mag=    -0.0000
       N       E                     dE             d eps       ncg     rms          rms(c)
DAV:   1    -0.833389074343E+03   -0.20837E-05   -0.11768E-03  4280   0.682E-02    0.899E-03
DAV:   2    -0.833389076264E+03   -0.19213E-05   -0.27983E-05  5140   0.962E-03    0.784E-03
DAV:   3    -0.833389075682E+03    0.58157E-06   -0.11181E-06  3080   0.223E-03
 117 F= -.84102779E+03 E0= -.84102779E+03  d E =-.559991E-05  mag=     0.0000
       N       E                     dE             d eps       ncg     rms          rms(c)
DAV:   1    -0.833389075656E+03    0.60772E-06   -0.44675E-06  4040   0.434E-03    0.190E-03
DAV:   2    -0.833389075657E+03   -0.10259E-08   -0.49840E-07  2260   0.136E-03
 118 F= -.84102779E+03 E0= -.84102779E+03  d E =0.187225E-07  mag=     0.0000
       N       E                     dE             d eps       ncg     rms          rms(c)
DAV:   1    -0.833389076107E+03   -0.45106E-06   -0.39694E-06  3270   0.369E-03    0.809E-04
DAV:   2    -0.833389076114E+03   -0.69776E-08   -0.11675E-07  2140   0.656E-04
 119 F= -.84102779E+03 E0= -.84102779E+03  d E =-.461328E-06  mag=     0.0000
       N       E                     dE             d eps       ncg     rms          rms(c)
DAV:   1    -0.833389076580E+03   -0.47308E-06   -0.85821E-06  3980   0.537E-03    0.819E-04
DAV:   2    -0.833389076588E+03   -0.77271E-08   -0.20712E-07  2260   0.821E-04
 120 F= -.84102779E+03 E0= -.84102779E+03  d E =-.470615E-06  mag=     0.0000
       N       E                     dE             d eps       ncg     rms          rms(c)
DAV:   1    -0.833389076882E+03   -0.30158E-06   -0.14140E-05  4000   0.671E-03    0.117E-03
DAV:   2    -0.833389076888E+03   -0.65629E-08   -0.32039E-07  2280   0.101E-03
 121 F= -.84102780E+03 E0= -.84102779E+03  d E =-.284022E-06  mag=     0.0000
       N       E                     dE             d eps       ncg     rms          rms(c)
DAV:   1    -0.833389076728E+03    0.15406E-06   -0.20190E-05  4140   0.778E-03    0.145E-03
DAV:   2    -0.833389076733E+03   -0.49840E-08   -0.40835E-07  2280   0.111E-03
 122 F= -.84102780E+03 E0= -.84102779E+03  d E =0.185757E-06  mag=     0.0000
       N       E                     dE             d eps       ncg     rms          rms(c)
DAV:   1    -0.833389076124E+03    0.60332E-06   -0.25993E-05  4080   0.843E-03    0.163E-03
DAV:   2    -0.833389076130E+03   -0.56971E-08   -0.49635E-07  2360   0.118E-03
 123 F= -.84102779E+03 E0= -.84102779E+03  d E =0.636367E-06  mag=     0.0000
       N       E                     dE             d eps       ncg     rms          rms(c)
DAV:   1    -0.833389075153E+03    0.97143E-06   -0.39307E-05  4140   0.977E-03    0.186E-03
DAV:   2    -0.833389075158E+03   -0.54060E-08   -0.68206E-07  2500   0.130E-03
 124 F= -.84102779E+03 E0= -.84102779E+03  d E =0.101355E-05  mag=     0.0000
       N       E                     dE             d eps       ncg     rms          rms(c)
DAV:   1    -0.833389073676E+03    0.14773E-05   -0.58022E-05  4100   0.111E-02    0.214E-03
DAV:   2    -0.833389073677E+03   -0.93860E-09   -0.91526E-07  2650   0.142E-03
 125 F= -.84102779E+03 E0= -.84102779E+03  d E =0.152176E-05  mag=     0.0000
       N       E                     dE             d eps       ncg     rms          rms(c)
DAV:   1    -0.833389072015E+03    0.16609E-05   -0.86750E-05  4140   0.128E-02    0.249E-03
DAV:   2    -0.833389072001E+03    0.14312E-07   -0.12442E-06  2800   0.154E-03
 126 F= -.84102779E+03 E0= -.84102779E+03  d E =0.174650E-05  mag=     0.0000
       N       E                     dE             d eps       ncg     rms          rms(c)
DAV:   1    -0.833389070361E+03    0.16537E-05   -0.13291E-04  4200   0.155E-02    0.297E-03
DAV:   2    -0.833389070324E+03    0.37442E-07   -0.18086E-06  2920   0.181E-03
 127 F= -.84102779E+03 E0= -.84102779E+03  d E =0.177676E-05  mag=     0.0000
       N       E                     dE             d eps       ncg     rms          rms(c)
DAV:   1    -0.833389068601E+03    0.17604E-05   -0.20629E-04  4240   0.195E-02    0.366E-03
DAV:   2    -0.833389068533E+03    0.67863E-07   -0.28273E-06  2940   0.227E-03
 128 F= -.84102779E+03 E0= -.84102779E+03  d E =0.192985E-05  mag=     0.0000
       N       E                     dE             d eps       ncg     rms          rms(c)
DAV:   1    -0.833389066249E+03    0.23519E-05   -0.31899E-04  4240   0.244E-02    0.458E-03
DAV:   2    -0.833389066145E+03    0.10373E-06   -0.44851E-06  3060   0.287E-03
 129 F= -.84102778E+03 E0= -.84102778E+03  d E =0.250698E-05  mag=     0.0000
       N       E                     dE             d eps       ncg     rms          rms(c)
DAV:   1    -0.833389062840E+03    0.34091E-05   -0.48350E-04  4240   0.298E-02    0.568E-03
DAV:   2    -0.833389062703E+03    0.13722E-06   -0.68064E-06  3360   0.348E-03
 130 F= -.84102778E+03 E0= -.84102778E+03  d E =0.357880E-05  mag=     0.0000
       N       E                     dE             d eps       ncg     rms          rms(c)
DAV:   1    -0.833389058795E+03    0.40452E-05   -0.71143E-04  4300   0.354E-02    0.692E-03
DAV:   2    -0.833389058633E+03    0.16179E-06   -0.95499E-06  3620   0.400E-03
 131 F= -.84102778E+03 E0= -.84102778E+03  d E =0.437461E-05  mag=     0.0000
       N       E                     dE             d eps       ncg     rms          rms(c)
DAV:   1    -0.833389054355E+03    0.44396E-05   -0.10430E-03  4280   0.426E-02    0.832E-03
DAV:   2    -0.833389054217E+03    0.13779E-06   -0.13793E-05  3920   0.480E-03    0.609E-03
DAV:   3    -0.833389055070E+03   -0.85315E-06   -0.43278E-07  2810   0.133E-03
 132 F= -.84102777E+03 E0= -.84102777E+03  d E =0.403022E-05  mag=    -0.0000
       N       E                     dE             d eps       ncg     rms          rms(c)
DAV:   1    -0.833389049534E+03    0.46837E-05   -0.14960E-03  4280   0.511E-02    0.716E-03
DAV:   2    -0.833389050312E+03   -0.77855E-06   -0.20053E-05  4120   0.576E-03    0.477E-03
DAV:   3    -0.833389050589E+03   -0.27700E-06   -0.35737E-07  2940   0.110E-03
 133 F= -.84102777E+03 E0= -.84102777E+03  d E =0.489361E-05  mag=     0.0000
       N       E                     dE             d eps       ncg     rms          rms(c)
DAV:   1    -0.833389043413E+03    0.68995E-05   -0.21418E-03  4260   0.604E-02    0.845E-03
DAV:   2    -0.833389044622E+03   -0.12093E-05   -0.29087E-05  4260   0.680E-03    0.563E-03
DAV:   3    -0.833389044937E+03   -0.31525E-06   -0.47962E-07  2880   0.124E-03
 134 F= -.84102776E+03 E0= -.84102776E+03  d E =0.609665E-05  mag=     0.0000
       N       E                     dE             d eps       ncg     rms          rms(c)
DAV:   1    -0.833389035311E+03    0.93109E-05   -0.30931E-03  4280   0.723E-02    0.101E-02
DAV:   2    -0.833389036980E+03   -0.16694E-05   -0.40973E-05  4300   0.805E-03    0.676E-03
DAV:   3    -0.833389037404E+03   -0.42308E-06   -0.67724E-07  2940   0.146E-03
 135 F= -.84102775E+03 E0= -.84102775E+03  d E =0.750337E-05  mag=     0.0000
       N       E                     dE             d eps       ncg     rms          rms(c)
DAV:   1    -0.833389024995E+03    0.11985E-04   -0.44589E-03  4260   0.870E-02    0.121E-02
DAV:   2    -0.833389027572E+03   -0.25766E-05   -0.59504E-05  4320   0.973E-03    0.813E-03
DAV:   3    -0.833389028142E+03   -0.56990E-06   -0.98652E-07  3100   0.177E-03
 136 F= -.84102774E+03 E0= -.84102774E+03  d E =0.852255E-05  mag=     0.0000
       N       E                     dE             d eps       ncg     rms          rms(c)
DAV:   1    -0.833389014455E+03    0.13117E-04   -0.62562E-03  4280   0.103E-01    0.144E-02
DAV:   2    -0.833389018296E+03   -0.38406E-05   -0.83116E-05  4320   0.115E-02    0.965E-03
DAV:   3    -0.833389019090E+03   -0.79459E-06   -0.13930E-06  3100   0.210E-03
 137 F= -.84102774E+03 E0= -.84102774E+03  d E =0.772574E-05  mag=     0.0000
       N       E                     dE             d eps       ncg     rms          rms(c)
DAV:   1    -0.833389005027E+03    0.13269E-04   -0.87322E-03  4260   0.121E-01    0.171E-02
DAV:   2    -0.833389011042E+03   -0.60152E-05   -0.11522E-04  4320   0.135E-02    0.114E-02
DAV:   3    -0.833389011779E+03   -0.73703E-06   -0.19263E-06  3240   0.245E-03
 138 F= -.84102773E+03 E0= -.84102773E+03  d E =0.825564E-05  mag=     0.0000
       N       E                     dE             d eps       ncg     rms          rms(c)
DAV:   1    -0.833388995085E+03    0.15957E-04   -0.11964E-02  4260   0.141E-01    0.201E-02
DAV:   2    -0.833389004034E+03   -0.89490E-05   -0.15992E-04  4300   0.158E-02    0.134E-02
DAV:   3    -0.833389005066E+03   -0.10326E-05   -0.27112E-06  3490   0.287E-03    0.926E-03
DAV:   4    -0.833389009868E+03   -0.48022E-05   -0.35219E-06  3580   0.343E-03    0.187E-03
DAV:   5    -0.833389010014E+03   -0.14529E-06   -0.73473E-07  3040   0.144E-03
 139 F= -.84102773E+03 E0= -.84102773E+03  d E =0.336698E-05  mag=    -0.0000
       N       E                     dE             d eps       ncg     rms          rms(c)
DAV:   1    -0.833388975213E+03    0.34656E-04   -0.16673E-02  4260   0.167E-01    0.228E-02
DAV:   2    -0.833388989564E+03   -0.14352E-04   -0.23135E-04  4280   0.192E-02    0.151E-02
DAV:   3    -0.833388990174E+03   -0.60987E-06   -0.39203E-06  3760   0.350E-03
 140 F= -.84102771E+03 E0= -.84102771E+03  d E =0.173823E-04  mag=    -0.0000
       N       E                     dE             d eps       ncg     rms          rms(c)
DAV:   1    -0.833388953664E+03    0.35901E-04   -0.23356E-02  4260   0.195E-01    0.281E-02
DAV:   2    -0.833388970378E+03   -0.16714E-04   -0.30762E-04  4240   0.217E-02    0.188E-02
DAV:   3    -0.833388973394E+03   -0.30154E-05   -0.54335E-06  3840   0.408E-03    0.129E-02
DAV:   4    -0.833388982110E+03   -0.87163E-05   -0.68771E-06  3970   0.474E-03    0.286E-03
DAV:   5    -0.833388982350E+03   -0.23979E-06   -0.15063E-06  3060   0.210E-03
 141 F= -.84102770E+03 E0= -.84102770E+03  d E =0.719669E-05  mag=    -0.0000
       N       E                     dE             d eps       ncg     rms          rms(c)
DAV:   1    -0.833388936330E+03    0.45780E-04   -0.31734E-02  4260   0.229E-01    0.318E-02
DAV:   2    -0.833388963929E+03   -0.27600E-04   -0.44816E-04  4260   0.267E-02    0.210E-02
DAV:   3    -0.833388965316E+03   -0.13866E-05   -0.80944E-06  4200   0.505E-03    0.147E-02
DAV:   4    -0.833388975117E+03   -0.98014E-05   -0.10110E-05  4190   0.594E-03    0.355E-03
DAV:   5    -0.833388975567E+03   -0.44979E-06   -0.23550E-06  3240   0.256E-03
 142 F= -.84102769E+03 E0= -.84102769E+03  d E =0.984483E-05  mag=     0.0000
       N       E                     dE             d eps       ncg     rms          rms(c)
DAV:   1    -0.833388913627E+03    0.61490E-04   -0.41091E-02  4280   0.264E-01    0.366E-02
DAV:   2    -0.833388950415E+03   -0.36787E-04   -0.58649E-04  4310   0.309E-02    0.243E-02
DAV:   3    -0.833388951672E+03   -0.12575E-05   -0.10954E-05  4500   0.594E-03    0.170E-02
DAV:   4    -0.833388964279E+03   -0.12607E-04   -0.13146E-05  4200   0.686E-03    0.428E-03
DAV:   5    -0.833388964928E+03   -0.64875E-06   -0.31276E-06  3420   0.300E-03
 143 F= -.84102768E+03 E0= -.84102768E+03  d E =0.128151E-04  mag=    -0.0000
       N       E                     dE             d eps       ncg     rms          rms(c)
DAV:   1    -0.833388867860E+03    0.96419E-04   -0.56057E-02  4280   0.315E-01    0.430E-02
DAV:   2    -0.833388920880E+03   -0.53020E-04   -0.82301E-04  4330   0.376E-02    0.291E-02
DAV:   3    -0.833388921709E+03   -0.82902E-06   -0.16893E-05  4820   0.753E-03    0.204E-02
DAV:   4    -0.833388936956E+03   -0.15246E-04   -0.18742E-05  4340   0.841E-03    0.583E-03
DAV:   5    -0.833388938269E+03   -0.13133E-05   -0.46804E-06  3720   0.376E-03    0.341E-03
DAV:   6    -0.833388938481E+03   -0.21174E-06   -0.86531E-07  2800   0.169E-03
 144 F= -.84102765E+03 E0= -.84102765E+03  d E =0.240571E-04  mag=    -0.0000
       N       E                     dE             d eps       ncg     rms          rms(c)
DAV:   1    -0.833388962972E+03   -0.24703E-04   -0.81742E-04  4240   0.584E-02    0.677E-03
DAV:   2    -0.833388964380E+03   -0.14077E-05   -0.21187E-05  5280   0.870E-03    0.597E-03
DAV:   3    -0.833388963903E+03    0.47720E-06   -0.90348E-07  2520   0.206E-03
 145 F= -.84102768E+03 E0= -.84102768E+03  d E =-.243239E-04  mag=     0.0000
       N       E                     dE             d eps       ncg     rms          rms(c)
DAV:   1    -0.833388950797E+03    0.13583E-04   -0.13273E-03  4240   0.736E-02    0.948E-03
DAV:   2    -0.833388952897E+03   -0.21001E-05   -0.30863E-05  5440   0.104E-02    0.805E-03
DAV:   3    -0.833388952143E+03    0.75321E-06   -0.14125E-06  3020   0.260E-03
 146 F= -.84102766E+03 E0= -.84102766E+03  d E =0.140750E-04  mag=     0.0000
       N       E                     dE             d eps       ncg     rms          rms(c)
DAV:   1    -0.833388957565E+03   -0.46685E-05   -0.43281E-05  4260   0.135E-02    0.228E-03
DAV:   2    -0.833388957628E+03   -0.63170E-07   -0.19983E-06  2880   0.273E-03
 147 F= -.84102767E+03 E0= -.84102767E+03  d E =-.552190E-05  mag=    -0.0000
       N       E                     dE             d eps       ncg     rms          rms(c)
DAV:   1    -0.833388964956E+03   -0.73911E-05   -0.11223E-04  4240   0.216E-02    0.282E-03
DAV:   2    -0.833388965044E+03   -0.87392E-07   -0.26000E-06  3320   0.313E-03
 148 F= -.84102768E+03 E0= -.84102768E+03  d E =-.750454E-05  mag=     0.0000
       N       E                     dE             d eps       ncg     rms          rms(c)
DAV:   1    -0.833388967744E+03   -0.27875E-05   -0.17999E-04  4260   0.272E-02    0.432E-03
DAV:   2    -0.833388967883E+03   -0.13903E-06   -0.41426E-06  4690   0.390E-03
 149 F= -.84102768E+03 E0= -.84102768E+03  d E =-.292862E-05  mag=     0.0000
       N       E                     dE             d eps       ncg     rms          rms(c)
DAV:   1    -0.833388964229E+03    0.35145E-05   -0.16219E-04  4240   0.251E-02    0.475E-03
DAV:   2    -0.833388964300E+03   -0.70555E-07   -0.33330E-06  3550   0.345E-03
 150 F= -.84102768E+03 E0= -.84102768E+03  d E =0.359397E-05  mag=     0.0000
       N       E                     dE             d eps       ncg     rms          rms(c)
DAV:   1    -0.833388964524E+03   -0.29450E-06   -0.15987E-06  2650   0.275E-03    0.191E-03
DAV:   2    -0.833388964538E+03   -0.13752E-07   -0.23068E-07  2150   0.988E-04
 151 F= -.84102768E+03 E0= -.84102768E+03  d E =-.218465E-06  mag=    -0.0000
       N       E                     dE             d eps       ncg     rms          rms(c)
DAV:   1    -0.833388965308E+03   -0.78448E-06   -0.26500E-06  3360   0.329E-03    0.601E-04
DAV:   2    -0.833388965317E+03   -0.90804E-08   -0.96777E-08  2120   0.629E-04
 152 F= -.84102768E+03 E0= -.84102768E+03  d E =-.739268E-06  mag=    -0.0000
       N       E                     dE             d eps       ncg     rms          rms(c)
DAV:   1    -0.833388966308E+03   -0.10002E-05   -0.50172E-06  3880   0.450E-03    0.633E-04
DAV:   2    -0.833388966316E+03   -0.76107E-08   -0.12728E-07  2150   0.716E-04
 153 F= -.84102768E+03 E0= -.84102768E+03  d E =-.935380E-06  mag=     0.0000
       N       E                     dE             d eps       ncg     rms          rms(c)
DAV:   1    -0.833388967245E+03   -0.93613E-06   -0.80244E-06  4020   0.566E-03    0.919E-04
DAV:   2    -0.833388967255E+03   -0.10463E-07   -0.19468E-07  2145   0.879E-04
 154 F= -.84102768E+03 E0= -.84102768E+03  d E =-.851054E-06  mag=     0.0000
       N       E                     dE             d eps       ncg     rms          rms(c)
DAV:   1    -0.833388968127E+03   -0.88260E-06   -0.10851E-05  4120   0.651E-03    0.112E-03
DAV:   2    -0.833388968142E+03   -0.14697E-07   -0.25126E-07  2200   0.971E-04
 155 F= -.84102768E+03 E0= -.84102768E+03  d E =-.765195E-06  mag=     0.0000
       N       E                     dE             d eps       ncg     rms          rms(c)
DAV:   1    -0.833388968658E+03   -0.53082E-06   -0.13136E-05  4160   0.703E-03    0.127E-03
DAV:   2    -0.833388968673E+03   -0.15301E-07   -0.28714E-07  2260   0.103E-03
 156 F= -.84102768E+03 E0= -.84102768E+03  d E =-.374210E-06  mag=     0.0000
       N       E                     dE             d eps       ncg     rms          rms(c)
DAV:   1    -0.833388968744E+03   -0.85915E-07   -0.17099E-05  4160   0.773E-03    0.140E-03
DAV:   2    -0.833388968762E+03   -0.17797E-07   -0.35234E-07  2300   0.110E-03
 157 F= -.84102768E+03 E0= -.84102768E+03  d E =0.106056E-06  mag=     0.0000
       N       E                     dE             d eps       ncg     rms          rms(c)
DAV:   1    -0.833388968416E+03    0.32783E-06   -0.19885E-05  4100   0.772E-03    0.148E-03
DAV:   2    -0.833388968434E+03   -0.18103E-07   -0.38912E-07  2420   0.108E-03
 158 F= -.84102768E+03 E0= -.84102768E+03  d E =0.550198E-06  mag=     0.0000
       N       E                     dE             d eps       ncg     rms          rms(c)
DAV:   1    -0.833388968276E+03    0.14038E-06   -0.22911E-05  4000   0.732E-03    0.152E-03
DAV:   2    -0.833388968289E+03   -0.13511E-07   -0.40349E-07  2440   0.982E-04
 159 F= -.84102768E+03 E0= -.84102768E+03  d E =0.409006E-06  mag=    -0.0000
       N       E                     dE             d eps       ncg     rms          rms(c)
DAV:   1    -0.833388968604E+03   -0.32871E-06   -0.29815E-05  3860   0.753E-03    0.163E-03
DAV:   2    -0.833388968620E+03   -0.15876E-07   -0.48609E-07  2560   0.988E-04
 160 F= -.84102768E+03 E0= -.84102768E+03  d E =-.412534E-07  mag=     0.0000
       N       E                     dE             d eps       ncg     rms          rms(c)
DAV:   1    -0.833388969652E+03   -0.10475E-05   -0.45494E-05  4020   0.974E-03    0.193E-03
DAV:   2    -0.833388969681E+03   -0.29075E-07   -0.75762E-07  2590   0.127E-03
 161 F= -.84102768E+03 E0= -.84102768E+03  d E =-.748483E-06  mag=     0.0000
       N       E                     dE             d eps       ncg     rms          rms(c)
DAV:   1    -0.833388970771E+03   -0.11194E-05   -0.74680E-05  4240   0.134E-02    0.249E-03
DAV:   2    -0.833388970826E+03   -0.55057E-07   -0.12752E-06  2730   0.172E-03
 162 F= -.84102768E+03 E0= -.84102768E+03  d E =-.701212E-06  mag=     0.0000
       N       E                     dE             d eps       ncg     rms          rms(c)
DAV:   1    -0.833388971179E+03   -0.40743E-06   -0.11397E-04  4240   0.161E-02    0.316E-03
DAV:   2    -0.833388971255E+03   -0.76383E-07   -0.19084E-06  2880   0.203E-03
 163 F= -.84102768E+03 E0= -.84102768E+03  d E =0.180620E-06  mag=     0.0000
       N       E                     dE             d eps       ncg     rms          rms(c)
DAV:   1    -0.833388971093E+03    0.85929E-07   -0.16379E-04  4240   0.178E-02    0.376E-03
DAV:   2    -0.833388971195E+03   -0.10185E-06   -0.26036E-06  2980   0.215E-03
 164 F= -.84102768E+03 E0= -.84102768E+03  d E =0.742827E-06  mag=     0.0000
       N       E                     dE             d eps       ncg     rms          rms(c)
DAV:   1    -0.833388971285E+03   -0.19242E-06   -0.24073E-04  4240   0.204E-02    0.445E-03
DAV:   2    -0.833388971426E+03   -0.14081E-06   -0.36623E-06  2980   0.239E-03
 165 F= -.84102768E+03 E0= -.84102768E+03  d E =0.389496E-06  mag=     0.0000
       N       E                     dE             d eps       ncg     rms          rms(c)
DAV:   1    -0.833388971182E+03    0.10360E-06   -0.37937E-04  4240   0.264E-02    0.545E-03
DAV:   2    -0.833388971391E+03   -0.20942E-06   -0.58386E-06  3180   0.314E-03
 166 F= -.84102768E+03 E0= -.84102768E+03  d E =0.496634E-06  mag=     0.0000
