<?xml version="1.0" encoding="ISO-8859-1"?>
<modeling>
 <generator>
  <i name="program" type="string">vasp </i>
  <i name="version" type="string">6.4.2  </i>
  <i name="subversion" type="string">20Jul23 (build Aug 26 2025 15:10:52) complex                          parallel </i>
  <i name="platform" type="string">LinuxIFC </i>
  <i name="date" type="string">2025 12 07 </i>
  <i name="time" type="string">12:45:23 </i>
 </generator>
 <incar>
  <i type="int" name="ISTART">     0</i>
  <i type="string" name="ALGO">Normal</i>
  <i type="logical" name="ADDGRID"> T  </i>
  <i type="int" name="ISPIN">     2</i>
  <i type="int" name="IMIX">     4</i>
  <i name="AMIX">      0.20000000</i>
  <i name="BMIX">      0.00010000</i>
  <i name="AMIX_MAG">      0.80000000</i>
  <i name="BMIX_MAG">      0.00010000</i>
  <i type="int" name="ICHARG">     2</i>
  <i type="int" name="NELM">   200</i>
  <i type="int" name="IBRION">     3</i>
  <i name="EDIFF">      0.00000100</i>
  <i name="EDIFFG">     -0.03000000</i>
  <i type="int" name="NSW">  1000</i>
  <i type="int" name="ISIF">     2</i>
  <i type="int" name="ISYM">     0</i>
  <i name="ENCUT">    520.00000000</i>
  <i name="POTIM">      0.00000000</i>
  <v name="MAGMOM">      0.60000000      0.60000000      0.60000000      0.60000000      0.60000000      0.60000000      0.60000000      0.60000000      0.60000000      0.60000000      0.60000000      0.60000000      0.60000000      0.60000000      0.60000000      0.60000000      0.60000000      0.60000000      0.60000000      0.60000000
      0.60000000      0.60000000      0.60000000      0.60000000      0.60000000      0.60000000      0.60000000      0.60000000      0.60000000      0.60000000      0.60000000      0.60000000      0.60000000      0.60000000      0.60000000      0.60000000      0.60000000      0.60000000      0.60000000      0.60000000
      0.60000000      0.60000000      0.60000000      0.60000000      0.60000000      0.60000000      0.60000000      0.60000000      0.60000000      0.60000000      0.60000000      0.60000000      0.60000000      0.60000000      0.60000000      0.60000000      0.60000000      0.60000000      0.60000000      0.60000000
      0.60000000      0.60000000      0.60000000      0.60000000      0.60000000      0.60000000      0.60000000      0.60000000      0.60000000      0.60000000      0.60000000      0.60000000      0.60000000      0.60000000      0.60000000      0.60000000      0.60000000      0.60000000      0.60000000      0.60000000
      0.60000000      0.60000000      0.60000000      0.60000000      0.60000000      0.60000000      0.60000000      0.60000000      0.60000000      0.60000000      0.60000000      0.60000000      0.60000000      0.60000000      0.60000000</v>
  <i type="string" name="LREAL">Auto</i>
  <i type="int" name="ISMEAR">     0</i>
  <i name="SIGMA">      0.05000000</i>
  <i type="logical" name="LWAVE"> F  </i>
  <i type="logical" name="LCHARG"> F  </i>
  <i type="logical" name="LASPH"> T  </i>
  <i type="int" name="IVDW">    12</i>
  <i name="SPRING">     -5.00000000</i>
 </incar>
 <primitive_cell>
  <structure name="primitive_cell" >
   <crystal>
    <varray name="basis" >
     <v>      17.27103806       0.00000000       0.00000000 </v>
     <v>      -8.63551903      14.95715771       0.00000000 </v>
     <v>       0.00000000       0.00000000      15.00000000 </v>
    </varray>
    <i name="volume">   3874.88459904 </i>
    <varray name="rec_basis" >
     <v>       0.05790040       0.03342881       0.00000000 </v>
     <v>       0.00000000       0.06685762       0.00000000 </v>
     <v>       0.00000000       0.00000000       0.06666667 </v>
    </varray>
   </crystal>
   <varray name="positions" >
    <v>       0.00099175       0.00099158       0.50024454 </v>
    <v>       0.00000513       0.14305458       0.50012363 </v>
    <v>       0.99993770       0.28616056       0.50010872 </v>
    <v>       0.00027708       0.42927068       0.50012855 </v>
    <v>       0.00044363       0.57229055       0.50009818 </v>
    <v>       0.00115324       0.71536294       0.50012156 </v>
    <v>       0.00229396       0.85901550       0.50019520 </v>
    <v>       0.14493996       0.00267553       0.50008638 </v>
    <v>       0.14414903       0.14493587       0.50018337 </v>
    <v>       0.14230372       0.28628067       0.50026246 </v>
    <v>       0.14327638       0.42973769       0.50034145 </v>
    <v>       0.14365589       0.57230443       0.50024268 </v>
    <v>       0.14393300       0.71541515       0.50005679 </v>
    <v>       0.14443900       0.85902896       0.49999334 </v>
    <v>       0.28751530       0.00280559       0.49991957 </v>
    <v>       0.28810999       0.14699641       0.50010436 </v>
    <v>       0.28738219       0.29211828       0.50037758 </v>
    <v>       0.28516819       0.42721231       0.50055696 </v>
    <v>       0.28802958       0.57181031       0.50048902 </v>
    <v>       0.28670525       0.71570594       0.50021026 </v>
    <v>       0.28649797       0.85906089       0.49996153 </v>
    <v>       0.42976081       0.00158360       0.49988637 </v>
    <v>       0.43096633       0.14617422       0.49995579 </v>
    <v>       0.43055000       0.28786142       0.50019082 </v>
    <v>       0.42846062       0.85748323       0.50009077 </v>
    <v>       0.57165180       0.99981725       0.49997986 </v>
    <v>       0.57245132       0.14365007       0.49991205 </v>
    <v>       0.57641678       0.29044211       0.50008799 </v>
    <v>       0.57069102       0.85472871       0.50025062 </v>
    <v>       0.71372126       0.99819452       0.50012664 </v>
    <v>       0.71474709       0.14252685       0.49996649 </v>
    <v>       0.71538285       0.28616350       0.50002862 </v>
    <v>       0.71144331       0.42642234       0.50023940 </v>
    <v>       0.71616715       0.57470896       0.50045016 </v>
    <v>       0.71289070       0.85436198       0.50049225 </v>
    <v>       0.85705848       0.99938567       0.50025091 </v>
    <v>       0.85691672       0.14243335       0.50004353 </v>
    <v>       0.85745482       0.28590005       0.50001748 </v>
    <v>       0.85749734       0.42923154       0.50008453 </v>
    <v>       0.85685492       0.57195380       0.50023503 </v>
    <v>       0.85919040       0.71604038       0.50033862 </v>
    <v>       0.85852335       0.85718223       0.50038600 </v>
    <v>       0.04861963       0.09639999       0.50018356 </v>
    <v>       0.04702361       0.23819651       0.50014512 </v>
    <v>       0.04765199       0.38163100       0.50018300 </v>
    <v>       0.04824792       0.52469361       0.50014359 </v>
    <v>       0.04851227       0.66773021       0.50006154 </v>
    <v>       0.04916588       0.81091453       0.50009628 </v>
    <v>       0.04943169       0.95415511       0.50019376 </v>
    <v>       0.19251589       0.09794337       0.50012698 </v>
    <v>       0.19115101       0.24026314       0.50026165 </v>
    <v>       0.18960084       0.38112980       0.50037657 </v>
    <v>       0.19171345       0.52512120       0.50039383 </v>
    <v>       0.19135200       0.66779460       0.50017185 </v>
    <v>       0.19159617       0.81109560       0.49998537 </v>
    <v>       0.19231971       0.95463740       0.49998097 </v>
    <v>       0.33554402       0.09889703       0.49997783 </v>
    <v>       0.33693584       0.24323768       0.50023531 </v>
    <v>       0.33174347       0.52230667       0.50060225 </v>
    <v>       0.33738973       0.67064427       0.50037688 </v>
    <v>       0.33369794       0.81077221       0.50007620 </v>
    <v>       0.33440012       0.95441150       0.49990573 </v>
    <v>       0.47746406       0.09694850       0.49988691 </v>
    <v>       0.47860162       0.24202166       0.50006388 </v>
    <v>       0.47285344       0.80630604       0.50024617 </v>
    <v>       0.47668237       0.95309936       0.49996233 </v>
    <v>       0.61938352       0.09520154       0.49993072 </v>
    <v>       0.62068206       0.23926765       0.49999816 </v>
    <v>       0.61941558       0.80956672       0.50044486 </v>
    <v>       0.61828249       0.95068915       0.50010717 </v>
    <v>       0.76173231       0.09426307       0.50001969 </v>
    <v>       0.76258755       0.23789276       0.49999005 </v>
    <v>       0.76217190       0.38128647       0.50011213 </v>
    <v>       0.76038823       0.52543970       0.50034037 </v>
    <v>       0.76346460       0.67008240       0.50044963 </v>
    <v>       0.76228192       0.80521514       0.50052625 </v>
    <v>       0.76141577       0.95040251       0.50030161 </v>
    <v>       0.90450184       0.09457872       0.50012765 </v>
    <v>       0.90465842       0.23799059       0.50003292 </v>
    <v>       0.90490363       0.38154633       0.50005562 </v>
    <v>       0.90499020       0.52475663       0.50012450 </v>
    <v>       0.90548556       0.66737451       0.50024224 </v>
    <v>       0.90695570       0.81089636       0.50030507 </v>
    <v>       0.90548758       0.95246075       0.50032212 </v>
    <v>       0.46913717       0.36057150       0.50027837 </v>
    <v>       0.40437884       0.55888753       0.50054812 </v>
    <v>       0.64316294       0.53909001       0.50046835 </v>
    <v>       0.58293006       0.73684006       0.50050258 </v>
    <v>       0.53050181       0.57216721       0.50123030 </v>
    <v>       0.45214991       0.47016242       0.50051464 </v>
    <v>       0.42735347       0.71579966       0.50039101 </v>
    <v>       0.71739094       0.71560481       0.50057592 </v>
    <v>       0.33145714       0.38197893       0.50056307 </v>
    <v>       0.62159537       0.38082235       0.50023261 </v>
    <v>       0.51782036       0.51070159       0.50000005 </v>
   </varray>
  </structure>
  <varray name="primitive_index" >
   <v type="int" >        1 </v>
   <v type="int" >        2 </v>
   <v type="int" >        3 </v>
   <v type="int" >        4 </v>
   <v type="int" >        5 </v>
   <v type="int" >        6 </v>
   <v type="int" >        7 </v>
   <v type="int" >        8 </v>
   <v type="int" >        9 </v>
   <v type="int" >       10 </v>
   <v type="int" >       11 </v>
   <v type="int" >       12 </v>
   <v type="int" >       13 </v>
   <v type="int" >       14 </v>
   <v type="int" >       15 </v>
   <v type="int" >       16 </v>
   <v type="int" >       17 </v>
   <v type="int" >       18 </v>
   <v type="int" >       19 </v>
   <v type="int" >       20 </v>
   <v type="int" >       21 </v>
   <v type="int" >       22 </v>
   <v type="int" >       23 </v>
   <v type="int" >       24 </v>
   <v type="int" >       25 </v>
   <v type="int" >       26 </v>
   <v type="int" >       27 </v>
   <v type="int" >       28 </v>
   <v type="int" >       29 </v>
   <v type="int" >       30 </v>
   <v type="int" >       31 </v>
   <v type="int" >       32 </v>
   <v type="int" >       33 </v>
   <v type="int" >       34 </v>
   <v type="int" >       35 </v>
   <v type="int" >       36 </v>
   <v type="int" >       37 </v>
   <v type="int" >       38 </v>
   <v type="int" >       39 </v>
   <v type="int" >       40 </v>
   <v type="int" >       41 </v>
   <v type="int" >       42 </v>
   <v type="int" >       43 </v>
   <v type="int" >       44 </v>
   <v type="int" >       45 </v>
   <v type="int" >       46 </v>
   <v type="int" >       47 </v>
   <v type="int" >       48 </v>
   <v type="int" >       49 </v>
   <v type="int" >       50 </v>
   <v type="int" >       51 </v>
   <v type="int" >       52 </v>
   <v type="int" >       53 </v>
   <v type="int" >       54 </v>
   <v type="int" >       55 </v>
   <v type="int" >       56 </v>
   <v type="int" >       57 </v>
   <v type="int" >       58 </v>
   <v type="int" >       59 </v>
   <v type="int" >       60 </v>
   <v type="int" >       61 </v>
   <v type="int" >       62 </v>
   <v type="int" >       63 </v>
   <v type="int" >       64 </v>
   <v type="int" >       65 </v>
   <v type="int" >       66 </v>
   <v type="int" >       67 </v>
   <v type="int" >       68 </v>
   <v type="int" >       69 </v>
   <v type="int" >       70 </v>
   <v type="int" >       71 </v>
   <v type="int" >       72 </v>
   <v type="int" >       73 </v>
   <v type="int" >       74 </v>
   <v type="int" >       75 </v>
   <v type="int" >       76 </v>
   <v type="int" >       77 </v>
   <v type="int" >       78 </v>
   <v type="int" >       79 </v>
   <v type="int" >       80 </v>
   <v type="int" >       81 </v>
   <v type="int" >       82 </v>
   <v type="int" >       83 </v>
   <v type="int" >       84 </v>
   <v type="int" >       85 </v>
   <v type="int" >       86 </v>
   <v type="int" >       87 </v>
   <v type="int" >       88 </v>
   <v type="int" >       89 </v>
   <v type="int" >       90 </v>
   <v type="int" >       91 </v>
   <v type="int" >       92 </v>
   <v type="int" >       93 </v>
   <v type="int" >       94 </v>
   <v type="int" >       95 </v>
  </varray>
 </primitive_cell>
 <kpoints>
  <generation param="Gamma">
   <v type="int" name="divisions">       2        2        1 </v>
   <v name="usershift">      0.00000000       0.00000000       0.00000000 </v>
   <v name="genvec1">      0.50000000       0.00000000       0.00000000 </v>
   <v name="genvec2">      0.00000000       0.50000000       0.00000000 </v>
   <v name="genvec3">      0.00000000       0.00000000       1.00000000 </v>
   <v name="shift">      0.00000000       0.00000000       0.00000000 </v>
  </generation>
  <varray name="kpointlist" >
   <v>       0.00000000       0.00000000       0.00000000 </v>
   <v>       0.50000000       0.00000000       0.00000000 </v>
   <v>       0.00000000       0.50000000       0.00000000 </v>
   <v>       0.50000000       0.50000000       0.00000000 </v>
  </varray>
  <varray name="weights" >
   <v>       0.25000000 </v>
   <v>       0.25000000 </v>
   <v>       0.25000000 </v>
   <v>       0.25000000 </v>
  </varray>
 </kpoints>
 <parameters>
  <separator name="general" >
   <i type="string" name="SYSTEM">unknown system</i>
   <i type="logical" name="LCOMPAT"> F  </i>
  </separator>
  <separator name="electronic" >
   <i type="string" name="PREC">normal</i>
   <i name="ENMAX">    520.00000000</i>
   <i name="ENAUG">    644.87300000</i>
   <i name="EDIFF">      0.00000100</i>
   <i type="int" name="IALGO">    38</i>
   <i type="int" name="IWAVPR">    11</i>
   <i type="int" name="NBANDS">   265</i>
   <i type="int" name="NBANDSLOW">    -1</i>
   <i type="int" name="NBANDSHIGH">    -1</i>
   <i name="NELECT">    368.00000000</i>
   <i type="int" name="TURBO">     0</i>
   <i type="int" name="IRESTART">     0</i>
   <i type="int" name="NREBOOT">     0</i>
   <i type="int" name="NMIN">     0</i>
   <i name="EREF">      0.00000000</i>
   <separator name="electronic smearing" >
    <i type="int" name="ISMEAR">     0</i>
    <i name="SIGMA">      0.05000000</i>
    <i name="KSPACING">      0.50000000</i>
    <i type="logical" name="KGAMMA"> T  </i>
    <i type="logical" name="KBLOWUP"> T  </i>
   </separator>
   <separator name="electronic projectors" >
    <i type="logical" name="LREAL"> T  </i>
    <v name="ROPT">     -0.00050000     -0.00050000     -0.00050000     -0.00050000</v>
    <i type="int" name="LMAXPAW">  -100</i>
    <i type="int" name="LMAXMIX">     2</i>
    <i type="logical" name="NLSPLINE"> F  </i>
   </separator>
   <separator name="electronic startup" >
    <i type="int" name="ISTART">     0</i>
    <i type="int" name="ICHARG">     2</i>
    <i type="int" name="INIWAV">     1</i>
   </separator>
   <separator name="electronic spin" >
    <i type="int" name="ISPIN">     2</i>
    <i type="logical" name="LNONCOLLINEAR"> F  </i>
    <v name="MAGMOM">      0.60000000      0.60000000      0.60000000      0.60000000      0.60000000      0.60000000      0.60000000      0.60000000      0.60000000      0.60000000      0.60000000      0.60000000      0.60000000      0.60000000      0.60000000      0.60000000      0.60000000      0.60000000      0.60000000      0.60000000
      0.60000000      0.60000000      0.60000000      0.60000000      0.60000000      0.60000000      0.60000000      0.60000000      0.60000000      0.60000000      0.60000000      0.60000000      0.60000000      0.60000000      0.60000000      0.60000000      0.60000000      0.60000000      0.60000000      0.60000000
      0.60000000      0.60000000      0.60000000      0.60000000      0.60000000      0.60000000      0.60000000      0.60000000      0.60000000      0.60000000      0.60000000      0.60000000      0.60000000      0.60000000      0.60000000      0.60000000      0.60000000      0.60000000      0.60000000      0.60000000
      0.60000000      0.60000000      0.60000000      0.60000000      0.60000000      0.60000000      0.60000000      0.60000000      0.60000000      0.60000000      0.60000000      0.60000000      0.60000000      0.60000000      0.60000000      0.60000000      0.60000000      0.60000000      0.60000000      0.60000000
      0.60000000      0.60000000      0.60000000      0.60000000      0.60000000      0.60000000      0.60000000      0.60000000      0.60000000      0.60000000      0.60000000      0.60000000      0.60000000      0.60000000      0.60000000</v>
    <i name="NUPDOWN">     -1.00000000</i>
    <i type="logical" name="LSORBIT"> F  </i>
    <v name="SAXIS">      0.00000000      0.00000000      1.00000000</v>
    <i type="logical" name="LSPIRAL"> F  </i>
    <v name="QSPIRAL">      0.00000000      0.00000000      0.00000000</v>
    <i type="logical" name="LZEROZ"> F  </i>
   </separator>
   <separator name="electronic exchange-correlation" >
    <i type="logical" name="LASPH"> T  </i>
    <i type="logical" name="LMETAGGA"> F  </i>
   </separator>
   <separator name="electronic convergence" >
    <i type="int" name="NELM">   200</i>
    <i type="int" name="NELMDL">    -5</i>
    <i type="int" name="NELMIN">     2</i>
    <i name="ENINI">    520.00000000</i>
    <separator name="electronic convergence detail" >
     <i type="logical" name="LDIAG"> T  </i>
     <i type="logical" name="LSUBROT"> F  </i>
     <i name="WEIMIN">      0.00100000</i>
     <i name="EBREAK">      0.00000000</i>
     <i name="DEPER">      0.30000000</i>
     <i type="int" name="NRMM">     4</i>
     <i name="TIME">      0.40000000</i>
    </separator>
   </separator>
   <separator name="electronic mixer" >
    <i name="AMIX">      0.20000000</i>
    <i name="BMIX">      0.00010000</i>
    <i name="AMIN">      0.10000000</i>
    <i name="AMIX_MAG">      0.80000000</i>
    <i name="BMIX_MAG">      0.00010000</i>
    <separator name="electronic mixer details" >
     <i type="int" name="IMIX">     4</i>
     <i type="logical" name="MIXFIRST"> F  </i>
     <i type="int" name="MAXMIX">   -45</i>
     <i name="WC">    100.00000000</i>
     <i type="int" name="INIMIX">     1</i>
     <i type="int" name="MIXPRE">     1</i>
     <i type="int" name="MREMOVE">     5</i>
    </separator>
   </separator>
   <separator name="electronic dipolcorrection" >
    <i type="logical" name="LDIPOL"> F  </i>
    <i type="logical" name="LMONO"> F  </i>
    <i type="int" name="IDIPOL">     0</i>
    <i name="EPSILON">      1.00000000</i>
    <v name="DIPOL">   -100.00000000   -100.00000000   -100.00000000</v>
    <i name="EFIELD">      0.00000000</i>
   </separator>
  </separator>
  <separator name="grids" >
   <i type="int" name="NGX">    96</i>
   <i type="int" name="NGY">    96</i>
   <i type="int" name="NGZ">    84</i>
   <i type="int" name="NGXF">   192</i>
   <i type="int" name="NGYF">   192</i>
   <i type="int" name="NGZF">   168</i>
   <i type="logical" name="ADDGRID"> T  </i>
  </separator>
  <separator name="ionic" >
   <i type="int" name="NSW">  1000</i>
   <i type="int" name="IBRION">     3</i>
   <i type="int" name="MDALGO">     0</i>
   <i type="int" name="ISIF">     2</i>
   <i name="PSTRESS">      0.00000000</i>
   <i name="EDIFFG">     -0.03000000</i>
   <i type="int" name="NFREE">     0</i>
   <i name="POTIM">      0.00000000</i>
   <i name="SMASS">     -3.00000000</i>
   <i name="SCALEE">      1.00000000</i>
  </separator>
  <separator name="ionic md" >
   <i name="TEBEG">      0.00010000</i>
   <i name="TEEND">      0.00010000</i>
   <i type="int" name="NBLOCK">     1</i>
   <i type="int" name="KBLOCK">  1000</i>
   <i type="int" name="NPACO">   256</i>
   <i name="APACO">     10.00000000</i>
  </separator>
  <separator name="symmetry" >
   <i type="int" name="ISYM">     0</i>
   <i name="SYMPREC">      0.00001000</i>
  </separator>
  <separator name="dos" >
   <i type="int" name="LORBIT">     0</i>
   <v name="RWIGS">     -1.00000000     -1.00000000     -1.00000000     -1.00000000</v>
   <i type="int" name="NEDOS">   301</i>
   <i name="EMIN">     10.00000000</i>
   <i name="EMAX">    -10.00000000</i>
   <i name="EFERMI">      0.00000000</i>
  </separator>
  <separator name="writing" >
   <i type="int" name="NWRITE">     2</i>
   <i type="logical" name="LWAVE"> F  </i>
   <i type="logical" name="LDOWNSAMPLE"> F  </i>
   <i type="logical" name="LCHARG"> F  </i>
   <i type="logical" name="LPARD"> F  </i>
   <i type="logical" name="LVTOT"> F  </i>
   <i type="logical" name="LVHAR"> F  </i>
   <i type="logical" name="LELF"> F  </i>
   <i type="logical" name="LOPTICS"> F  </i>
   <v name="STM">      0.00000000      0.00000000      0.00000000      0.00000000      0.00000000      0.00000000      0.00000000</v>
  </separator>
  <separator name="performance" >
   <i type="int" name="NPAR">     5</i>
   <i type="int" name="NSIM">     4</i>
   <i type="int" name="NBLK">    -1</i>
   <i type="logical" name="LPLANE"> T  </i>
   <i type="logical" name="LSCALAPACK"> T  </i>
   <i type="logical" name="LSCAAWARE"> F  </i>
   <i type="logical" name="LSCALU"> F  </i>
   <i type="logical" name="LASYNC"> F  </i>
   <i type="logical" name="LORBITALREAL"> F  </i>
  </separator>
  <separator name="miscellaneous" >
   <i type="int" name="IDIOT">     3</i>
   <i type="int" name="PHON_NSTRUCT">    -1</i>
   <i type="logical" name="LMUSIC"> F  </i>
   <v name="POMASS">     12.01100000      1.00000000     14.00100000     16.00000000</v>
   <v name="DARWINR">      0.00000000      0.00000000      0.00000000      0.00000000</v>
   <v name="DARWINV">      1.00000000      1.00000000      1.00000000      1.00000000</v>
   <i type="logical" name="LCORR"> T  </i>
  </separator>
  <i type="logical" name="GGA_COMPAT"> T  </i>
  <i type="logical" name="LBERRY"> F  </i>
  <i type="int" name="ICORELEVEL">     0</i>
  <i type="logical" name="LDAU"> F  </i>
  <i type="int" name="I_CONSTRAINED_M">     0</i>
  <separator name="electronic exchange-correlation" >
   <i type="string" name="GGA">--</i>
   <i type="int" name="VOSKOWN">     0</i>
   <i type="logical" name="LHFCALC"> F  </i>
   <i type="string" name="PRECFOCK"></i>
   <i type="logical" name="LSYMGRAD"> F  </i>
   <i type="logical" name="LHFONE"> F  </i>
   <i type="logical" name="LRHFCALC"> F  </i>
   <i type="logical" name="LTHOMAS"> F  </i>
   <i type="logical" name="LMODELHF"> F  </i>
   <i type="logical" name="LFOCKACE"> F  </i>
   <i name="ENCUT4O">     -1.00000000</i>
   <i type="int" name="EXXOEP">     0</i>
   <i type="int" name="FOURORBIT">     0</i>
   <i name="AEXX">      0.00000000</i>
   <i name="HFALPHA">      0.00000000</i>
   <i name="MCALPHA">      0.00000000</i>
   <i name="ALDAX">      1.00000000</i>
   <i name="AGGAX">      1.00000000</i>
   <i name="ALDAC">      1.00000000</i>
   <i name="AGGAC">      1.00000000</i>
   <i type="int" name="NKREDX">     1</i>
   <i type="int" name="NKREDY">     1</i>
   <i type="int" name="NKREDZ">     1</i>
   <i type="logical" name="SHIFTRED"> F  </i>
   <i type="logical" name="ODDONLY"> F  </i>
   <i type="logical" name="EVENONLY"> F  </i>
   <i type="int" name="LMAXFOCK">     0</i>
   <i type="int" name="NMAXFOCKAE">     0</i>
   <i type="logical" name="LFOCKAEDFT"> F  </i>
   <i name="HFSCREEN">      0.00000000</i>
   <i name="HFSCREENC">      0.00000000</i>
   <i type="int" name="NBANDSGWLOW">     0</i>
  </separator>
  <separator name="vdW DFT" >
   <i type="logical" name="LUSE_VDW"> F  </i>
   <i type="int" name="IVDW_NL">     1</i>
   <i type="logical" name="LSPIN_VDW"> F  </i>
   <i name="Zab_VDW">     -0.84910000</i>
   <i name="PARAM1">      0.12340000</i>
   <i name="PARAM2">      1.00000000</i>
   <i name="PARAM3">      0.00000000</i>
  </separator>
  <separator name="model GW" >
   <i type="int" name="MODEL_GW">     0</i>
   <i name="MODEL_EPS0">     24.47295536</i>
   <i name="MODEL_ALPHA">      1.00000000</i>
  </separator>
  <separator name="linear response parameters" >
   <i type="logical" name="LEPSILON"> F  </i>
   <i type="logical" name="LRPA"> F  </i>
   <i type="logical" name="LNABLA"> F  </i>
   <i type="logical" name="LVEL"> F  </i>
   <i name="CSHIFT">      0.10000000</i>
   <i name="OMEGAMAX">     -1.00000000</i>
   <i name="DEG_THRESHOLD">      0.00200000</i>
   <i name="RTIME">     -0.10000000</i>
   <i name="WPLASMAI">      0.00000000</i>
   <v name="DFIELD">      0.00000000      0.00000000      0.00000000</v>
   <v name="WPLASMA">      0.00000000      0.00000000      0.00000000      0.00000000      0.00000000      0.00000000      0.00000000      0.00000000      0.00000000</v>
  </separator>
  <separator name="orbital magnetization" >
   <i type="logical" name="NUCIND"> F  </i>
   <v name="MAGPOS">      0.00000000      0.00000000      0.00000000</v>
   <i type="logical" name="LNICSALL"> T  </i>
   <i type="logical" name="ORBITALMAG"> F  </i>
   <i type="logical" name="LMAGBLOCH"> F  </i>
   <i type="logical" name="LCHIMAG"> F  </i>
   <i type="logical" name="LGAUGE"> T  </i>
   <i type="int" name="MAGATOM">     0</i>
   <v name="MAGDIPOL">      0.00000000      0.00000000      0.00000000</v>
   <v name="AVECCONST">      0.00000000      0.00000000      0.00000000</v>
  </separator>
  <separator name="response functions" >
   <i type="logical" name="LALL_IN_ONE"> F  </i>
   <i type="int" name="IALL_IN_ONE">    -1</i>
   <i type="int" name="NBANDS_WAVE">    -1</i>
   <i type="logical" name="LFINITE_TEMPERATURE"> F  </i>
   <i type="logical" name="LADDER"> F  </i>
   <i type="logical" name="LRPAFORCE"> F  </i>
   <i type="logical" name="LFXC"> F  </i>
   <i type="logical" name="LHARTREE"> T  </i>
   <i type="int" name="IBSE">     0</i>
   <v type="int" name="KPOINT">    -1     0     0     0</v>
   <i type="logical" name="LTCTC"> F  </i>
   <i type="logical" name="LTCTE"> F  </i>
   <i type="logical" name="LTETE"> F  </i>
   <i type="logical" name="LTRIPLET"> F  </i>
   <i type="logical" name="LFXCEPS"> F  </i>
   <i type="logical" name="LFXHEG"> F  </i>
   <i type="int" name="NATURALO">     2</i>
   <i type="logical" name="LHOLEGF"> F  </i>
   <i type="logical" name="L2ORDER"> F  </i>
   <i type="logical" name="LDMP1"> F  </i>
   <i type="logical" name="LMP2LT"> F  </i>
   <i type="logical" name="LSMP2LT"> F  </i>
   <i type="logical" name="LGWLF"> F  </i>
   <i name="ENCUTGW">     -1.60000002</i>
   <i name="ENCUTGWSOFT">     -1.60000002</i>
   <i name="ENCUTLF">     -1.00000000</i>
   <i type="logical" name="LESF_SPLINES"> F  </i>
   <i type="int" name="LMAXMP2">    -1</i>
   <i name="SCISSOR">      0.00000000</i>
   <i type="int" name="NOMEGA">     0</i>
   <i type="int" name="NOMEGAR">     0</i>
   <i type="int" name="NBANDSGW">    -1</i>
   <i type="int" name="NBANDSO">    -1</i>
   <i type="int" name="NBANDSV">    -1</i>
   <i type="int" name="NELMGW">     1</i>
   <i type="int" name="NELMHF">     1</i>
   <i type="int" name="DIM">     3</i>
   <i type="int" name="IESPILON">     4</i>
   <i type="int" name="ANTIRES">     0</i>
   <i name="OMEGAMAX">    -30.00000000</i>
   <i name="OMEGAMIN">    -30.00000000</i>
   <i name="OMEGATL">   -200.00000000</i>
   <i type="int" name="OMEGAGRID">     0</i>
   <i name="CSHIFT">     -0.10000000</i>
   <i type="logical" name="LSELFENERGY"> F  </i>
   <i type="logical" name="LSPECTRAL"> F  </i>
   <i type="logical" name="LSPECTRALGW"> F  </i>
   <i type="logical" name="LSINGLES"> F  </i>
   <i type="logical" name="LFERMIGW"> F  </i>
   <i type="logical" name="ODDONLYGW"> F  </i>
   <i type="logical" name="EVENONLYGW"> F  </i>
   <i type="int" name="NKREDLFX">     1</i>
   <i type="int" name="NKREDLFY">     1</i>
   <i type="int" name="NKREDLFZ">     1</i>
   <i type="int" name="MAXMEM">  2800</i>
   <i type="int" name="TELESCOPE">     0</i>
   <i type="int" name="NTAUPAR">    -1</i>
   <i type="int" name="NOMEGAPAR">    -1</i>
   <i name="DAMP_NEWTON">      0.80000001</i>
   <i name="LAMBDA">      1.00000000</i>
  </separator>
  <separator name="External order field" >
   <i name="OFIELD_KAPPA">      0.00000000</i>
   <v name="OFIELD_K">      0.00000000      0.00000000      0.00000000</v>
   <i name="OFIELD_Q6_NEAR">      0.00000000</i>
   <i name="OFIELD_Q6_FAR">      0.00000000</i>
   <i name="OFIELD_A">      0.00000000</i>
  </separator>
  <separator name="optional k-points parameters" >
   <i type="int" name="KPOINTS_OPT_MODE">     1</i>
   <i type="logical" name="LKPOINTS_OPT"> F  </i>
  </separator>
 </parameters>
 <atominfo>
  <atoms>      95 </atoms>
  <types>       4 </types>
  <array name="atoms" >
   <dimension dim="1">ion</dimension>
   <field type="string">element</field>
   <field type="int">atomtype</field>
   <set>
    <rc><c>C </c><c>   1</c></rc>
    <rc><c>C </c><c>   1</c></rc>
    <rc><c>C </c><c>   1</c></rc>
    <rc><c>C </c><c>   1</c></rc>
    <rc><c>C </c><c>   1</c></rc>
    <rc><c>C </c><c>   1</c></rc>
    <rc><c>C </c><c>   1</c></rc>
    <rc><c>C </c><c>   1</c></rc>
    <rc><c>C </c><c>   1</c></rc>
    <rc><c>C </c><c>   1</c></rc>
    <rc><c>C </c><c>   1</c></rc>
    <rc><c>C </c><c>   1</c></rc>
    <rc><c>C </c><c>   1</c></rc>
    <rc><c>C </c><c>   1</c></rc>
    <rc><c>C </c><c>   1</c></rc>
    <rc><c>C </c><c>   1</c></rc>
    <rc><c>C </c><c>   1</c></rc>
    <rc><c>C </c><c>   1</c></rc>
    <rc><c>C </c><c>   1</c></rc>
    <rc><c>C </c><c>   1</c></rc>
    <rc><c>C </c><c>   1</c></rc>
    <rc><c>C </c><c>   1</c></rc>
    <rc><c>C </c><c>   1</c></rc>
    <rc><c>C </c><c>   1</c></rc>
    <rc><c>C </c><c>   1</c></rc>
    <rc><c>C </c><c>   1</c></rc>
    <rc><c>C </c><c>   1</c></rc>
    <rc><c>C </c><c>   1</c></rc>
    <rc><c>C </c><c>   1</c></rc>
    <rc><c>C </c><c>   1</c></rc>
    <rc><c>C </c><c>   1</c></rc>
    <rc><c>C </c><c>   1</c></rc>
    <rc><c>C </c><c>   1</c></rc>
    <rc><c>C </c><c>   1</c></rc>
    <rc><c>C </c><c>   1</c></rc>
    <rc><c>C </c><c>   1</c></rc>
    <rc><c>C </c><c>   1</c></rc>
    <rc><c>C </c><c>   1</c></rc>
    <rc><c>C </c><c>   1</c></rc>
    <rc><c>C </c><c>   1</c></rc>
    <rc><c>C </c><c>   1</c></rc>
    <rc><c>C </c><c>   1</c></rc>
    <rc><c>C </c><c>   1</c></rc>
    <rc><c>C </c><c>   1</c></rc>
    <rc><c>C </c><c>   1</c></rc>
    <rc><c>C </c><c>   1</c></rc>
    <rc><c>C </c><c>   1</c></rc>
    <rc><c>C </c><c>   1</c></rc>
    <rc><c>C </c><c>   1</c></rc>
    <rc><c>C </c><c>   1</c></rc>
    <rc><c>C </c><c>   1</c></rc>
    <rc><c>C </c><c>   1</c></rc>
    <rc><c>C </c><c>   1</c></rc>
    <rc><c>C </c><c>   1</c></rc>
    <rc><c>C </c><c>   1</c></rc>
    <rc><c>C </c><c>   1</c></rc>
    <rc><c>C </c><c>   1</c></rc>
    <rc><c>C </c><c>   1</c></rc>
    <rc><c>C </c><c>   1</c></rc>
    <rc><c>C </c><c>   1</c></rc>
    <rc><c>C </c><c>   1</c></rc>
    <rc><c>C </c><c>   1</c></rc>
    <rc><c>C </c><c>   1</c></rc>
    <rc><c>C </c><c>   1</c></rc>
    <rc><c>C </c><c>   1</c></rc>
    <rc><c>C </c><c>   1</c></rc>
    <rc><c>C </c><c>   1</c></rc>
    <rc><c>C </c><c>   1</c></rc>
    <rc><c>C </c><c>   1</c></rc>
    <rc><c>C </c><c>   1</c></rc>
    <rc><c>C </c><c>   1</c></rc>
    <rc><c>C </c><c>   1</c></rc>
    <rc><c>C </c><c>   1</c></rc>
    <rc><c>C </c><c>   1</c></rc>
    <rc><c>C </c><c>   1</c></rc>
    <rc><c>C </c><c>   1</c></rc>
    <rc><c>C </c><c>   1</c></rc>
    <rc><c>C </c><c>   1</c></rc>
    <rc><c>C </c><c>   1</c></rc>
    <rc><c>C </c><c>   1</c></rc>
    <rc><c>C </c><c>   1</c></rc>
    <rc><c>C </c><c>   1</c></rc>
    <rc><c>C </c><c>   1</c></rc>
    <rc><c>C </c><c>   1</c></rc>
    <rc><c>H </c><c>   2</c></rc>
    <rc><c>H </c><c>   2</c></rc>
    <rc><c>H </c><c>   2</c></rc>
    <rc><c>H </c><c>   2</c></rc>
    <rc><c>H </c><c>   2</c></rc>
    <rc><c>H </c><c>   2</c></rc>
    <rc><c>N </c><c>   3</c></rc>
    <rc><c>N </c><c>   3</c></rc>
    <rc><c>N </c><c>   3</c></rc>
    <rc><c>N </c><c>   3</c></rc>
    <rc><c>O </c><c>   4</c></rc>
   </set>
  </array>
  <array name="atomtypes" >
   <dimension dim="1">type</dimension>
   <field type="int">atomspertype</field>
   <field type="string">element</field>
   <field>mass</field>
   <field>valence</field>
   <field type="string">pseudopotential</field>
   <set>
    <rc><c>  84</c><c>C </c><c>     12.01100000</c><c>      4.00000000</c><c>  PAW_PBE C 08Apr2002                   </c></rc>
    <rc><c>   6</c><c>H </c><c>      1.00000000</c><c>      1.00000000</c><c>  PAW_PBE H 15Jun2001                   </c></rc>
    <rc><c>   4</c><c>N </c><c>     14.00100000</c><c>      5.00000000</c><c>  PAW_PBE N 08Apr2002                   </c></rc>
    <rc><c>   1</c><c>O </c><c>     16.00000000</c><c>      6.00000000</c><c>  PAW_PBE O 08Apr2002                   </c></rc>
   </set>
  </array>
 </atominfo>
 <structure name="initialpos" >
  <crystal>
   <varray name="basis" >
    <v>      17.27103806       0.00000000       0.00000000 </v>
    <v>      -8.63551903      14.95715771       0.00000000 </v>
    <v>       0.00000000       0.00000000      15.00000000 </v>
   </varray>
   <i name="volume">   3874.88459904 </i>
   <varray name="rec_basis" >
    <v>       0.05790040       0.03342881       0.00000000 </v>
    <v>       0.00000000       0.06685762       0.00000000 </v>
    <v>       0.00000000       0.00000000       0.06666667 </v>
   </varray>
  </crystal>
  <varray name="positions" >
   <v>       0.00099175       0.00099158       0.50024454 </v>
   <v>       0.00000513       0.14305458       0.50012363 </v>
   <v>       0.99993770       0.28616056       0.50010872 </v>
   <v>       0.00027708       0.42927068       0.50012855 </v>
   <v>       0.00044363       0.57229055       0.50009818 </v>
   <v>       0.00115324       0.71536294       0.50012156 </v>
   <v>       0.00229396       0.85901550       0.50019520 </v>
   <v>       0.14493996       0.00267553       0.50008638 </v>
   <v>       0.14414903       0.14493587       0.50018337 </v>
   <v>       0.14230372       0.28628067       0.50026246 </v>
   <v>       0.14327638       0.42973769       0.50034145 </v>
   <v>       0.14365589       0.57230443       0.50024268 </v>
   <v>       0.14393300       0.71541515       0.50005679 </v>
   <v>       0.14443900       0.85902896       0.49999334 </v>
   <v>       0.28751530       0.00280559       0.49991957 </v>
   <v>       0.28810999       0.14699641       0.50010436 </v>
   <v>       0.28738219       0.29211828       0.50037758 </v>
   <v>       0.28516819       0.42721231       0.50055696 </v>
   <v>       0.28802958       0.57181031       0.50048902 </v>
   <v>       0.28670525       0.71570594       0.50021026 </v>
   <v>       0.28649797       0.85906089       0.49996153 </v>
   <v>       0.42976081       0.00158360       0.49988637 </v>
   <v>       0.43096633       0.14617422       0.49995579 </v>
   <v>       0.43055000       0.28786142       0.50019082 </v>
   <v>       0.42846062       0.85748323       0.50009077 </v>
   <v>       0.57165180       0.99981725       0.49997986 </v>
   <v>       0.57245132       0.14365007       0.49991205 </v>
   <v>       0.57641678       0.29044211       0.50008799 </v>
   <v>       0.57069102       0.85472871       0.50025062 </v>
   <v>       0.71372126       0.99819452       0.50012664 </v>
   <v>       0.71474709       0.14252685       0.49996649 </v>
   <v>       0.71538285       0.28616350       0.50002862 </v>
   <v>       0.71144331       0.42642234       0.50023940 </v>
   <v>       0.71616715       0.57470896       0.50045016 </v>
   <v>       0.71289070       0.85436198       0.50049225 </v>
   <v>       0.85705848       0.99938567       0.50025091 </v>
   <v>       0.85691672       0.14243335       0.50004353 </v>
   <v>       0.85745482       0.28590005       0.50001748 </v>
   <v>       0.85749734       0.42923154       0.50008453 </v>
   <v>       0.85685492       0.57195380       0.50023503 </v>
   <v>       0.85919040       0.71604038       0.50033862 </v>
   <v>       0.85852335       0.85718223       0.50038600 </v>
   <v>       0.04861963       0.09639999       0.50018356 </v>
   <v>       0.04702361       0.23819651       0.50014512 </v>
   <v>       0.04765199       0.38163100       0.50018300 </v>
   <v>       0.04824792       0.52469361       0.50014359 </v>
   <v>       0.04851227       0.66773021       0.50006154 </v>
   <v>       0.04916588       0.81091453       0.50009628 </v>
   <v>       0.04943169       0.95415511       0.50019376 </v>
   <v>       0.19251589       0.09794337       0.50012698 </v>
   <v>       0.19115101       0.24026314       0.50026165 </v>
   <v>       0.18960084       0.38112980       0.50037657 </v>
   <v>       0.19171345       0.52512120       0.50039383 </v>
   <v>       0.19135200       0.66779460       0.50017185 </v>
   <v>       0.19159617       0.81109560       0.49998537 </v>
   <v>       0.19231971       0.95463740       0.49998097 </v>
   <v>       0.33554402       0.09889703       0.49997783 </v>
   <v>       0.33693584       0.24323768       0.50023531 </v>
   <v>       0.33174347       0.52230667       0.50060225 </v>
   <v>       0.33738973       0.67064427       0.50037688 </v>
   <v>       0.33369794       0.81077221       0.50007620 </v>
   <v>       0.33440012       0.95441150       0.49990573 </v>
   <v>       0.47746406       0.09694850       0.49988691 </v>
   <v>       0.47860162       0.24202166       0.50006388 </v>
   <v>       0.47285344       0.80630604       0.50024617 </v>
   <v>       0.47668237       0.95309936       0.49996233 </v>
   <v>       0.61938352       0.09520154       0.49993072 </v>
   <v>       0.62068206       0.23926765       0.49999816 </v>
   <v>       0.61941558       0.80956672       0.50044486 </v>
   <v>       0.61828249       0.95068915       0.50010717 </v>
   <v>       0.76173231       0.09426307       0.50001969 </v>
   <v>       0.76258755       0.23789276       0.49999005 </v>
   <v>       0.76217190       0.38128647       0.50011213 </v>
   <v>       0.76038823       0.52543970       0.50034037 </v>
   <v>       0.76346460       0.67008240       0.50044963 </v>
   <v>       0.76228192       0.80521514       0.50052625 </v>
   <v>       0.76141577       0.95040251       0.50030161 </v>
   <v>       0.90450184       0.09457872       0.50012765 </v>
   <v>       0.90465842       0.23799059       0.50003292 </v>
   <v>       0.90490363       0.38154633       0.50005562 </v>
   <v>       0.90499020       0.52475663       0.50012450 </v>
   <v>       0.90548556       0.66737451       0.50024224 </v>
   <v>       0.90695570       0.81089636       0.50030507 </v>
   <v>       0.90548758       0.95246075       0.50032212 </v>
   <v>       0.46913717       0.36057150       0.50027837 </v>
   <v>       0.40437884       0.55888753       0.50054812 </v>
   <v>       0.64316294       0.53909001       0.50046835 </v>
   <v>       0.58293006       0.73684006       0.50050258 </v>
   <v>       0.53050181       0.57216721       0.50123030 </v>
   <v>       0.45214991       0.47016242       0.50051464 </v>
   <v>       0.42735347       0.71579966       0.50039101 </v>
   <v>       0.71739094       0.71560481       0.50057592 </v>
   <v>       0.33145714       0.38197893       0.50056307 </v>
   <v>       0.62159537       0.38082235       0.50023261 </v>
   <v>       0.51782036       0.51070159       0.50000005 </v>
  </varray>
  <varray name="selective"  type="logical" >
   <v type="logical" >  T  T  T </v>
   <v type="logical" >  T  T  T </v>
   <v type="logical" >  T  T  T </v>
   <v type="logical" >  T  T  T </v>
   <v type="logical" >  T  T  T </v>
   <v type="logical" >  T  T  T </v>
   <v type="logical" >  T  T  T </v>
   <v type="logical" >  T  T  T </v>
   <v type="logical" >  T  T  T </v>
   <v type="logical" >  T  T  T </v>
   <v type="logical" >  T  T  T </v>
   <v type="logical" >  T  T  T </v>
   <v type="logical" >  T  T  T </v>
   <v type="logical" >  T  T  T </v>
   <v type="logical" >  T  T  T </v>
   <v type="logical" >  T  T  T </v>
   <v type="logical" >  T  T  T </v>
   <v type="logical" >  T  T  T </v>
   <v type="logical" >  T  T  T </v>
   <v type="logical" >  T  T  T </v>
   <v type="logical" >  T  T  T </v>
   <v type="logical" >  T  T  T </v>
   <v type="logical" >  T  T  T </v>
   <v type="logical" >  T  T  T </v>
   <v type="logical" >  T  T  T </v>
   <v type="logical" >  T  T  T </v>
   <v type="logical" >  T  T  T </v>
   <v type="logical" >  T  T  T </v>
   <v type="logical" >  T  T  T </v>
   <v type="logical" >  T  T  T </v>
   <v type="logical" >  T  T  T </v>
   <v type="logical" >  T  T  T </v>
   <v type="logical" >  T  T  T </v>
   <v type="logical" >  T  T  T </v>
   <v type="logical" >  T  T  T </v>
   <v type="logical" >  T  T  T </v>
   <v type="logical" >  T  T  T </v>
   <v type="logical" >  T  T  T </v>
   <v type="logical" >  T  T  T </v>
   <v type="logical" >  T  T  T </v>
   <v type="logical" >  T  T  T </v>
   <v type="logical" >  T  T  T </v>
   <v type="logical" >  T  T  T </v>
   <v type="logical" >  T  T  T </v>
   <v type="logical" >  T  T  T </v>
   <v type="logical" >  T  T  T </v>
   <v type="logical" >  T  T  T </v>
   <v type="logical" >  T  T  T </v>
   <v type="logical" >  T  T  T </v>
   <v type="logical" >  T  T  T </v>
   <v type="logical" >  T  T  T </v>
   <v type="logical" >  T  T  T </v>
   <v type="logical" >  T  T  T </v>
   <v type="logical" >  T  T  T </v>
   <v type="logical" >  T  T  T </v>
   <v type="logical" >  T  T  T </v>
   <v type="logical" >  T  T  T </v>
   <v type="logical" >  T  T  T </v>
   <v type="logical" >  T  T  T </v>
   <v type="logical" >  T  T  T </v>
   <v type="logical" >  T  T  T </v>
   <v type="logical" >  T  T  T </v>
   <v type="logical" >  T  T  T </v>
   <v type="logical" >  T  T  T </v>
   <v type="logical" >  T  T  T </v>
   <v type="logical" >  T  T  T </v>
   <v type="logical" >  T  T  T </v>
   <v type="logical" >  T  T  T </v>
   <v type="logical" >  T  T  T </v>
   <v type="logical" >  T  T  T </v>
   <v type="logical" >  T  T  T </v>
   <v type="logical" >  T  T  T </v>
   <v type="logical" >  T  T  T </v>
   <v type="logical" >  T  T  T </v>
   <v type="logical" >  T  T  T </v>
   <v type="logical" >  T  T  T </v>
   <v type="logical" >  T  T  T </v>
   <v type="logical" >  T  T  T </v>
   <v type="logical" >  T  T  T </v>
   <v type="logical" >  T  T  T </v>
   <v type="logical" >  T  T  T </v>
   <v type="logical" >  T  T  T </v>
   <v type="logical" >  T  T  T </v>
   <v type="logical" >  T  T  T </v>
   <v type="logical" >  T  T  T </v>
   <v type="logical" >  T  T  T </v>
   <v type="logical" >  T  T  T </v>
   <v type="logical" >  T  T  T </v>
   <v type="logical" >  T  T  T </v>
   <v type="logical" >  T  T  T </v>
   <v type="logical" >  T  T  T </v>
   <v type="logical" >  T  T  T </v>
   <v type="logical" >  T  T  T </v>
   <v type="logical" >  T  T  T </v>
   <v type="logical" >  T  T  T </v>
  </varray>
  <nose>
   <v>      -3.00000000       0.00000000       0.00010000       0.00010000 </v>
  </nose>
 </structure>
 <calculation>
  <scstep>
   <time name="dav">   78.97   79.50</time>
   <time name="total">   84.29   84.90</time>
   <energy>
    <i name="alphaZ">    175.60570339 </i>
    <i name="ewald">  36637.77145839 </i>
    <i name="hartreedc"> -47045.82186242 </i>
    <i name="XCdc">   1231.50439590 </i>
    <i name="pawpsdc">  10290.17603344 </i>
    <i name="pawaedc"> -10344.35078173 </i>
    <i name="eentropy">     -0.03976683 </i>
    <i name="bandstr">  -1585.12589035 </i>
    <i name="atom">  13925.93113153 </i>
    <i name="e_fr_energy">   3285.65042132 </i>
    <i name="e_wo_entrp">   3285.69018815 </i>
    <i name="e_0_energy">   3285.67030473 </i>
   </energy>
  </scstep>
  <scstep>
   <time name="dav">  100.80  101.50</time>
   <time name="total">  100.80  101.52</time>
   <energy>
    <i name="e_fr_energy">   -233.56814745 </i>
    <i name="e_wo_entrp">   -233.56812598 </i>
    <i name="e_0_energy">   -233.56813671 </i>
   </energy>
  </scstep>
  <scstep>
   <time name="dav">   87.30   87.94</time>
   <time name="total">   87.30   87.95</time>
   <energy>
    <i name="e_fr_energy">   -852.97545076 </i>
    <i name="e_wo_entrp">   -852.97448522 </i>
    <i name="e_0_energy">   -852.97496799 </i>
   </energy>
  </scstep>
  <scstep>
   <time name="dav">   88.69   89.29</time>
   <time name="total">   88.69   89.30</time>
   <energy>
    <i name="e_fr_energy">   -875.16342372 </i>
    <i name="e_wo_entrp">   -875.16146910 </i>
    <i name="e_0_energy">   -875.16244641 </i>
   </energy>
  </scstep>
  <scstep>
   <time name="dav">   98.62   99.32</time>
   <time name="total">  104.15  104.90</time>
   <energy>
    <i name="e_fr_energy">   -875.81979977 </i>
    <i name="e_wo_entrp">   -875.81774515 </i>
    <i name="e_0_energy">   -875.81877246 </i>
   </energy>
  </scstep>
  <scstep>
   <time name="dav">   85.56   86.14</time>
   <time name="total">   96.65   97.33</time>
   <energy>
    <i name="e_fr_energy">   -859.39252226 </i>
    <i name="e_wo_entrp">   -859.38836429 </i>
    <i name="e_0_energy">   -859.39044327 </i>
   </energy>
  </scstep>
  <scstep>
   <time name="dav">   83.64   84.25</time>
   <time name="total">   94.73   95.46</time>
   <energy>
    <i name="e_fr_energy">   -838.27643477 </i>
    <i name="e_wo_entrp">   -838.27638330 </i>
    <i name="e_0_energy">   -838.27640904 </i>
   </energy>
  </scstep>
  <scstep>
   <time name="dav">   82.67   83.32</time>
   <time name="total">   93.91   94.67</time>
   <energy>
    <i name="e_fr_energy">   -833.57412526 </i>
    <i name="e_wo_entrp">   -833.57412387 </i>
    <i name="e_0_energy">   -833.57412457 </i>
   </energy>
  </scstep>
  <scstep>
   <time name="dav">   82.78   83.31</time>
   <time name="total">   94.10   94.76</time>
   <energy>
    <i name="e_fr_energy">   -833.50114609 </i>
    <i name="e_wo_entrp">   -833.50114521 </i>
    <i name="e_0_energy">   -833.50114565 </i>
   </energy>
  </scstep>
  <scstep>
   <time name="dav">   81.38   81.88</time>
   <time name="total">   92.62   93.22</time>
   <energy>
    <i name="e_fr_energy">   -833.40123126 </i>
    <i name="e_wo_entrp">   -833.40123029 </i>
    <i name="e_0_energy">   -833.40123077 </i>
   </energy>
  </scstep>
  <scstep>
   <time name="dav">   81.24   81.78</time>
   <time name="total">   92.46   93.12</time>
   <energy>
    <i name="e_fr_energy">   -833.38851632 </i>
    <i name="e_wo_entrp">   -833.38851545 </i>
    <i name="e_0_energy">   -833.38851588 </i>
   </energy>
  </scstep>
  <scstep>
   <time name="dav">   87.06   87.60</time>
   <time name="total">   97.74   98.41</time>
   <energy>
    <i name="e_fr_energy">   -833.38817493 </i>
    <i name="e_wo_entrp">   -833.38817408 </i>
    <i name="e_0_energy">   -833.38817451 </i>
   </energy>
  </scstep>
  <scstep>
   <time name="dav">   86.94   87.52</time>
   <time name="total">   97.57   98.26</time>
   <energy>
    <i name="e_fr_energy">   -833.38801007 </i>
    <i name="e_wo_entrp">   -833.38800921 </i>
    <i name="e_0_energy">   -833.38800964 </i>
   </energy>
  </scstep>
  <scstep>
   <time name="dav">   83.16   83.73</time>
   <time name="total">   94.38   95.09</time>
   <energy>
    <i name="e_fr_energy">   -833.38808426 </i>
    <i name="e_wo_entrp">   -833.38808340 </i>
    <i name="e_0_energy">   -833.38808383 </i>
   </energy>
  </scstep>
  <scstep>
   <time name="dav">   83.99   84.52</time>
   <time name="total">   95.39   96.04</time>
   <energy>
    <i name="e_fr_energy">   -833.38812028 </i>
    <i name="e_wo_entrp">   -833.38811943 </i>
    <i name="e_0_energy">   -833.38811985 </i>
   </energy>
  </scstep>
  <scstep>
   <time name="dav">   83.41   84.00</time>
   <time name="total">   94.56   95.25</time>
   <energy>
    <i name="e_fr_energy">   -833.38812271 </i>
    <i name="e_wo_entrp">   -833.38812185 </i>
    <i name="e_0_energy">   -833.38812228 </i>
   </energy>
  </scstep>
  <scstep>
   <time name="dav">   78.56   79.07</time>
   <time name="total">   86.93   87.51</time>
   <energy>
    <i name="e_fr_energy">   -833.38812259 </i>
    <i name="e_wo_entrp">   -833.38812173 </i>
    <i name="e_0_energy">   -833.38812216 </i>
   </energy>
  </scstep>
  <scstep>
   <time name="dav">   38.01   38.19</time>
   <time name="total">   41.67   41.90</time>
   <energy>
    <i name="alphaZ">    175.60570339 </i>
    <i name="ewald">  36637.77145839 </i>
    <i name="hartreedc"> -48511.26027420 </i>
    <i name="XCdc">   1280.42301408 </i>
    <i name="pawpsdc">  37210.29599692 </i>
    <i name="pawaedc"> -37275.36607191 </i>
    <i name="eentropy">     -0.00000086 </i>
    <i name="bandstr">  -4276.78907922 </i>
    <i name="atom">  13925.93113153 </i>
    <i name="e_fr_energy">   -833.38812188 </i>
    <i name="e_wo_entrp">   -833.38812102 </i>
    <i name="e_0_energy">   -833.38812145 </i>
   </energy>
  </scstep>
  <structure>
   <crystal>
    <varray name="basis" >
     <v>      17.27103806       0.00000000       0.00000000 </v>
     <v>      -8.63551903      14.95715771       0.00000000 </v>
     <v>       0.00000000       0.00000000      15.00000000 </v>
    </varray>
    <i name="volume">   3874.88459904 </i>
    <varray name="rec_basis" >
     <v>       0.05790040       0.03342881       0.00000000 </v>
     <v>       0.00000000       0.06685762       0.00000000 </v>
     <v>       0.00000000       0.00000000       0.06666667 </v>
    </varray>
   </crystal>
   <varray name="positions" >
    <v>       0.00099175       0.00099158       0.50024454 </v>
    <v>       0.00000513       0.14305458       0.50012363 </v>
    <v>       0.99993770       0.28616056       0.50010872 </v>
    <v>       0.00027708       0.42927068       0.50012855 </v>
    <v>       0.00044363       0.57229055       0.50009818 </v>
    <v>       0.00115324       0.71536294       0.50012156 </v>
    <v>       0.00229396       0.85901550       0.50019520 </v>
    <v>       0.14493996       0.00267553       0.50008638 </v>
    <v>       0.14414903       0.14493587       0.50018337 </v>
    <v>       0.14230372       0.28628067       0.50026246 </v>
    <v>       0.14327638       0.42973769       0.50034145 </v>
    <v>       0.14365589       0.57230443       0.50024268 </v>
    <v>       0.14393300       0.71541515       0.50005679 </v>
    <v>       0.14443900       0.85902896       0.49999334 </v>
    <v>       0.28751530       0.00280559       0.49991957 </v>
    <v>       0.28810999       0.14699641       0.50010436 </v>
    <v>       0.28738219       0.29211828       0.50037758 </v>
    <v>       0.28516819       0.42721231       0.50055696 </v>
    <v>       0.28802958       0.57181031       0.50048902 </v>
    <v>       0.28670525       0.71570594       0.50021026 </v>
    <v>       0.28649797       0.85906089       0.49996153 </v>
    <v>       0.42976081       0.00158360       0.49988637 </v>
    <v>       0.43096633       0.14617422       0.49995579 </v>
    <v>       0.43055000       0.28786142       0.50019082 </v>
    <v>       0.42846062       0.85748323       0.50009077 </v>
    <v>       0.57165180       0.99981725       0.49997986 </v>
    <v>       0.57245132       0.14365007       0.49991205 </v>
    <v>       0.57641678       0.29044211       0.50008799 </v>
    <v>       0.57069102       0.85472871       0.50025062 </v>
    <v>       0.71372126       0.99819452       0.50012664 </v>
    <v>       0.71474709       0.14252685       0.49996649 </v>
    <v>       0.71538285       0.28616350       0.50002862 </v>
    <v>       0.71144331       0.42642234       0.50023940 </v>
    <v>       0.71616715       0.57470896       0.50045016 </v>
    <v>       0.71289070       0.85436198       0.50049225 </v>
    <v>       0.85705848       0.99938567       0.50025091 </v>
    <v>       0.85691672       0.14243335       0.50004353 </v>
    <v>       0.85745482       0.28590005       0.50001748 </v>
    <v>       0.85749734       0.42923154       0.50008453 </v>
    <v>       0.85685492       0.57195380       0.50023503 </v>
    <v>       0.85919040       0.71604038       0.50033862 </v>
    <v>       0.85852335       0.85718223       0.50038600 </v>
    <v>       0.04861963       0.09639999       0.50018356 </v>
    <v>       0.04702361       0.23819651       0.50014512 </v>
    <v>       0.04765199       0.38163100       0.50018300 </v>
    <v>       0.04824792       0.52469361       0.50014359 </v>
    <v>       0.04851227       0.66773021       0.50006154 </v>
    <v>       0.04916588       0.81091453       0.50009628 </v>
    <v>       0.04943169       0.95415511       0.50019376 </v>
    <v>       0.19251589       0.09794337       0.50012698 </v>
    <v>       0.19115101       0.24026314       0.50026165 </v>
    <v>       0.18960084       0.38112980       0.50037657 </v>
    <v>       0.19171345       0.52512120       0.50039383 </v>
    <v>       0.19135200       0.66779460       0.50017185 </v>
    <v>       0.19159617       0.81109560       0.49998537 </v>
    <v>       0.19231971       0.95463740       0.49998097 </v>
    <v>       0.33554402       0.09889703       0.49997783 </v>
    <v>       0.33693584       0.24323768       0.50023531 </v>
    <v>       0.33174347       0.52230667       0.50060225 </v>
    <v>       0.33738973       0.67064427       0.50037688 </v>
    <v>       0.33369794       0.81077221       0.50007620 </v>
    <v>       0.33440012       0.95441150       0.49990573 </v>
    <v>       0.47746406       0.09694850       0.49988691 </v>
    <v>       0.47860162       0.24202166       0.50006388 </v>
    <v>       0.47285344       0.80630604       0.50024617 </v>
    <v>       0.47668237       0.95309936       0.49996233 </v>
    <v>       0.61938352       0.09520154       0.49993072 </v>
    <v>       0.62068206       0.23926765       0.49999816 </v>
    <v>       0.61941558       0.80956672       0.50044486 </v>
    <v>       0.61828249       0.95068915       0.50010717 </v>
    <v>       0.76173231       0.09426307       0.50001969 </v>
    <v>       0.76258755       0.23789276       0.49999005 </v>
    <v>       0.76217190       0.38128647       0.50011213 </v>
    <v>       0.76038823       0.52543970       0.50034037 </v>
    <v>       0.76346460       0.67008240       0.50044963 </v>
    <v>       0.76228192       0.80521514       0.50052625 </v>
    <v>       0.76141577       0.95040251       0.50030161 </v>
    <v>       0.90450184       0.09457872       0.50012765 </v>
    <v>       0.90465842       0.23799059       0.50003292 </v>
    <v>       0.90490363       0.38154633       0.50005562 </v>
    <v>       0.90499020       0.52475663       0.50012450 </v>
    <v>       0.90548556       0.66737451       0.50024224 </v>
    <v>       0.90695570       0.81089636       0.50030507 </v>
    <v>       0.90548758       0.95246075       0.50032212 </v>
    <v>       0.46913717       0.36057150       0.50027837 </v>
    <v>       0.40437884       0.55888753       0.50054812 </v>
    <v>       0.64316294       0.53909001       0.50046835 </v>
    <v>       0.58293006       0.73684006       0.50050258 </v>
    <v>       0.53050181       0.57216721       0.50123030 </v>
    <v>       0.45214991       0.47016242       0.50051464 </v>
    <v>       0.42735347       0.71579966       0.50039101 </v>
    <v>       0.71739094       0.71560481       0.50057592 </v>
    <v>       0.33145714       0.38197893       0.50056307 </v>
    <v>       0.62159537       0.38082235       0.50023261 </v>
    <v>       0.51782036       0.51070159       0.50000005 </v>
   </varray>
  </structure>
  <varray name="forces" >
   <v>       0.00073143       0.00100799       0.00062142 </v>
   <v>      -0.00012241       0.00211738       0.00077790 </v>
   <v>       0.00012567       0.00163716       0.00031787 </v>
   <v>       0.00029384       0.00081140      -0.00004270 </v>
   <v>       0.00016937       0.00020758       0.00019609 </v>
   <v>      -0.00012863       0.00002188       0.00056349 </v>
   <v>      -0.00015316       0.00039381       0.00043827 </v>
   <v>      -0.00331176       0.00018095       0.00111596 </v>
   <v>       0.00047347       0.00458506      -0.00002786 </v>
   <v>      -0.00186824       0.00232943      -0.00069690 </v>
   <v>      -0.00023307       0.00030428      -0.00011095 </v>
   <v>       0.00041116       0.00017436       0.00058029 </v>
   <v>      -0.00029014      -0.00088825       0.00074870 </v>
   <v>      -0.00072865      -0.00025588       0.00057182 </v>
   <v>      -0.00010705       0.00058406      -0.00028121 </v>
   <v>      -0.00009508       0.00133159      -0.00010919 </v>
   <v>      -0.00019426       0.00089038      -0.00019957 </v>
   <v>      -0.00121457      -0.00144764      -0.00023877 </v>
   <v>      -0.00242340      -0.00184143       0.00088347 </v>
   <v>       0.00122789      -0.00240215      -0.00016465 </v>
   <v>      -0.00055749      -0.00049815       0.00021558 </v>
   <v>       0.00034564       0.00042222      -0.00047384 </v>
   <v>       0.00032168       0.00088305      -0.00074987 </v>
   <v>       0.00058231       0.00245353       0.00025576 </v>
   <v>       0.00063909      -0.00243789      -0.00128742 </v>
   <v>       0.00404131      -0.00014772       0.00024812 </v>
   <v>       0.00048435       0.00115406      -0.00097181 </v>
   <v>       0.00014303       0.00056302      -0.00066928 </v>
   <v>       0.00011554       0.00104299       0.00021051 </v>
   <v>      -0.00235290       0.00106559       0.00107574 </v>
   <v>       0.00064975       0.00421249      -0.00146657 </v>
   <v>      -0.00105955       0.00171755       0.00021303 </v>
   <v>      -0.00013075       0.00036776      -0.00039601 </v>
   <v>      -0.00005890       0.00069502      -0.00040713 </v>
   <v>      -0.00086392       0.00077325       0.00006380 </v>
   <v>       0.00017364       0.00078853       0.00058239 </v>
   <v>      -0.00026869       0.00213661      -0.00003426 </v>
   <v>       0.00024059       0.00120668       0.00023660 </v>
   <v>       0.00086439       0.00087411      -0.00049197 </v>
   <v>      -0.00014672       0.00058448      -0.00030487 </v>
   <v>      -0.00011703       0.00055700      -0.00062961 </v>
   <v>       0.00060056       0.00017676      -0.00006231 </v>
   <v>      -0.00026790      -0.00067501       0.00086409 </v>
   <v>       0.00041295      -0.00088839       0.00062580 </v>
   <v>      -0.00032997       0.00030520       0.00002675 </v>
   <v>      -0.00180215      -0.00036250      -0.00053529 </v>
   <v>       0.00003025       0.00083811       0.00039850 </v>
   <v>       0.00048720       0.00095947       0.00055555 </v>
   <v>       0.00107206       0.00131908       0.00058870 </v>
   <v>       0.00096595      -0.00032836       0.00040250 </v>
   <v>       0.00083056      -0.00196464       0.00039511 </v>
   <v>       0.00054533       0.00003405      -0.00021197 </v>
   <v>       0.00085440       0.00130428       0.00018310 </v>
   <v>       0.00007337       0.00141069       0.00088343 </v>
   <v>       0.00158084       0.00228888      -0.00029171 </v>
   <v>       0.00142036       0.00049106       0.00034112 </v>
   <v>       0.00032316      -0.00029983      -0.00039344 </v>
   <v>       0.00000933      -0.00086391      -0.00036847 </v>
   <v>       0.00207422       0.00107745      -0.00021316 </v>
   <v>       0.00268210       0.00534708      -0.00029492 </v>
   <v>       0.00038762       0.00138029       0.00037778 </v>
   <v>       0.00039017       0.00012362      -0.00017943 </v>
   <v>       0.00015864      -0.00081293      -0.00097465 </v>
   <v>       0.00059936      -0.00102946      -0.00062430 </v>
   <v>      -0.00032246       0.00015810       0.00058605 </v>
   <v>      -0.00090047      -0.00017770      -0.00042214 </v>
   <v>      -0.00095285      -0.00049077      -0.00043949 </v>
   <v>       0.00011741      -0.00036294      -0.00091326 </v>
   <v>       0.00081093       0.00041621      -0.00044627 </v>
   <v>      -0.00059518       0.00058099      -0.00017299 </v>
   <v>       0.00036856      -0.00071410       0.00023930 </v>
   <v>       0.00022442      -0.00142056       0.00019042 </v>
   <v>      -0.00060490      -0.00005628      -0.00023542 </v>
   <v>      -0.00078528       0.00047622      -0.00039750 </v>
   <v>      -0.00049199       0.00029250      -0.00113627 </v>
   <v>      -0.00003910       0.00106146      -0.00024433 </v>
   <v>       0.00260918      -0.00053953      -0.00027221 </v>
   <v>       0.00052517      -0.00082384       0.00073266 </v>
   <v>      -0.00071465      -0.00211413       0.00093359 </v>
   <v>      -0.00077655       0.00032659       0.00015050 </v>
   <v>      -0.00065402       0.00034604       0.00017607 </v>
   <v>      -0.00040231       0.00061440      -0.00019598 </v>
   <v>      -0.00035443       0.00081442      -0.00010950 </v>
   <v>      -0.00034978       0.00079365       0.00072980 </v>
   <v>       0.00119388      -0.00088927       0.00005265 </v>
   <v>      -0.00089111      -0.00091364       0.00139481 </v>
   <v>      -0.00058314       0.00009339       0.00072421 </v>
   <v>       0.00028266       0.00067560       0.00060154 </v>
   <v>      -0.00310948      -0.01142322       0.00131924 </v>
   <v>       0.00000587      -0.01202049       0.00004067 </v>
   <v>      -0.00086544      -0.00070726       0.00082450 </v>
   <v>       0.00021316       0.00070987      -0.00075403 </v>
   <v>       0.00029124      -0.00025845      -0.00048554 </v>
   <v>       0.00015005       0.00016102      -0.00057915 </v>
   <v>      -0.00210558      -0.01259543      -0.00354708 </v>
  </varray>
  <varray name="stress" >
   <v>      -1.90956456       0.36280849      -0.00321535 </v>
   <v>       0.36280894     -10.62749838       0.00101026 </v>
   <v>      -0.00321530       0.00101003      -0.26222418 </v>
  </varray>
  <energy>
   <i name="e_fr_energy">   -841.02657475 </i>
   <i name="e_wo_entrp">   -841.02657389 </i>
   <i name="e_0_energy">   -841.02657432 </i>
  </energy>
  <time name="totalsc"> 1771.76 1784.83</time>
 </calculation>
 <calculation>
  <scstep>
   <time name="dav">   77.86   78.35</time>
   <time name="total">   89.25   89.82</time>
   <energy>
    <i name="alphaZ">    175.60570339 </i>
    <i name="ewald">  36637.78602752 </i>
    <i name="hartreedc"> -48511.27096784 </i>
    <i name="XCdc">   1280.42327370 </i>
    <i name="pawpsdc">  37209.88136930 </i>
    <i name="pawaedc"> -37274.95135944 </i>
    <i name="eentropy">     -0.00000086 </i>
    <i name="bandstr">  -4276.79330393 </i>
    <i name="atom">  13925.93113153 </i>
    <i name="e_fr_energy">   -833.38812662 </i>
    <i name="e_wo_entrp">   -833.38812577 </i>
    <i name="e_0_energy">   -833.38812619 </i>
   </energy>
  </scstep>
  <scstep>
   <time name="dav">   67.67   68.07</time>
   <time name="total">   73.28   73.76</time>
   <energy>
    <i name="alphaZ">    175.60570339 </i>
    <i name="ewald">  36637.78602752 </i>
    <i name="hartreedc"> -48511.26875788 </i>
    <i name="XCdc">   1280.42321021 </i>
    <i name="pawpsdc">  37209.78494391 </i>
    <i name="pawaedc"> -37274.85495581 </i>
    <i name="eentropy">     -0.00000086 </i>
    <i name="bandstr">  -4276.79542903 </i>
    <i name="atom">  13925.93113153 </i>
    <i name="e_fr_energy">   -833.38812702 </i>
    <i name="e_wo_entrp">   -833.38812616 </i>
    <i name="e_0_energy">   -833.38812659 </i>
   </energy>
  </scstep>
  <structure>
   <crystal>
    <varray name="basis" >
     <v>      17.27103806       0.00000000       0.00000000 </v>
     <v>      -8.63551903      14.95715771       0.00000000 </v>
     <v>       0.00000000       0.00000000      15.00000000 </v>
    </varray>
    <i name="volume">   3874.88459904 </i>
    <varray name="rec_basis" >
     <v>       0.05790040       0.03342881       0.00000000 </v>
     <v>       0.00000000       0.06685762       0.00000000 </v>
     <v>       0.00000000       0.00000000       0.06666667 </v>
    </varray>
   </crystal>
   <varray name="positions" >
    <v>       0.00099252       0.00099226       0.50024459 </v>
    <v>       0.00000578       0.14305600       0.50012399 </v>
    <v>       0.99993833       0.28616166       0.50010887 </v>
    <v>       0.00027752       0.42927123       0.50012850 </v>
    <v>       0.00044380       0.57229069       0.50009819 </v>
    <v>       0.00115318       0.71536296       0.50012165 </v>
    <v>       0.00229401       0.85901577       0.50019509 </v>
    <v>       0.14493811       0.00267566       0.50008687 </v>
    <v>       0.14415085       0.14493894       0.50018305 </v>
    <v>       0.14230342       0.28628223       0.50026166 </v>
    <v>       0.14327635       0.42973790       0.50034113 </v>
    <v>       0.14365618       0.57230455       0.50024295 </v>
    <v>       0.14393254       0.71541457       0.50005726 </v>
    <v>       0.14443849       0.85902880       0.49999363 </v>
    <v>       0.28751544       0.00280599       0.49991932 </v>
    <v>       0.28811039       0.14699731       0.50010389 </v>
    <v>       0.28738238       0.29211888       0.50037673 </v>
    <v>       0.28516700       0.42721135       0.50055612 </v>
    <v>       0.28802756       0.57180909       0.50048929 </v>
    <v>       0.28670516       0.71570434       0.50021014 </v>
    <v>       0.28649749       0.85906056       0.49996173 </v>
    <v>       0.42976115       0.00158388       0.49988607 </v>
    <v>       0.43096682       0.14617482       0.49995513 </v>
    <v>       0.43055117       0.28786307       0.50019067 </v>
    <v>       0.42846018       0.85748160       0.50008989 </v>
    <v>       0.57165410       0.99981716       0.49997994 </v>
    <v>       0.57245199       0.14365084       0.49991140 </v>
    <v>       0.57641706       0.29044250       0.50008735 </v>
    <v>       0.57069144       0.85472941       0.50025049 </v>
    <v>       0.71372026       0.99819524       0.50012708 </v>
    <v>       0.71474888       0.14252967       0.49996550 </v>
    <v>       0.71538282       0.28616465       0.50002878 </v>
    <v>       0.71144336       0.42642259       0.50023887 </v>
    <v>       0.71616735       0.57470944       0.50044932 </v>
    <v>       0.71289047       0.85436250       0.50049161 </v>
    <v>       0.85705885       0.99938620       0.50025090 </v>
    <v>       0.85691728       0.14243479       0.50004341 </v>
    <v>       0.85745537       0.28590087       0.50001770 </v>
    <v>       0.85749814       0.42923213       0.50008416 </v>
    <v>       0.85685504       0.57195419       0.50023439 </v>
    <v>       0.85919053       0.71604076       0.50033749 </v>
    <v>       0.85852376       0.85718236       0.50038528 </v>
    <v>       0.04861925       0.09639955       0.50018389 </v>
    <v>       0.04702356       0.23819592       0.50014539 </v>
    <v>       0.04765190       0.38163121       0.50018293 </v>
    <v>       0.04824676       0.52469338       0.50014316 </v>
    <v>       0.04851258       0.66773078       0.50006166 </v>
    <v>       0.04916649       0.81091518       0.50009639 </v>
    <v>       0.04943276       0.95415600       0.50019382 </v>
    <v>       0.19251635       0.09794316       0.50012692 </v>
    <v>       0.19115084       0.24026183       0.50026151 </v>
    <v>       0.18960117       0.38112982       0.50037601 </v>
    <v>       0.19171438       0.52512207       0.50039369 </v>
    <v>       0.19135252       0.66779555       0.50017242 </v>
    <v>       0.19159785       0.81109714       0.49998518 </v>
    <v>       0.19232070       0.95463773       0.49998108 </v>
    <v>       0.33554411       0.09889684       0.49997737 </v>
    <v>       0.33693557       0.24323711       0.50023451 </v>
    <v>       0.33174503       0.52230739       0.50060171 </v>
    <v>       0.33739307       0.67064785       0.50037651 </v>
    <v>       0.33369863       0.81077313       0.50007649 </v>
    <v>       0.33440040       0.95441159       0.49990564 </v>
    <v>       0.47746389       0.09694797       0.49988622 </v>
    <v>       0.47860163       0.24202098       0.50006323 </v>
    <v>       0.47285331       0.80630615       0.50024638 </v>
    <v>       0.47668180       0.95309924       0.49996204 </v>
    <v>       0.61938281       0.09520122       0.49993040 </v>
    <v>       0.62068201       0.23926741       0.49999753 </v>
    <v>       0.61941620       0.80956701       0.50044418 </v>
    <v>       0.61828234       0.95068955       0.50010682 </v>
    <v>       0.76173229       0.09426260       0.50001972 </v>
    <v>       0.76258720       0.23789181       0.49999023 </v>
    <v>       0.76217154       0.38128644       0.50011193 </v>
    <v>       0.76038794       0.52544002       0.50033964 </v>
    <v>       0.76346442       0.67008261       0.50044795 </v>
    <v>       0.76228226       0.80521585       0.50052515 </v>
    <v>       0.76141711       0.95040216       0.50030094 </v>
    <v>       0.90450188       0.09457818       0.50012795 </v>
    <v>       0.90465730       0.23798918       0.50003354 </v>
    <v>       0.90490330       0.38154655       0.50005576 </v>
    <v>       0.90498994       0.52475687       0.50012443 </v>
    <v>       0.90548554       0.66737493       0.50024162 </v>
    <v>       0.90695578       0.81089692       0.50030435 </v>
    <v>       0.90548765       0.95246129       0.50032213 </v>
    <v>       0.46913759       0.36057092       0.50027841 </v>
    <v>       0.40437802       0.55888692       0.50054960 </v>
    <v>       0.64316264       0.53909008       0.50046930 </v>
    <v>       0.58293046       0.73684052       0.50050292 </v>
    <v>       0.53049594       0.57215940       0.50122953 </v>
    <v>       0.45214570       0.47015418       0.50051513 </v>
    <v>       0.42735273       0.71579919       0.50039121 </v>
    <v>       0.71739131       0.71560530       0.50057413 </v>
    <v>       0.33145723       0.38197876       0.50056165 </v>
    <v>       0.62159552       0.38082246       0.50023179 </v>
    <v>       0.51781487       0.51069291       0.50000988 </v>
   </varray>
  </structure>
  <varray name="forces" >
   <v>       0.00025607       0.00076797       0.00051096 </v>
   <v>       0.00004360       0.00039270       0.00067698 </v>
   <v>      -0.00018362       0.00039778       0.00022961 </v>
   <v>      -0.00036793       0.00053346      -0.00022025 </v>
   <v>      -0.00036499       0.00050804       0.00001775 </v>
   <v>      -0.00009847       0.00055031       0.00037641 </v>
   <v>       0.00006103       0.00074098       0.00027287 </v>
   <v>      -0.00079950       0.00044729       0.00090595 </v>
   <v>      -0.00021187      -0.00147842       0.00108861 </v>
   <v>       0.00087788      -0.00025871       0.00079804 </v>
   <v>      -0.00005521       0.00057564      -0.00027476 </v>
   <v>      -0.00018477       0.00056929       0.00038699 </v>
   <v>       0.00008962       0.00067839       0.00056822 </v>
   <v>       0.00026816       0.00070371       0.00037140 </v>
   <v>       0.00140777      -0.00063439       0.00107231 </v>
   <v>       0.00030401       0.00027133      -0.00030026 </v>
   <v>       0.00013669       0.00010451      -0.00036062 </v>
   <v>       0.00012421      -0.00002399      -0.00043606 </v>
   <v>      -0.00004751       0.00010507       0.00059415 </v>
   <v>      -0.00041497       0.00110915       0.00097869 </v>
   <v>       0.00032712       0.00058102       0.00005127 </v>
   <v>       0.00031176       0.00006569      -0.00065834 </v>
   <v>       0.00028004       0.00000898      -0.00095422 </v>
   <v>       0.00050769       0.00034603       0.00001479 </v>
   <v>       0.00020634       0.00180763       0.00021056 </v>
   <v>      -0.00192358       0.00098704      -0.00116239 </v>
   <v>       0.00004687       0.00017143      -0.00115304 </v>
   <v>       0.00019167       0.00015075      -0.00087168 </v>
   <v>       0.00002861       0.00049500       0.00002160 </v>
   <v>       0.00208906      -0.00015945       0.00056840 </v>
   <v>      -0.00012899      -0.00117339       0.00137765 </v>
   <v>      -0.00057735       0.00069030      -0.00001486 </v>
   <v>      -0.00015482       0.00054439      -0.00056663 </v>
   <v>      -0.00037821       0.00060371      -0.00058232 </v>
   <v>       0.00015629       0.00072835      -0.00021266 </v>
   <v>       0.00043066       0.00049491       0.00040516 </v>
   <v>       0.00007929       0.00020688      -0.00006375 </v>
   <v>      -0.00001807       0.00033792       0.00015866 </v>
   <v>       0.00000158       0.00061898      -0.00058247 </v>
   <v>      -0.00043020       0.00061156      -0.00048064 </v>
   <v>       0.00078140      -0.00274749      -0.00020357 </v>
   <v>       0.00012142       0.00081029      -0.00022540 </v>
   <v>       0.00007791       0.00100016       0.00067109 </v>
   <v>      -0.00009177       0.00099221       0.00039974 </v>
   <v>      -0.00004747       0.00069577      -0.00012507 </v>
   <v>       0.00074106       0.00113280       0.00040422 </v>
   <v>      -0.00003596       0.00042136       0.00030075 </v>
   <v>      -0.00007560       0.00049180       0.00042967 </v>
   <v>      -0.00001800       0.00066205       0.00048092 </v>
   <v>      -0.00001896       0.00079255       0.00024184 </v>
   <v>      -0.00024606       0.00083448       0.00010913 </v>
   <v>      -0.00044231       0.00039243      -0.00044376 </v>
   <v>      -0.00008128       0.00048498       0.00007167 </v>
   <v>       0.00020654       0.00022022       0.00071302 </v>
   <v>      -0.00054086      -0.00043552       0.00101325 </v>
   <v>      -0.00014010       0.00045192       0.00023423 </v>
   <v>       0.00022682       0.00056347      -0.00057518 </v>
   <v>       0.00027670       0.00069582      -0.00051659 </v>
   <v>      -0.00029464      -0.00013107      -0.00024888 </v>
   <v>      -0.00077587      -0.00241258       0.00042442 </v>
   <v>       0.00008454      -0.00040848       0.00009918 </v>
   <v>       0.00010509       0.00024153      -0.00034638 </v>
   <v>       0.00028647       0.00036481      -0.00114117 </v>
   <v>       0.00016410       0.00037972      -0.00078461 </v>
   <v>       0.00046428       0.00022472       0.00030201 </v>
   <v>       0.00062123      -0.00017341      -0.00061945 </v>
   <v>       0.00032176       0.00067115      -0.00066201 </v>
   <v>       0.00009866       0.00056776      -0.00104877 </v>
   <v>       0.00085233       0.00053601       0.00095417 </v>
   <v>       0.00014534       0.00045703      -0.00021353 </v>
   <v>      -0.00008221       0.00070528       0.00002018 </v>
   <v>       0.00000795       0.00095775      -0.00005350 </v>
   <v>      -0.00016852       0.00063356      -0.00038523 </v>
   <v>      -0.00045771       0.00061649      -0.00060690 </v>
   <v>       0.00048215       0.00258481       0.00003169 </v>
   <v>       0.00000109       0.00078745      -0.00044059 </v>
   <v>      -0.00122588       0.00114498       0.00038634 </v>
   <v>       0.00011447       0.00073210       0.00057393 </v>
   <v>      -0.00020233       0.00017539       0.00069668 </v>
   <v>      -0.00001540       0.00066202      -0.00002639 </v>
   <v>      -0.00030556       0.00060669      -0.00005151 </v>
   <v>      -0.00023902       0.00061550      -0.00037763 </v>
   <v>       0.00000854       0.00066571      -0.00031253 </v>
   <v>       0.00030041       0.00070002       0.00052885 </v>
   <v>       0.00123727       0.00030292      -0.00009913 </v>
   <v>       0.00005773      -0.00018367       0.00118884 </v>
   <v>      -0.00046842       0.00029896       0.00049603 </v>
   <v>       0.00032045       0.00066824       0.00041188 </v>
   <v>      -0.00283086      -0.01158238       0.00106055 </v>
   <v>      -0.00085155      -0.01238673      -0.00012999 </v>
   <v>       0.00077343       0.00055362       0.00067243 </v>
   <v>      -0.00021305       0.00075582      -0.00086772 </v>
   <v>      -0.00050725      -0.00020151      -0.00059462 </v>
   <v>      -0.00027608       0.00043084      -0.00069760 </v>
   <v>      -0.00011242      -0.01219811      -0.00388104 </v>
  </varray>
  <varray name="stress" >
   <v>      -1.90842019       0.36408777      -0.00342042 </v>
   <v>       0.36408822     -10.62536143       0.00042309 </v>
   <v>      -0.00342036       0.00042287      -0.26226903 </v>
  </varray>
  <energy>
   <i name="e_fr_energy">   -841.02657997 </i>
   <i name="e_wo_entrp">   -841.02657911 </i>
   <i name="e_0_energy">   -841.02657954 </i>
  </energy>
  <time name="totalsc">  348.63  351.00</time>
 </calculation>
 <calculation>
  <scstep>
   <time name="dav">   77.13   77.62</time>
   <time name="total">   88.95   89.54</time>
   <energy>
    <i name="alphaZ">    175.60570339 </i>
    <i name="ewald">  36637.81107255 </i>
    <i name="hartreedc"> -48511.29256364 </i>
    <i name="XCdc">   1280.42335183 </i>
    <i name="pawpsdc">  37209.70436742 </i>
    <i name="pawaedc"> -37274.77439464 </i>
    <i name="eentropy">     -0.00000086 </i>
    <i name="bandstr">  -4276.79680038 </i>
    <i name="atom">  13925.93113153 </i>
    <i name="e_fr_energy">   -833.38813279 </i>
    <i name="e_wo_entrp">   -833.38813193 </i>
    <i name="e_0_energy">   -833.38813236 </i>
   </energy>
  </scstep>
  <scstep>
   <time name="dav">   73.05   73.52</time>
   <time name="total">   84.42   85.00</time>
   <energy>
    <i name="e_fr_energy">   -833.38813345 </i>
    <i name="e_wo_entrp">   -833.38813259 </i>
    <i name="e_0_energy">   -833.38813302 </i>
   </energy>
  </scstep>
  <scstep>
   <time name="dav">   60.90   61.24</time>
   <time name="total">   66.46   66.87</time>
   <energy>
    <i name="alphaZ">    175.60570339 </i>
    <i name="ewald">  36637.81107255 </i>
    <i name="hartreedc"> -48511.29036684 </i>
    <i name="XCdc">   1280.42328125 </i>
    <i name="pawpsdc">  37209.56353844 </i>
    <i name="pawaedc"> -37274.63361215 </i>
    <i name="eentropy">     -0.00000086 </i>
    <i name="bandstr">  -4276.79888065 </i>
    <i name="atom">  13925.93113153 </i>
    <i name="e_fr_energy">   -833.38813334 </i>
    <i name="e_wo_entrp">   -833.38813248 </i>
    <i name="e_0_energy">   -833.38813291 </i>
   </energy>
  </scstep>
  <structure>
   <crystal>
    <varray name="basis" >
     <v>      17.27103806       0.00000000       0.00000000 </v>
     <v>      -8.63551903      14.95715771       0.00000000 </v>
     <v>       0.00000000       0.00000000      15.00000000 </v>
    </varray>
    <i name="volume">   3874.88459904 </i>
    <varray name="rec_basis" >
     <v>       0.05790040       0.03342881       0.00000000 </v>
     <v>       0.00000000       0.06685762       0.00000000 </v>
     <v>       0.00000000       0.00000000       0.06666667 </v>
    </varray>
   </crystal>
   <varray name="positions" >
    <v>       0.00099367       0.00099345       0.50024461 </v>
    <v>       0.00000653       0.14305758       0.50012464 </v>
    <v>       0.99993892       0.28616296       0.50010912 </v>
    <v>       0.00027789       0.42927213       0.50012825 </v>
    <v>       0.00044391       0.57229121       0.50009808 </v>
    <v>       0.00115327       0.71536340       0.50012169 </v>
    <v>       0.00229438       0.85901658       0.50019473 </v>
[...]
       <r>   -13.5631    10.8531    62.3915 </r>
       <r>   -13.4644     6.2397    63.0072 </r>
       <r>   -13.3658     6.4684    63.6455 </r>
       <r>   -13.2671     5.4987    64.1880 </r>
       <r>   -13.1684     3.1570    64.4996 </r>
       <r>   -13.0697     2.9706    64.7927 </r>
       <r>   -12.9711     5.7721    65.3622 </r>
       <r>   -12.8724     8.0552    66.1571 </r>
       <r>   -12.7737     6.4035    66.7889 </r>
       <r>   -12.6750    12.1447    67.9873 </r>
       <r>   -12.5764    15.7886    69.5452 </r>
       <r>   -12.4777     8.9416    70.4275 </r>
       <r>   -12.3790    11.0640    71.5193 </r>
       <r>   -12.2803     2.9474    71.8101 </r>
       <r>   -12.1817     6.1111    72.4131 </r>
       <r>   -12.0830     4.2122    72.8287 </r>
       <r>   -11.9843     7.2061    73.5398 </r>
       <r>   -11.8856     5.9037    74.1223 </r>
       <r>   -11.7870     8.5077    74.9618 </r>
       <r>   -11.6883    10.9323    76.0405 </r>
       <r>   -11.5896     9.2980    76.9580 </r>
       <r>   -11.4909    12.1582    78.1577 </r>
       <r>   -11.3923    14.1968    79.5586 </r>
       <r>   -11.2936     8.3396    80.3815 </r>
       <r>   -11.1949     8.9215    81.2618 </r>
       <r>   -11.0963    11.6544    82.4118 </r>
       <r>   -10.9976    10.7210    83.4697 </r>
       <r>   -10.8989     8.8906    84.3469 </r>
       <r>   -10.8002     7.7829    85.1149 </r>
       <r>   -10.7016    10.5385    86.1548 </r>
       <r>   -10.6029     6.7357    86.8194 </r>
       <r>   -10.5042     5.4290    87.3551 </r>
       <r>   -10.4055     8.1822    88.1625 </r>
       <r>   -10.3069    13.6738    89.5117 </r>
       <r>   -10.2082    14.7804    90.9702 </r>
       <r>   -10.1095    16.3561    92.5841 </r>
       <r>   -10.0108    20.2747    94.5847 </r>
       <r>    -9.9122    16.7545    96.2379 </r>
       <r>    -9.8135    14.2030    97.6394 </r>
       <r>    -9.7148    13.6866    98.9899 </r>
       <r>    -9.6161    20.6571   101.0282 </r>
       <r>    -9.5175    18.0463   102.8089 </r>
       <r>    -9.4188    16.3473   104.4220 </r>
       <r>    -9.3201    15.3327   105.9349 </r>
       <r>    -9.2214    17.3825   107.6501 </r>
       <r>    -9.1228    24.5623   110.0738 </r>
       <r>    -9.0241    28.6602   112.9018 </r>
       <r>    -8.9254    23.6330   115.2338 </r>
       <r>    -8.8267    21.8564   117.3904 </r>
       <r>    -8.7281    16.6639   119.0347 </r>
       <r>    -8.6294    14.9080   120.5058 </r>
       <r>    -8.5307    17.0150   122.1847 </r>
       <r>    -8.4321    15.4800   123.7122 </r>
       <r>    -8.3334    20.2233   125.7077 </r>
       <r>    -8.2347    26.9842   128.3703 </r>
       <r>    -8.1360    16.8667   130.0346 </r>
       <r>    -8.0374    13.7976   131.3961 </r>
       <r>    -7.9387    17.3393   133.1070 </r>
       <r>    -7.8400    15.8680   134.6728 </r>
       <r>    -7.7413     4.4121   135.1082 </r>
       <r>    -7.6427    15.3987   136.6276 </r>
       <r>    -7.5440     9.1528   137.5308 </r>
       <r>    -7.4453    23.4693   139.8466 </r>
       <r>    -7.3466    17.9141   141.6142 </r>
       <r>    -7.2480    18.5048   143.4402 </r>
       <r>    -7.1493    14.0852   144.8300 </r>
       <r>    -7.0506    15.9997   146.4088 </r>
       <r>    -6.9519    11.8916   147.5822 </r>
       <r>    -6.8533     8.9427   148.4646 </r>
       <r>    -6.7546     9.5138   149.4034 </r>
       <r>    -6.6559    12.2371   150.6108 </r>
       <r>    -6.5572    11.0447   151.7007 </r>
       <r>    -6.4586    11.2701   152.8127 </r>
       <r>    -6.3599    18.4336   154.6317 </r>
       <r>    -6.2612    24.6246   157.0615 </r>
       <r>    -6.1625    17.6603   158.8041 </r>
       <r>    -6.0639     6.0430   159.4004 </r>
       <r>    -5.9652    12.7477   160.6582 </r>
       <r>    -5.8665    13.2690   161.9675 </r>
       <r>    -5.7679     9.3898   162.8941 </r>
       <r>    -5.6692     3.8957   163.2785 </r>
       <r>    -5.5705     4.6349   163.7358 </r>
       <r>    -5.4718     2.0553   163.9386 </r>
       <r>    -5.3732     5.0493   164.4368 </r>
       <r>    -5.2745     8.1888   165.2449 </r>
       <r>    -5.1758    22.0750   167.4231 </r>
       <r>    -5.0771    13.0477   168.7106 </r>
       <r>    -4.9785    19.7086   170.6553 </r>
       <r>    -4.8798    12.1339   171.8526 </r>
       <r>    -4.7811     8.8614   172.7270 </r>
       <r>    -4.6824    10.3712   173.7503 </r>
       <r>    -4.5838    16.1658   175.3455 </r>
       <r>    -4.4851     7.8191   176.1170 </r>
       <r>    -4.3864    20.2869   178.1188 </r>
       <r>    -4.2877    11.2743   179.2313 </r>
       <r>    -4.1891    11.5636   180.3723 </r>
       <r>    -4.0904     7.4032   181.1028 </r>
       <r>    -3.9917     8.5054   181.9421 </r>
       <r>    -3.8930     0.5894   182.0003 </r>
       <r>    -3.7944     0.9808   182.0970 </r>
       <r>    -3.6957     1.5700   182.2520 </r>
       <r>    -3.5970     3.7491   182.6219 </r>
       <r>    -3.4983     3.8919   183.0059 </r>
       <r>    -3.3997     2.1160   183.2147 </r>
       <r>    -3.3010     0.5549   183.2695 </r>
       <r>    -3.2023     2.1208   183.4787 </r>
       <r>    -3.1037     0.2160   183.5001 </r>
       <r>    -3.0050     0.6008   183.5593 </r>
       <r>    -2.9063     2.5626   183.8122 </r>
       <r>    -2.8076     1.8654   183.9963 </r>
       <r>    -2.7090     0.0380   184.0000 </r>
       <r>    -2.6103     0.3778   184.0373 </r>
       <r>    -2.5116     3.4381   184.3765 </r>
       <r>    -2.4129     1.2466   184.4995 </r>
       <r>    -2.3143     0.0046   184.5000 </r>
       <r>    -2.2156     0.0152   184.5015 </r>
       <r>    -2.1169     2.5625   184.7544 </r>
       <r>    -2.0182     2.4984   185.0009 </r>
       <r>    -1.9196     2.5186   185.2494 </r>
       <r>    -1.8209     3.7906   185.6234 </r>
       <r>    -1.7222     3.4145   185.9604 </r>
       <r>    -1.6235     0.4170   186.0015 </r>
       <r>    -1.5249     3.2781   186.3250 </r>
       <r>    -1.4262     8.6042   187.1740 </r>
       <r>    -1.3275     3.0560   187.4755 </r>
       <r>    -1.2288     0.3343   187.5085 </r>
       <r>    -1.1302     4.7005   187.9724 </r>
       <r>    -1.0315    15.1700   189.4692 </r>
       <r>    -0.9328    13.3284   190.7844 </r>
       <r>    -0.8341     5.1074   191.2884 </r>
       <r>    -0.7355    10.2026   192.2951 </r>
       <r>    -0.6368    11.2793   193.4081 </r>
       <r>    -0.5381     6.1271   194.0127 </r>
       <r>    -0.4395     3.2418   194.3325 </r>
       <r>    -0.3408     7.7939   195.1016 </r>
       <r>    -0.2421     9.8194   196.0705 </r>
       <r>    -0.1434     9.8000   197.0375 </r>
       <r>    -0.0448    10.4486   198.0685 </r>
       <r>     0.0539    11.6628   199.2193 </r>
       <r>     0.1526     5.9996   199.8114 </r>
       <r>     0.2513     1.8824   199.9971 </r>
       <r>     0.3499     1.1021   200.1058 </r>
       <r>     0.4486     6.5170   200.7489 </r>
       <r>     0.5473     9.5020   201.6865 </r>
       <r>     0.6460     6.9509   202.3724 </r>
       <r>     0.7446     5.1187   202.8775 </r>
       <r>     0.8433     4.7800   203.3491 </r>
       <r>     0.9420     8.5538   204.1932 </r>
       <r>     1.0407    12.3382   205.4106 </r>
       <r>     1.1393     3.7016   205.7759 </r>
       <r>     1.2380     6.3828   206.4057 </r>
       <r>     1.3367    17.7169   208.1539 </r>
       <r>     1.4354    22.3665   210.3609 </r>
       <r>     1.5340    10.2103   211.3684 </r>
       <r>     1.6327     6.9055   212.0498 </r>
       <r>     1.7314     7.2505   212.7652 </r>
       <r>     1.8301     9.0268   213.6559 </r>
       <r>     1.9287    17.0556   215.3389 </r>
       <r>     2.0274    28.2325   218.1247 </r>
       <r>     2.1261    12.7314   219.3809 </r>
       <r>     2.2247    12.7022   220.6343 </r>
       <r>     2.3234    19.3084   222.5395 </r>
       <r>     2.4221    24.1972   224.9272 </r>
       <r>     2.5208    13.7667   226.2856 </r>
       <r>     2.6194     7.0704   226.9833 </r>
       <r>     2.7181    16.5385   228.6152 </r>
       <r>     2.8168    21.2549   230.7125 </r>
       <r>     2.9155    54.7727   236.1171 </r>
       <r>     3.0141    27.1430   238.7955 </r>
       <r>     3.1128     9.9967   239.7819 </r>
       <r>     3.2115    15.1542   241.2772 </r>
       <r>     3.3102    16.4710   242.9025 </r>
       <r>     3.4088    17.5328   244.6325 </r>
       <r>     3.5075    23.5868   246.9599 </r>
       <r>     3.6062    14.6369   248.4042 </r>
       <r>     3.7049    13.1515   249.7019 </r>
       <r>     3.8035    24.9761   252.1664 </r>
       <r>     3.9022    27.1470   254.8451 </r>
       <r>     4.0009    25.3937   257.3508 </r>
       <r>     4.0996    10.8954   258.4259 </r>
       <r>     4.1982     9.5262   259.3659 </r>
       <r>     4.2969    38.3337   263.1484 </r>
       <r>     4.3956    18.3627   264.9604 </r>
       <r>     4.4943     0.4018   265.0000 </r>
       <r>     4.5929     0.0000   265.0000 </r>
       <r>     4.6916     0.0000   265.0000 </r>
       <r>     4.7903     0.0000   265.0000 </r>
       <r>     4.8889     0.0000   265.0000 </r>
       <r>     4.9876     0.0000   265.0000 </r>
       <r>     5.0863     0.0000   265.0000 </r>
       <r>     5.1850     0.0000   265.0000 </r>
       <r>     5.2836     0.0000   265.0000 </r>
       <r>     5.3823     0.0000   265.0000 </r>
       <r>     5.4810     0.0000   265.0000 </r>
       <r>     5.5797     0.0000   265.0000 </r>
       <r>     5.6783     0.0000   265.0000 </r>
      </set>
     </set>
    </array>
   </total>
  </dos>
 </calculation>
 <structure name="finalpos" >
  <crystal>
   <varray name="basis" >
    <v>      17.27103806       0.00000000       0.00000000 </v>
    <v>      -8.63551903      14.95715771       0.00000000 </v>
    <v>       0.00000000       0.00000000      15.00000000 </v>
   </varray>
   <i name="volume">   3874.88459904 </i>
   <varray name="rec_basis" >
    <v>       0.05790040       0.03342881       0.00000000 </v>
    <v>       0.00000000       0.06685762       0.00000000 </v>
    <v>       0.00000000       0.00000000       0.06666667 </v>
   </varray>
  </crystal>
  <varray name="positions" >
   <v>       0.00100235       0.00105388       0.50024355 </v>
   <v>       0.00003270       0.14313035       0.50014164 </v>
   <v>       0.99997529       0.28623497       0.50012578 </v>
   <v>       0.00031696       0.42936549       0.50013160 </v>
   <v>       0.00048859       0.57238997       0.50006009 </v>
   <v>       0.00119838       0.71545711       0.49998615 </v>
   <v>       0.00231669       0.85908900       0.50011613 </v>
   <v>       0.14495524       0.00274426       0.50005842 </v>
   <v>       0.14415697       0.14498417       0.50015511 </v>
   <v>       0.14232648       0.28634256       0.50025171 </v>
   <v>       0.14331127       0.42981615       0.50035075 </v>
   <v>       0.14370830       0.57240058       0.50031546 </v>
   <v>       0.14398472       0.71551020       0.50007364 </v>
   <v>       0.14447512       0.85911175       0.49998096 </v>
   <v>       0.28754193       0.00286309       0.49984469 </v>
   <v>       0.28813630       0.14704258       0.50004717 </v>
   <v>       0.28736047       0.29210847       0.50040854 </v>
   <v>       0.28518066       0.42725930       0.50054921 </v>
   <v>       0.28808848       0.57187592       0.50049974 </v>
   <v>       0.28676304       0.71578541       0.50021120 </v>
   <v>       0.28654513       0.85913650       0.49990205 </v>
   <v>       0.42981158       0.00165637       0.49970928 </v>
   <v>       0.43100042       0.14621932       0.49980670 </v>
   <v>       0.43058214       0.28789656       0.50010637 </v>
   <v>       0.42851590       0.85755958       0.49996290 </v>
   <v>       0.57170846       0.99990849       0.49981282 </v>
   <v>       0.57249878       0.14373564       0.49969353 </v>
   <v>       0.57645159       0.29051295       0.49987006 </v>
   <v>       0.57073696       0.85480526       0.50021747 </v>
   <v>       0.71375796       0.99827765       0.50010282 </v>
   <v>       0.71480022       0.14261988       0.49985733 </v>
   <v>       0.71542520       0.28625354       0.49983931 </v>
   <v>       0.71147515       0.42651043       0.49994002 </v>
   <v>       0.71619120       0.57480369       0.50012880 </v>
   <v>       0.71292053       0.85443226       0.50045612 </v>
   <v>       0.85708503       0.99946209       0.50026563 </v>
   <v>       0.85695741       0.14251931       0.50005967 </v>
   <v>       0.85750321       0.28599724       0.49995276 </v>
   <v>       0.85753715       0.42933287       0.49996739 </v>
   <v>       0.85689120       0.57205250       0.49997867 </v>
   <v>       0.85922836       0.71612196       0.50009940 </v>
   <v>       0.85854630       0.85725639       0.50028865 </v>
   <v>       0.04863217       0.09646107       0.50018788 </v>
   <v>       0.04705435       0.23826899       0.50015359 </v>
   <v>       0.04768792       0.38171642       0.50019380 </v>
   <v>       0.04829353       0.52479212       0.50017497 </v>
   <v>       0.04856435       0.66782877       0.50002462 </v>
   <v>       0.04920321       0.81100289       0.50002061 </v>
   <v>       0.04944883       0.95422409       0.50015583 </v>
   <v>       0.19253989       0.09800638       0.50008642 </v>
   <v>       0.19114751       0.24029564       0.50023327 </v>
   <v>       0.18962264       0.38119238       0.50036859 </v>
   <v>       0.19176697       0.52520670       0.50046080 </v>
   <v>       0.19140966       0.66789231       0.50022378 </v>
   <v>       0.19164129       0.81118579       0.49998464 </v>
   <v>       0.19234066       0.95470939       0.49995327 </v>
   <v>       0.33557486       0.09894473       0.49987432 </v>
   <v>       0.33695608       0.24327378       0.50021781 </v>
   <v>       0.33180145       0.52236036       0.50049744 </v>
   <v>       0.33744807       0.67071993       0.50038905 </v>
   <v>       0.33375088       0.81084829       0.50001128 </v>
   <v>       0.33444517       0.95448052       0.49979990 </v>
   <v>       0.47751054       0.09701626       0.49969964 </v>
   <v>       0.47862629       0.24205853       0.49991473 </v>
   <v>       0.47290143       0.80637947       0.50020386 </v>
   <v>       0.47674160       0.95317868       0.49976979 </v>
   <v>       0.61943190       0.09529328       0.49975748 </v>
   <v>       0.62072148       0.23934909       0.49976957 </v>
   <v>       0.61944438       0.80962188       0.50038264 </v>
   <v>       0.61832658       0.95077377       0.50003143 </v>
   <v>       0.76177955       0.09434961       0.49999569 </v>
   <v>       0.76263586       0.23798818       0.49986118 </v>
   <v>       0.76220975       0.38137948       0.49990858 </v>
   <v>       0.76041554       0.52553174       0.50000287 </v>
   <v>       0.76350329       0.67017375       0.50024298 </v>
   <v>       0.76231074       0.80529561       0.50045128 </v>
   <v>       0.76144564       0.95047220       0.50029529 </v>
   <v>       0.90453398       0.09465816       0.50016223 </v>
   <v>       0.90469773       0.23807271       0.50003432 </v>
   <v>       0.90494606       0.38164903       0.50000487 </v>
   <v>       0.90502902       0.52485732       0.49999544 </v>
   <v>       0.90552923       0.66746621       0.49999279 </v>
   <v>       0.90698549       0.81097529       0.50016615 </v>
   <v>       0.90550502       0.95253221       0.50031315 </v>
   <v>       0.46928302       0.36059163       0.50023794 </v>
   <v>       0.40443921       0.55888443       0.49998037 </v>
   <v>       0.64317575       0.53912328       0.50004234 </v>
   <v>       0.58296919       0.73689161       0.50027153 </v>
   <v>       0.52934510       0.56973479       0.50595197 </v>
   <v>       0.45103216       0.46796132       0.50109041 </v>
   <v>       0.42740596       0.71587431       0.50044360 </v>
   <v>       0.71742717       0.71568708       0.50053261 </v>
   <v>       0.33139079       0.38195198       0.50068694 </v>
   <v>       0.62162450       0.38089254       0.49994220 </v>
   <v>       0.51674334       0.50865664       0.49868301 </v>
  </varray>
  <varray name="selective"  type="logical" >
   <v type="logical" >  T  T  T </v>
   <v type="logical" >  T  T  T </v>
   <v type="logical" >  T  T  T </v>
   <v type="logical" >  T  T  T </v>
   <v type="logical" >  T  T  T </v>
   <v type="logical" >  T  T  T </v>
   <v type="logical" >  T  T  T </v>
   <v type="logical" >  T  T  T </v>
   <v type="logical" >  T  T  T </v>
   <v type="logical" >  T  T  T </v>
   <v type="logical" >  T  T  T </v>
   <v type="logical" >  T  T  T </v>
   <v type="logical" >  T  T  T </v>
   <v type="logical" >  T  T  T </v>
   <v type="logical" >  T  T  T </v>
   <v type="logical" >  T  T  T </v>
   <v type="logical" >  T  T  T </v>
   <v type="logical" >  T  T  T </v>
   <v type="logical" >  T  T  T </v>
   <v type="logical" >  T  T  T </v>
   <v type="logical" >  T  T  T </v>
   <v type="logical" >  T  T  T </v>
   <v type="logical" >  T  T  T </v>
   <v type="logical" >  T  T  T </v>
   <v type="logical" >  T  T  T </v>
   <v type="logical" >  T  T  T </v>
   <v type="logical" >  T  T  T </v>
   <v type="logical" >  T  T  T </v>
   <v type="logical" >  T  T  T </v>
   <v type="logical" >  T  T  T </v>
   <v type="logical" >  T  T  T </v>
   <v type="logical" >  T  T  T </v>
   <v type="logical" >  T  T  T </v>
   <v type="logical" >  T  T  T </v>
   <v type="logical" >  T  T  T </v>
   <v type="logical" >  T  T  T </v>
   <v type="logical" >  T  T  T </v>
   <v type="logical" >  T  T  T </v>
   <v type="logical" >  T  T  T </v>
   <v type="logical" >  T  T  T </v>
   <v type="logical" >  T  T  T </v>
   <v type="logical" >  T  T  T </v>
   <v type="logical" >  T  T  T </v>
   <v type="logical" >  T  T  T </v>
   <v type="logical" >  T  T  T </v>
   <v type="logical" >  T  T  T </v>
   <v type="logical" >  T  T  T </v>
   <v type="logical" >  T  T  T </v>
   <v type="logical" >  T  T  T </v>
   <v type="logical" >  T  T  T </v>
   <v type="logical" >  T  T  T </v>
   <v type="logical" >  T  T  T </v>
   <v type="logical" >  T  T  T </v>
   <v type="logical" >  T  T  T </v>
   <v type="logical" >  T  T  T </v>
   <v type="logical" >  T  T  T </v>
   <v type="logical" >  T  T  T </v>
   <v type="logical" >  T  T  T </v>
   <v type="logical" >  T  T  T </v>
   <v type="logical" >  T  T  T </v>
   <v type="logical" >  T  T  T </v>
   <v type="logical" >  T  T  T </v>
   <v type="logical" >  T  T  T </v>
   <v type="logical" >  T  T  T </v>
   <v type="logical" >  T  T  T </v>
   <v type="logical" >  T  T  T </v>
   <v type="logical" >  T  T  T </v>
   <v type="logical" >  T  T  T </v>
   <v type="logical" >  T  T  T </v>
   <v type="logical" >  T  T  T </v>
   <v type="logical" >  T  T  T </v>
   <v type="logical" >  T  T  T </v>
   <v type="logical" >  T  T  T </v>
   <v type="logical" >  T  T  T </v>
   <v type="logical" >  T  T  T </v>
   <v type="logical" >  T  T  T </v>
   <v type="logical" >  T  T  T </v>
   <v type="logical" >  T  T  T </v>
   <v type="logical" >  T  T  T </v>
   <v type="logical" >  T  T  T </v>
   <v type="logical" >  T  T  T </v>
   <v type="logical" >  T  T  T </v>
   <v type="logical" >  T  T  T </v>
   <v type="logical" >  T  T  T </v>
   <v type="logical" >  T  T  T </v>
   <v type="logical" >  T  T  T </v>
   <v type="logical" >  T  T  T </v>
   <v type="logical" >  T  T  T </v>
   <v type="logical" >  T  T  T </v>
   <v type="logical" >  T  T  T </v>
   <v type="logical" >  T  T  T </v>
   <v type="logical" >  T  T  T </v>
   <v type="logical" >  T  T  T </v>
   <v type="logical" >  T  T  T </v>
   <v type="logical" >  T  T  T </v>
  </varray>
  <nose>
   <v>      -3.00000000       0.00000000       0.00010000       0.00010000 </v>
  </nose>
 </structure>
</modeling>
