unknown system                          
           1
    17.271038    0.000000    0.000000
    -8.635519   14.957158    0.000000
     0.000000    0.000000   15.000000
   C    H    N    O 
    84     6     4     1
Direct configuration=     1
   0.00099252  0.00099226  0.50024459
   0.00000578  0.14305600  0.50012399
   0.99993833  0.28616166  0.50010887
   0.00027752  0.42927123  0.50012850
   0.00044380  0.57229069  0.50009819
   0.00115318  0.71536296  0.50012165
   0.00229401  0.85901577  0.50019509
   0.14493811  0.00267566  0.50008687
   0.14415085  0.14493894  0.50018305
   0.14230342  0.28628223  0.50026166
   0.14327635  0.42973790  0.50034113
   0.14365618  0.57230455  0.50024295
   0.14393254  0.71541457  0.50005726
   0.14443849  0.85902880  0.49999363
   0.28751544  0.00280599  0.49991932
   0.28811039  0.14699731  0.50010389
   0.28738238  0.29211888  0.50037673
   0.28516700  0.42721135  0.50055612
   0.28802756  0.57180909  0.50048929
   0.28670516  0.71570434  0.50021014
   0.28649749  0.85906056  0.49996173
   0.42976115  0.00158388  0.49988607
   0.43096682  0.14617482  0.49995513
   0.43055117  0.28786307  0.50019067
   0.42846018  0.85748160  0.50008989
   0.57165410  0.99981716  0.49997994
   0.57245199  0.14365084  0.49991140
   0.57641706  0.29044250  0.50008735
   0.57069144  0.85472941  0.50025049
   0.71372026  0.99819524  0.50012708
   0.71474888  0.14252967  0.49996550
   0.71538282  0.28616465  0.50002878
   0.71144336  0.42642259  0.50023887
   0.71616735  0.57470944  0.50044932
   0.71289047  0.85436250  0.50049161
   0.85705885  0.99938620  0.50025090
   0.85691728  0.14243479  0.50004341
   0.85745537  0.28590087  0.50001770
   0.85749814  0.42923213  0.50008416
   0.85685504  0.57195419  0.50023439
   0.85919053  0.71604076  0.50033749
   0.85852376  0.85718236  0.50038528
   0.04861925  0.09639955  0.50018389
   0.04702356  0.23819592  0.50014539
   0.04765190  0.38163121  0.50018293
   0.04824676  0.52469338  0.50014316
   0.04851258  0.66773078  0.50006166
   0.04916649  0.81091518  0.50009639
   0.04943276  0.95415600  0.50019382
   0.19251635  0.09794316  0.50012692
   0.19115084  0.24026183  0.50026151
   0.18960117  0.38112982  0.50037601
   0.19171438  0.52512207  0.50039369
   0.19135252  0.66779555  0.50017242
   0.19159785  0.81109714  0.49998518
   0.19232070  0.95463773  0.49998108
   0.33554411  0.09889684  0.49997737
   0.33693557  0.24323711  0.50023451
   0.33174503  0.52230739  0.50060171
   0.33739307  0.67064785  0.50037651
   0.33369863  0.81077313  0.50007649
   0.33440040  0.95441159  0.49990564
   0.47746389  0.09694797  0.49988622
   0.47860163  0.24202098  0.50006323
   0.47285331  0.80630615  0.50024638
   0.47668180  0.95309924  0.49996204
   0.61938281  0.09520122  0.49993040
   0.62068201  0.23926741  0.49999753
   0.61941620  0.80956701  0.50044418
   0.61828234  0.95068955  0.50010682
   0.76173229  0.09426260  0.50001972
   0.76258720  0.23789181  0.49999023
   0.76217154  0.38128644  0.50011193
   0.76038794  0.52544002  0.50033964
   0.76346442  0.67008261  0.50044795
   0.76228226  0.80521585  0.50052515
   0.76141711  0.95040216  0.50030094
   0.90450188  0.09457818  0.50012795
   0.90465730  0.23798918  0.50003354
   0.90490330  0.38154655  0.50005576
   0.90498994  0.52475687  0.50012443
   0.90548554  0.66737493  0.50024162
   0.90695578  0.81089692  0.50030435
   0.90548765  0.95246129  0.50032213
   0.46913759  0.36057092  0.50027841
   0.40437802  0.55888692  0.50054960
   0.64316264  0.53909008  0.50046930
   0.58293046  0.73684052  0.50050292
   0.53049594  0.57215940  0.50122953
   0.45214570  0.47015418  0.50051513
   0.42735273  0.71579919  0.50039121
   0.71739131  0.71560530  0.50057413
   0.33145723  0.38197876  0.50056165
   0.62159552  0.38082246  0.50023179
   0.51781487  0.51069291  0.50000988
Direct configuration=     2
   0.00099367  0.00099345  0.50024461
   0.00000653  0.14305758  0.50012464
   0.99993892  0.28616296  0.50010912
   0.00027789  0.42927213  0.50012825
   0.00044391  0.57229121  0.50009808
   0.00115327  0.71536340  0.50012169
   0.00229438  0.85901658  0.50019473
   0.14493611  0.00267612  0.50008772
   0.14415180  0.14494062  0.50018324
   0.14230363  0.28628345  0.50026117
   0.14327650  0.42973853  0.50034038
   0.14365655  0.57230510  0.50024335
   0.14393244  0.71541455  0.50005809
   0.14443848  0.85902918  0.49999407
   0.28751624  0.00280589  0.49991982
   0.28811105  0.14699833  0.50010281
   0.28738268  0.29211950  0.50037492
   0.28516601  0.42721047  0.50055430
   0.28802576  0.57180807  0.50048962
   0.28670523  0.71570373  0.50021075
   0.28649748  0.85906071  0.49996201
   0.42976170  0.00158420  0.49988532
   0.43096745  0.14617537  0.49995365
   0.43055269  0.28786483  0.50019020
   0.42846059  0.85748149  0.50008924
   0.57165530  0.99981781  0.49997905
   0.57245270  0.14365167  0.49990996
   0.57641750  0.29044296  0.50008592
   0.57069202  0.85473042  0.50025009
   0.71372064  0.99819577  0.50012759
   0.71474997  0.14253134  0.49996561
   0.71538267  0.28616621  0.50002895
   0.71144352  0.42642323  0.50023767
   0.71616752  0.57471032  0.50044752
   0.71289064  0.85436353  0.50049015
   0.85705965  0.99938706  0.50025075
   0.85691792  0.14243624  0.50004317
   0.85745598  0.28590185  0.50001808
   0.85749909  0.42923313  0.50008335
   0.85685510  0.57195502  0.50023299
   0.85919014  0.71603907  0.50033553
   0.85852453  0.85718309  0.50038373
   0.04861934  0.09639990  0.50018441
   0.04702383  0.23819614  0.50014576
   0.04765206  0.38163193  0.50018268
   0.04824662  0.52469402  0.50014300
   0.04851299  0.66773161  0.50006185
   0.04916718  0.81091614  0.50009652
   0.04943396  0.95415731  0.50019386
   0.19251705  0.09794357  0.50012668
   0.19115085  0.24026129  0.50026101
   0.18960133  0.38113015  0.50037472
   0.19171535  0.52512323  0.50039332
   0.19135320  0.66779658  0.50017344
   0.19159886  0.81109820  0.49998577
   0.19232168  0.95463838  0.49998123
   0.33554456  0.09889709  0.49997631
   0.33693576  0.24323713  0.50023281
   0.33174620  0.52230795  0.50060060
   0.33739468  0.67064929  0.50037630
   0.33369916  0.81077367  0.50007685
   0.33440080  0.95441186  0.49990534
   0.47746406  0.09694776  0.49988470
   0.47860189  0.24202066  0.50006180
   0.47285358  0.80630642  0.50024661
   0.47668162  0.95309902  0.49996131
   0.61938263  0.09520143  0.49992960
   0.62068225  0.23926762  0.49999618
   0.61941751  0.80956768  0.50044385
   0.61828248  0.95069025  0.50010611
   0.76173249  0.09426270  0.50001964
   0.76258726  0.23789167  0.49999042
   0.76217134  0.38128688  0.50011141
   0.76038762  0.52544078  0.50033802
   0.76346554  0.67008472  0.50044544
   0.76228287  0.80521709  0.50052282
   0.76141795  0.95040270  0.50030009
   0.90450226  0.09457824  0.50012846
   0.90465624  0.23798805  0.50003462
   0.90490324  0.38154725  0.50005589
   0.90498974  0.52475754  0.50012411
   0.90548561  0.66737577  0.50024026
   0.90695611  0.81089792  0.50030277
   0.90548818  0.95246231  0.50032202
   0.46913889  0.36057063  0.50027836
   0.40437725  0.55888625  0.50055241
   0.64316218  0.53909039  0.50047105
   0.58293129  0.73684144  0.50050346
   0.53048425  0.57214359  0.50122783
   0.45213656  0.47013733  0.50051597
   0.42735278  0.71579918  0.50039151
   0.71739180  0.71560630  0.50057048
   0.33145690  0.38197847  0.50055876
   0.62159565  0.38082289  0.50023006
   0.51780525  0.51067575  0.50002915
Direct configuration=     3
   0.00099467  0.00099493  0.50024476
   0.00000696  0.14305835  0.50012570
   0.99993888  0.28616361  0.50010959
   0.00027790  0.42927323  0.50012793
   0.00044386  0.57229225  0.50009796
   0.00115370  0.71536459  0.50012175
   0.00229508  0.85901794  0.50019425
   0.14493817  0.00267760  0.50008807
   0.14415148  0.14493991  0.50018401
   0.14230429  0.28628353  0.50026106
   0.14327692  0.42973961  0.50033929
   0.14365687  0.57230626  0.50024396
   0.14393319  0.71541580  0.50005936
   0.14443953  0.85903049  0.49999476
   0.28751708  0.00280648  0.49991982
   0.28811185  0.14699882  0.50010121
   0.28738288  0.29211948  0.50037227
   0.28516612  0.42721057  0.50055160
   0.28802730  0.57180855  0.50048914
   0.28670597  0.71570512  0.50021215
   0.28649839  0.85906156  0.49996247
   0.42976224  0.00158426  0.49988417
   0.43096786  0.14617539  0.49995142
   0.43055293  0.28786421  0.50018841
   0.42846167  0.85748296  0.50008898
   0.57165456  0.99981898  0.49997731
   0.57245298  0.14365199  0.49990782
   0.57641791  0.29044333  0.50008376
   0.57069264  0.85473129  0.50024958
   0.71372249  0.99819606  0.50012812
   0.71474969  0.14253087  0.49996682
   0.71538322  0.28616671  0.50002787
   0.71144364  0.42642426  0.50023592
   0.71616738  0.57471181  0.50044495
   0.71289173  0.85436500  0.50048799
   0.85706072  0.99938806  0.50025059
   0.85691809  0.14243641  0.50004302
   0.85745610  0.28590243  0.50001876
   0.85749947  0.42923426  0.50008229
   0.85685494  0.57195611  0.50023095
   0.85919052  0.71604017  0.50033234
   0.85852545  0.85718458  0.50038151
   0.04862033  0.09640166  0.50018524
   0.04702455  0.23819800  0.50014632
   0.04765254  0.38163324  0.50018235
   0.04824774  0.52469552  0.50014320
   0.04851321  0.66773239  0.50006222
   0.04916745  0.81091703  0.50009680
   0.04943423  0.95415845  0.50019405
   0.19251753  0.09794488  0.50012644
   0.19115119  0.24026268  0.50026028
   0.18960035  0.38113074  0.50037398
   0.19171536  0.52512393  0.50039287
   0.19135361  0.66779700  0.50017499
   0.19159847  0.81109815  0.49998721
   0.19232180  0.95463930  0.49998163
   0.33554546  0.09889794  0.49997482
   0.33693701  0.24323850  0.50023039
   0.33174527  0.52230740  0.50059921
   0.33739348  0.67064748  0.50037650
   0.33369914  0.81077326  0.50007734
   0.33440140  0.95441217  0.49990497
   0.47746485  0.09694832  0.49988245
   0.47860259  0.24202139  0.50005971
   0.47285453  0.80630690  0.50024687
   0.47668245  0.95309899  0.49996017
   0.61938361  0.09520261  0.49992843
   0.62068282  0.23926868  0.49999425
   0.61941883  0.80956887  0.50044395
   0.61828321  0.95069113  0.50010519
   0.76173304  0.09426385  0.50001960
   0.76258803  0.23789348  0.49999072
   0.76217177  0.38128826  0.50011066
   0.76038745  0.52544195  0.50033561
   0.76346589  0.67008592  0.50044113
   0.76228365  0.80521873  0.50051939
   0.76141807  0.95040438  0.50029925
   0.90450318  0.09457967  0.50012921
   0.90465736  0.23798977  0.50003503
   0.90490386  0.38154850  0.50005606
   0.90498982  0.52475873  0.50012356
   0.90548584  0.66737644  0.50023832
   0.90695662  0.81089856  0.50030048
   0.90548950  0.95246375  0.50032186
   0.46914139  0.36057131  0.50027834
   0.40437720  0.55888587  0.50055647
   0.64316173  0.53909099  0.50047350
   0.58293249  0.73684266  0.50050429
   0.53046677  0.57211897  0.50122530
   0.45212205  0.47011187  0.50051724
   0.42735414  0.71579994  0.50039200
   0.71739256  0.71560814  0.50056522
   0.33145599  0.38197810  0.50055453
   0.62159574  0.38082354  0.50022755
   0.51779209  0.51065045  0.50005615
Direct configuration=     4
   0.00099553  0.00099673  0.50024515
   0.00000750  0.14305915  0.50012717
   0.99993883  0.28616437  0.50011023
   0.00027813  0.42927475  0.50012754
   0.00044399  0.57229392  0.50009786
   0.00115447  0.71536638  0.50012177
   0.00229599  0.85901968  0.50019366
   0.14494097  0.00267937  0.50008885
   0.14415048  0.14493819  0.50018532
   0.14230515  0.28628325  0.50026135
   0.14327730  0.42974116  0.50033796
   0.14365738  0.57230788  0.50024477
   0.14393440  0.71541773  0.50006110
   0.14444100  0.85903228  0.49999573
   0.28751781  0.00280786  0.49991919
   0.28811287  0.14699933  0.50009909
   0.28738294  0.29211898  0.50036885
   0.28516665  0.42721150  0.50054814
   0.28802957  0.57180994  0.50048873
   0.28670750  0.71570662  0.50021319
   0.28649968  0.85906247  0.49996310
   0.42976293  0.00158433  0.49988247
   0.43096847  0.14617537  0.49994834
   0.43055341  0.28786356  0.50018638
   0.42846302  0.85748503  0.50008906
   0.57165496  0.99981961  0.49997572
   0.57245330  0.14365246  0.49990487
   0.57641844  0.29044400  0.50008079
   0.57069368  0.85473217  0.50024904
   0.71372323  0.99819727  0.50012865
   0.71474876  0.14252937  0.49996889
   0.71538396  0.28616751  0.50002682
   0.71144375  0.42642576  0.50023356
   0.71616681  0.57471376  0.50044171
   0.71289367  0.85436703  0.50048530
   0.85706196  0.99938951  0.50025050
   0.85691826  0.14243620  0.50004305
   0.85745627  0.28590326  0.50001963
   0.85749848  0.42923533  0.50008240
   0.85685469  0.57195741  0.50022825
   0.85919106  0.71604098  0.50032849
   0.85852665  0.85718673  0.50037872
   0.04862195  0.09640427  0.50018646
   0.04702546  0.23820062  0.50014711
   0.04765308  0.38163501  0.50018191
   0.04824810  0.52469692  0.50014285
   0.04851343  0.66773345  0.50006283
   0.04916773  0.81091824  0.50009724
   0.04943421  0.95415968  0.50019441
   0.19251826  0.09794676  0.50012624
   0.19115190  0.24026505  0.50025942
   0.18959917  0.38113161  0.50037371
   0.19171487  0.52512441  0.50039230
   0.19135400  0.66779757  0.50017703
   0.19159869  0.81109886  0.49998828
   0.19232192  0.95464078  0.49998227
   0.33554661  0.09889904  0.49997288
   0.33693879  0.24324046  0.50022725
   0.33174342  0.52230603  0.50059766
   0.33739113  0.67064413  0.50037724
   0.33369943  0.81077314  0.50007796
   0.33440242  0.95441273  0.49990450
   0.47746603  0.09694927  0.49987936
   0.47860357  0.24202251  0.50005687
   0.47285597  0.80630772  0.50024713
   0.47668393  0.95309969  0.49995850
   0.61938316  0.09520295  0.49992807
   0.62068362  0.23927011  0.49999162
   0.61941941  0.80957078  0.50044311
   0.61828456  0.95069236  0.50010411
   0.76173401  0.09426555  0.50001974
   0.76258914  0.23789626  0.49999113
   0.76217291  0.38129041  0.50010952
   0.76038745  0.52544357  0.50033239
   0.76346691  0.67008827  0.50043626
   0.76228491  0.80522095  0.50051491
   0.76141698  0.95040385  0.50029959
   0.90450445  0.09458200  0.50013016
   0.90466006  0.23799358  0.50003471
   0.90490491  0.38155014  0.50005613
   0.90499024  0.52476047  0.50012263
   0.90548640  0.66737729  0.50023582
   0.90695740  0.81089922  0.50029752
   0.90549148  0.95246559  0.50032160
   0.46914487  0.36057246  0.50027823
   0.40437762  0.55888562  0.50056151
   0.64316142  0.53909200  0.50047636
   0.58293411  0.73684416  0.50050540
   0.53044337  0.57208429  0.50122221
   0.45210206  0.47007760  0.50051887
   0.42735600  0.71580082  0.50039267
   0.71739358  0.71561067  0.50055861
   0.33145473  0.38197786  0.50054909
   0.62159585  0.38082437  0.50022429
   0.51777694  0.51061894  0.50008837
Direct configuration=     5
   0.00099670  0.00099905  0.50024592
   0.00000887  0.14306173  0.50012907
   0.99993819  0.28616285  0.50011164
   0.00027890  0.42927681  0.50012701
   0.00044439  0.57229588  0.50009777
   0.00115526  0.71536830  0.50012175
   0.00229678  0.85902152  0.50019306
   0.14494231  0.00268113  0.50009010
   0.14415046  0.14493868  0.50018706
   0.14230572  0.28628435  0.50026209
   0.14327558  0.42974085  0.50033626
   0.14365784  0.57230938  0.50024573
   0.14393525  0.71541932  0.50006331
   0.14444188  0.85903394  0.49999704
   0.28751891  0.00280865  0.49991937
   0.28811421  0.14700090  0.50009654
   0.28738295  0.29211882  0.50036485
   0.28516576  0.42721204  0.50054424
   0.28802980  0.57181060  0.50048848
   0.28670860  0.71570633  0.50021398
   0.28650060  0.85906297  0.49996386
   0.42976410  0.00158500  0.49988011
   0.43096982  0.14617619  0.49994437
   0.43055514  0.28786486  0.50018410
   0.42846298  0.85748405  0.50008801
   0.57165699  0.99981975  0.49997429
   0.57245401  0.14365384  0.49990118
   0.57641918  0.29044531  0.50007698
   0.57069530  0.85473351  0.50024854
   0.71372254  0.99819926  0.50012919
   0.71474830  0.14253019  0.49997004
   0.71538499  0.28616959  0.50002575
   0.71144386  0.42642772  0.50023061
   0.71616631  0.57471621  0.50043802
   0.71289519  0.85436890  0.50048236
   0.85706279  0.99939119  0.50025074
   0.85691959  0.14243819  0.50004328
   0.85745738  0.28590557  0.50002051
   0.85749760  0.42923690  0.50008354
   0.85685462  0.57195895  0.50022496
   0.85919188  0.71604173  0.50032410
   0.85852770  0.85718821  0.50037691
   0.04862304  0.09640628  0.50018824
   0.04702603  0.23820217  0.50014827
   0.04765331  0.38163696  0.50018137
   0.04824752  0.52469846  0.50014204
   0.04851413  0.66773547  0.50006373
   0.04916882  0.81092036  0.50009791
   0.04943529  0.95416176  0.50019506
   0.19251963  0.09794837  0.50012624
   0.19115251  0.24026565  0.50025864
   0.18959899  0.38113255  0.50037374
   0.19171514  0.52512573  0.50039162
   0.19135493  0.66779938  0.50017950
   0.19160042  0.81110124  0.49998905
   0.19232320  0.95464286  0.49998314
   0.33554763  0.09890000  0.49997045
   0.33693997  0.24324152  0.50022353
   0.33174520  0.52230841  0.50059734
   0.33739336  0.67064630  0.50037924
   0.33370117  0.81077464  0.50007870
   0.33440364  0.95441382  0.49990386
   0.47746692  0.09694993  0.49987534
   0.47860452  0.24202283  0.50005325
   0.47285697  0.80630860  0.50024744
   0.47668539  0.95310115  0.49995628
   0.61938377  0.09520378  0.49992710
   0.62068441  0.23927124  0.49998823
   0.61942049  0.80957280  0.50044283
   0.61828621  0.95069414  0.50010300
   0.76173497  0.09426685  0.50002032
   0.76258943  0.23789749  0.49999174
   0.76217364  0.38129253  0.50010799
   0.76038716  0.52544571  0.50032844
   0.76346801  0.67009142  0.50043095
   0.76228684  0.80522397  0.50050962
   0.76141784  0.95040213  0.50030036
   0.90450542  0.09458390  0.50013130
   0.90466075  0.23799534  0.50003516
   0.90490530  0.38155189  0.50005614
   0.90499039  0.52476245  0.50012136
   0.90548715  0.66737867  0.50023290
   0.90695829  0.81090053  0.50029410
   0.90549261  0.95246730  0.50032273
   0.46914880  0.36057317  0.50027795
   0.40437749  0.55888496  0.50056716
   0.64316102  0.53909338  0.50047924
   0.58293612  0.73684607  0.50050671
   0.53041459  0.57204063  0.50121901
   0.45207845  0.47003570  0.50052077
   0.42735661  0.71580084  0.50039358
   0.71739489  0.71561367  0.50055117
   0.33145341  0.38197772  0.50054277
   0.62159606  0.38082545  0.50022040
   0.51775948  0.51058084  0.50012110
Direct configuration=     6
   0.00099811  0.00100154  0.50024748
   0.00001063  0.14306514  0.50013148
   0.99993990  0.28616605  0.50011297
   0.00027958  0.42927905  0.50012635
   0.00044473  0.57229798  0.50009775
   0.00115615  0.71537034  0.50012183
   0.00229760  0.85902350  0.50019268
   0.14494208  0.00268289  0.50009193
   0.14415227  0.14494193  0.50018922
   0.14230616  0.28628680  0.50026339
   0.14327470  0.42974206  0.50033499
   0.14365795  0.57231063  0.50024687
   0.14393598  0.71542089  0.50006600
   0.14444254  0.85903579  0.49999874
   0.28752049  0.00280909  0.49992024
   0.28811580  0.14700312  0.50009380
   0.28738302  0.29211900  0.50036062
   0.28516425  0.42721279  0.50054053
   0.28802859  0.57181096  0.50048877
   0.28670952  0.71570579  0.50021489
   0.28650168  0.85906382  0.49996471
   0.42976586  0.00158637  0.49987704
   0.43097150  0.14617753  0.49993956
   0.43055777  0.28786751  0.50018163
   0.42846404  0.85748424  0.50008748
   0.57165747  0.99982112  0.49997185
   0.57245515  0.14365571  0.49989683
   0.57642014  0.29044687  0.50007241
   0.57069704  0.85473517  0.50024831
   0.71372437  0.99820038  0.50012972
   0.71474922  0.14253377  0.49997023
   0.71538603  0.28617247  0.50002458
   0.71144392  0.42642996  0.50022717
   0.71616774  0.57471989  0.50043571
   0.71289603  0.85436982  0.50047972
   0.85706312  0.99939244  0.50025180
   0.85692153  0.14244203  0.50004394
   0.85745887  0.28590877  0.50002137
   0.85749900  0.42923956  0.50008385
   0.85685448  0.57196126  0.50022268
   0.85919310  0.71604321  0.50031944
   0.85852902  0.85718936  0.50037627
   0.04862320  0.09640748  0.50019085
   0.04702647  0.23820224  0.50015008
   0.04765234  0.38163731  0.50018090
   0.04824858  0.52470140  0.50014206
   0.04851547  0.66773832  0.50006509
   0.04917057  0.81092309  0.50009897
   0.04943756  0.95416463  0.50019623
   0.19252142  0.09794957  0.50012669
   0.19115260  0.24026427  0.50025834
   0.18960028  0.38113332  0.50037243
   0.19171578  0.52512725  0.50039092
   0.19135596  0.66780271  0.50018110
   0.19160167  0.81110325  0.49999111
   0.19232543  0.95464486  0.49998444
   0.33554870  0.09890087  0.49996767
   0.33694079  0.24324192  0.50021952
   0.33174675  0.52230948  0.50059715
   0.33739721  0.67064902  0.50038023
   0.33370317  0.81077611  0.50007947
   0.33440487  0.95441496  0.49990315
   0.47746764  0.09695039  0.49987039
   0.47860551  0.24202261  0.50004892
   0.47285758  0.80630896  0.50024785
   0.47668667  0.95310222  0.49995355
   0.61938306  0.09520335  0.49992691
   0.62068533  0.23927237  0.49998411
   0.61942216  0.80957442  0.50044320
   0.61828769  0.95069581  0.50010212
   0.76173556  0.09426787  0.50002153
   0.76258914  0.23789730  0.49999258
   0.76217322  0.38129430  0.50010632
   0.76038644  0.52544830  0.50032401
   0.76346860  0.67009314  0.50042689
   0.76228731  0.80522648  0.50050475
   0.76142100  0.95040648  0.50030090
   0.90450619  0.09458538  0.50013274
   0.90465916  0.23799439  0.50003654
   0.90490484  0.38155391  0.50005631
   0.90499006  0.52476435  0.50012001
   0.90548808  0.66738049  0.50022979
   0.90695926  0.81090230  0.50029069
   0.90549227  0.95247029  0.50032237
   0.46915320  0.36057347  0.50027752
   0.40437768  0.55888431  0.50057311
   0.64316040  0.53909500  0.50048175
   0.58293846  0.73684829  0.50050828
   0.53038148  0.57199027  0.50121642
   0.45205381  0.46998769  0.50052284
   0.42735677  0.71580087  0.50039504
   0.71739657  0.71561700  0.50054365
   0.33145181  0.38197755  0.50053612
   0.62159641  0.38082678  0.50021612
   0.51773726  0.51053332  0.50014798
Direct configuration=     7
   0.00099909  0.00100434  0.50025019
   0.00001137  0.14306700  0.50013479
   0.99993977  0.28616666  0.50011514
   0.00027592  0.42927855  0.50012613
   0.00044523  0.57230125  0.50009781
   0.00115785  0.71537348  0.50012209
   0.00229946  0.85902665  0.50019265
   0.14494265  0.00268534  0.50009461
   0.14415513  0.14494549  0.50019207
   0.14230707  0.28628871  0.50026533
   0.14327410  0.42974250  0.50033372
   0.14365864  0.57231347  0.50024814
   0.14393733  0.71542408  0.50006934
   0.14444436  0.85903884  0.50000112
   0.28752231  0.00281163  0.49991976
   0.28811695  0.14700395  0.50009247
   0.28738325  0.29211927  0.50035603
   0.28516419  0.42721464  0.50053708
   0.28802860  0.57181202  0.50048977
   0.28671143  0.71570780  0.50021606
   0.28650359  0.85906578  0.49996568
   0.42976798  0.00158818  0.49987263
   0.43097275  0.14617859  0.49993316
   0.43056023  0.28786929  0.50017854
   0.42846719  0.85748692  0.50008731
   0.57165930  0.99982233  0.49996958
   0.57245644  0.14365718  0.49989130
   0.57642157  0.29044847  0.50006643
   0.57069854  0.85473743  0.50024853
   0.71372891  0.99820302  0.50012893
   0.71475092  0.14253739  0.49996952
   0.71538674  0.28617523  0.50002292
   0.71144396  0.42643288  0.50022276
   0.71616923  0.57472414  0.50043485
   0.71289718  0.85437206  0.50047762
   0.85706416  0.99939550  0.50025397
   0.85692231  0.14244485  0.50004536
   0.85745915  0.28591093  0.50002221
   0.85750148  0.42924335  0.50008292
   0.85685414  0.57196438  0.50022107
   0.85919463  0.71604614  0.50031441
   0.85853058  0.85719208  0.50037664
   0.04862373  0.09640952  0.50019485
   0.04702809  0.23820439  0.50015300
   0.04765105  0.38163759  0.50018046
   0.04824918  0.52470418  0.50014179
   0.04851699  0.66774160  0.50006711
   0.04917222  0.81092625  0.50010056
   0.04943965  0.95416780  0.50019836
   0.19252329  0.09795169  0.50012789
   0.19115265  0.24026425  0.50025884
   0.18960034  0.38113490  0.50037140
   0.19171582  0.52512863  0.50039025
   0.19135771  0.66780490  0.50018346
   0.19160227  0.81110480  0.49999483
   0.19232769  0.95464678  0.49998650
   0.33555059  0.09890242  0.49996428
   0.33694290  0.24324378  0.50021496
   0.33174582  0.52230869  0.50059726
   0.33739840  0.67064942  0.50038208
   0.33370442  0.81077631  0.50008017
   0.33440676  0.95441609  0.49990223
   0.47746914  0.09695179  0.49986370
   0.47860702  0.24202360  0.50004329
   0.47285902  0.80630949  0.50024845
   0.47668767  0.95310267  0.49994983
   0.61938220  0.09520400  0.49992691
   0.62068701  0.23927478  0.49997859
   0.61942488  0.80957604  0.50044428
   0.61828714  0.95069764  0.50010234
   0.76173653  0.09427053  0.50002341
   0.76259005  0.23789928  0.49999351
   0.76217293  0.38129706  0.50010432
   0.76038627  0.52545177  0.50031907
   0.76346978  0.67009524  0.50042389
   0.76228744  0.80522861  0.50050053
   0.76142262  0.95041088  0.50030281
   0.90450777  0.09458808  0.50013477
   0.90465845  0.23799536  0.50003896
   0.90490525  0.38155742  0.50005662
   0.90499008  0.52476702  0.50011859
   0.90548947  0.66738331  0.50022647
   0.90696072  0.81090482  0.50028753
   0.90549282  0.95247196  0.50032445
   0.46915927  0.36057460  0.50027675
   0.40437917  0.55888421  0.50057942
   0.64316063  0.53909777  0.50048356
   0.58294131  0.73685079  0.50051024
   0.53034097  0.57192750  0.50121520
   0.45202578  0.46992803  0.50052494
   0.42735889  0.71580247  0.50039737
   0.71739836  0.71562014  0.50053631
   0.33144949  0.38197729  0.50052908
   0.62159684  0.38082867  0.50021106
   0.51770634  0.51046966  0.50016323
Direct configuration=     8
   0.00099939  0.00100681  0.50025474
   0.00001150  0.14306740  0.50013942
   0.99993964  0.28616357  0.50011642
   0.00027599  0.42928186  0.50012564
   0.00044611  0.57230552  0.50009810
   0.00116028  0.71537794  0.50012280
   0.00230222  0.85903100  0.50019338
   0.14494583  0.00268837  0.50009846
   0.14415651  0.14494639  0.50019597
   0.14230845  0.28628938  0.50026806
   0.14327353  0.42974272  0.50033270
   0.14365987  0.57231728  0.50024947
   0.14393943  0.71542808  0.50007365
   0.14444731  0.85904248  0.50000474
   0.28752518  0.00281403  0.49991982
   0.28811850  0.14700416  0.50009268
   0.28738355  0.29211971  0.50035159
   0.28516489  0.42721630  0.50053441
   0.28803017  0.57181337  0.50049177
   0.28671395  0.71571137  0.50021779
   0.28650574  0.85906778  0.49996697
   0.42976978  0.00158963  0.49986649
   0.43097436  0.14617886  0.49992686
   0.43056204  0.28786942  0.50017461
   0.42846864  0.85748665  0.50008525
   0.57166129  0.99982341  0.49996781
   0.57245749  0.14365841  0.49988453
   0.57642060  0.29045043  0.50005999
   0.57069974  0.85473966  0.50024975
   0.71372966  0.99820723  0.50012964
   0.71475144  0.14253751  0.49997059
   0.71538753  0.28617796  0.50002054
   0.71144414  0.42643662  0.50021737
   0.71616851  0.57472764  0.50043563
   0.71289930  0.85437699  0.50047702
   0.85706671  0.99940062  0.50025789
   0.85692132  0.14244532  0.50004811
   0.85745809  0.28591200  0.50002329
   0.85750070  0.42924719  0.50008271
   0.85685394  0.57196803  0.50021983
   0.85919628  0.71605039  0.50030967
   0.85853157  0.85719599  0.50037818
   0.04862586  0.09641326  0.50020073
   0.04702993  0.23820757  0.50015545
   0.04764916  0.38163821  0.50018037
   0.04824758  0.52470536  0.50014145
   0.04851839  0.66774521  0.50007001
   0.04917371  0.81092991  0.50010288
   0.04944022  0.95417088  0.50020198
   0.19252487  0.09795504  0.50013043
   0.19115374  0.24026825  0.50026064
   0.18959853  0.38113722  0.50037093
   0.19171483  0.52512975  0.50038993
   0.19135921  0.66780749  0.50018508
   0.19160516  0.81110888  0.49999847
   0.19232914  0.95464984  0.49998956
   0.33555290  0.09890475  0.49996037
   0.33694613  0.24324702  0.50021034
   0.33174436  0.52230826  0.50059813
   0.33739797  0.67064842  0.50038314
   0.33370603  0.81077733  0.50008081
   0.33440950  0.95441814  0.49990087
   0.47747384  0.09695644  0.49985868
   0.47860477  0.24202468  0.50003771
   0.47286224  0.80631158  0.50024961
   0.47668920  0.95310363  0.49994510
   0.61938402  0.09520756  0.49992625
   0.62068905  0.23927801  0.49997142
   0.61942704  0.80957912  0.50044412
   0.61829010  0.95069936  0.50010251
   0.76173849  0.09427526  0.50002565
   0.76259250  0.23790505  0.49999416
   0.76217350  0.38130156  0.50010389
   0.76038713  0.52545583  0.50031451
   0.76347239  0.67009975  0.50042215
   0.76228892  0.80523121  0.50049788
   0.76142434  0.95041194  0.50030503
   0.90450947  0.09459218  0.50013786
   0.90465999  0.23800020  0.50004250
   0.90490529  0.38156047  0.50005701
   0.90499103  0.52477146  0.50011738
   0.90549122  0.66738759  0.50022345
   0.90696291  0.81090877  0.50028536
   0.90549613  0.95247409  0.50032785
   0.46916714  0.36057675  0.50027553
   0.40438045  0.55888383  0.50058557
   0.64316246  0.53910210  0.50048419
   0.58294437  0.73685279  0.50051267
   0.53029209  0.57184683  0.50121659
   0.45198923  0.46985229  0.50052670
   0.42736230  0.71580456  0.50040088
   0.71739955  0.71562210  0.50053055
   0.33144641  0.38197647  0.50052252
   0.62159688  0.38083081  0.50020529
   0.51767370  0.51039770  0.50015465
Direct configuration=     9
   0.00100147  0.00100973  0.50026206
   0.00001379  0.14307052  0.50014579
   0.99994097  0.28617148  0.50011799
   0.00027490  0.42928317  0.50012581
   0.00044686  0.57230944  0.50009882
   0.00116230  0.71538314  0.50012440
   0.00230447  0.85903584  0.50019555
   0.14494936  0.00269196  0.50010399
   0.14415635  0.14494749  0.50020160
   0.14230677  0.28629130  0.50026711
   0.14327077  0.42974408  0.50033235
   0.14365968  0.57231924  0.50025058
   0.14394207  0.71543192  0.50007890
   0.14445002  0.85904639  0.50001005
   0.28752837  0.00281580  0.49992035
   0.28812183  0.14700763  0.50009414
   0.28738754  0.29212179  0.50035047