  99  99   0   0
  0.3914025E+02  0.1727104E-08  0.1727104E-08  0.1500000E-08  0.0000000E+00
  1.000000000000000E-004
  CAR 
 unknown system                          
      6.03940156    -31.39565523  301     -2.39079775      1.00000000
    -31.396  0.0000E+00  0.0000E+00  0.0000E+00  0.0000E+00
    -31.271  0.0000E+00  0.0000E+00  0.0000E+00  0.0000E+00
    -31.146  0.0000E+00  0.0000E+00  0.0000E+00  0.0000E+00
    -31.021  0.0000E+00  0.0000E+00  0.0000E+00  0.0000E+00
    -30.897  0.0000E+00  0.0000E+00  0.0000E+00  0.0000E+00
    -30.772  0.0000E+00  0.0000E+00  0.0000E+00  0.0000E+00
    -30.647  0.0000E+00  0.0000E+00  0.0000E+00  0.0000E+00
    -30.522  0.0000E+00  0.0000E+00  0.0000E+00  0.0000E+00
    -30.397  0.0000E+00  0.0000E+00  0.0000E+00  0.0000E+00
    -30.273  0.0000E+00  0.0000E+00  0.0000E+00  0.0000E+00
    -30.148  0.0000E+00  0.0000E+00  0.0000E+00  0.0000E+00
    -30.023  0.0000E+00  0.0000E+00  0.0000E+00  0.0000E+00
    -29.898  0.3062E-10  0.3062E-10  0.3821E-11  0.3821E-11
    -29.773  0.9880E-04  0.9880E-04  0.1233E-04  0.1233E-04
    -29.649  0.7122E-02  0.7122E-02  0.9010E-03  0.9010E-03
    -29.524  0.6439E-02  0.6439E-02  0.1704E-02  0.1704E-02
    -29.399  0.1032E-01  0.1032E-01  0.2993E-02  0.2993E-02
    -29.274  0.1239E-01  0.1239E-01  0.4539E-02  0.4539E-02
    -29.150  0.8548E-02  0.8548E-02  0.5605E-02  0.5605E-02
    -29.025  0.1505E-01  0.1505E-01  0.7483E-02  0.7483E-02
    -28.900  0.4140E-02  0.4140E-02  0.8000E-02  0.8000E-02
    -28.775  0.1844E-05  0.1844E-05  0.8000E-02  0.8000E-02
    -28.650  0.8136E-14  0.8136E-14  0.8000E-02  0.8000E-02
    -28.526  0.0000E+00  0.0000E+00  0.8000E-02  0.8000E-02
    -28.401  0.0000E+00  0.0000E+00  0.8000E-02  0.8000E-02
    -28.276  0.0000E+00  0.0000E+00  0.8000E-02  0.8000E-02
    -28.151  0.0000E+00  0.0000E+00  0.8000E-02  0.8000E-02
    -28.027  0.0000E+00  0.0000E+00  0.8000E-02  0.8000E-02
    -27.902  0.0000E+00  0.0000E+00  0.8000E-02  0.8000E-02
    -27.777  0.0000E+00  0.0000E+00  0.8000E-02  0.8000E-02
    -27.652  0.0000E+00  0.0000E+00  0.8000E-02  0.8000E-02
    -27.527  0.0000E+00  0.0000E+00  0.8000E-02  0.8000E-02
    -27.403  0.0000E+00  0.0000E+00  0.8000E-02  0.8000E-02
    -27.278  0.0000E+00  0.0000E+00  0.8000E-02  0.8000E-02
    -27.153  0.0000E+00  0.0000E+00  0.8000E-02  0.8000E-02
    -27.028  0.0000E+00  0.0000E+00  0.8000E-02  0.8000E-02
    -26.903  0.0000E+00  0.0000E+00  0.8000E-02  0.8000E-02
    -26.779  0.0000E+00  0.0000E+00  0.8000E-02  0.8000E-02
    -26.654  0.0000E+00  0.0000E+00  0.8000E-02  0.8000E-02
    -26.529  0.0000E+00  0.0000E+00  0.8000E-02  0.8000E-02
    -26.404  0.0000E+00  0.0000E+00  0.8000E-02  0.8000E-02
    -26.280  0.0000E+00  0.0000E+00  0.8000E-02  0.8000E-02
    -26.155  0.0000E+00  0.0000E+00  0.8000E-02  0.8000E-02
    -26.030  0.0000E+00  0.0000E+00  0.8000E-02  0.8000E-02
    -25.905  0.0000E+00  0.0000E+00  0.8000E-02  0.8000E-02
    -25.780  0.0000E+00  0.0000E+00  0.8000E-02  0.8000E-02
    -25.656  0.0000E+00  0.0000E+00  0.8000E-02  0.8000E-02
    -25.531  0.0000E+00  0.0000E+00  0.8000E-02  0.8000E-02
    -25.406  0.0000E+00  0.0000E+00  0.8000E-02  0.8000E-02
    -25.281  0.0000E+00  0.0000E+00  0.8000E-02  0.8000E-02
    -25.156  0.0000E+00  0.0000E+00  0.8000E-02  0.8000E-02
    -25.032  0.0000E+00  0.0000E+00  0.8000E-02  0.8000E-02
    -24.907  0.0000E+00  0.0000E+00  0.8000E-02  0.8000E-02
    -24.782  0.0000E+00  0.0000E+00  0.8000E-02  0.8000E-02
    -24.657  0.0000E+00  0.0000E+00  0.8000E-02  0.8000E-02
    -24.533  0.0000E+00  0.0000E+00  0.8000E-02  0.8000E-02
    -24.408  0.0000E+00  0.0000E+00  0.8000E-02  0.8000E-02
    -24.283  0.0000E+00  0.0000E+00  0.8000E-02  0.8000E-02
    -24.158  0.0000E+00  0.0000E+00  0.8000E-02  0.8000E-02
    -24.033  0.0000E+00  0.0000E+00  0.8000E-02  0.8000E-02
    -23.909  0.0000E+00  0.0000E+00  0.8000E-02  0.8000E-02
    -23.784  0.0000E+00  0.0000E+00  0.8000E-02  0.8000E-02
    -23.659  0.0000E+00  0.0000E+00  0.8000E-02  0.8000E-02
    -23.534  0.0000E+00  0.0000E+00  0.8000E-02  0.8000E-02
    -23.410  0.0000E+00  0.0000E+00  0.8000E-02  0.8000E-02
    -23.285  0.0000E+00  0.0000E+00  0.8000E-02  0.8000E-02
    -23.160  0.0000E+00  0.0000E+00  0.8000E-02  0.8000E-02
    -23.035  0.0000E+00  0.0000E+00  0.8000E-02  0.8000E-02
    -22.910  0.0000E+00  0.0000E+00  0.8000E-02  0.8000E-02
    -22.786  0.0000E+00  0.0000E+00  0.8000E-02  0.8000E-02
    -22.661  0.7388E-09  0.7388E-09  0.8000E-02  0.8000E-02
    -22.536  0.3686E-03  0.3686E-03  0.8046E-02  0.8046E-02
    -22.411  0.7384E-02  0.7384E-02  0.8967E-02  0.8967E-02
    -22.286  0.2610E-03  0.2610E-03  0.9000E-02  0.9000E-02
    -22.162  0.3089E-09  0.3089E-09  0.9000E-02  0.9000E-02
    -22.037  0.1508E-08  0.1508E-08  0.9000E-02  0.9000E-02
    -21.912  0.2052E-03  0.2052E-03  0.9026E-02  0.9026E-02
    -21.787  0.5700E-02  0.5700E-02  0.9737E-02  0.9737E-02
    -21.663  0.7770E-02  0.7770E-02  0.1071E-01  0.1071E-01
    -21.538  0.2982E-02  0.2982E-02  0.1108E-01  0.1108E-01
    -21.413  0.1075E-01  0.1075E-01  0.1242E-01  0.1242E-01
    -21.288  0.7277E-02  0.7277E-02  0.1333E-01  0.1333E-01
    -21.163  0.1688E-02  0.1688E-02  0.1354E-01  0.1354E-01
    -21.039  0.9259E-02  0.9259E-02  0.1469E-01  0.1469E-01
    -20.914  0.1076E-01  0.1076E-01  0.1604E-01  0.1604E-01
    -20.789  0.5279E-02  0.5279E-02  0.1670E-01  0.1670E-01
    -20.664  0.1260E-02  0.1260E-02  0.1685E-01  0.1685E-01
    -20.539  0.7199E-02  0.7199E-02  0.1775E-01  0.1775E-01
    -20.415  0.9096E-02  0.9096E-02  0.1889E-01  0.1889E-01
    -20.290  0.1329E-01  0.1329E-01  0.2054E-01  0.2054E-01
    -20.165  0.4392E-02  0.4392E-02  0.2109E-01  0.2109E-01
    -20.040  0.3134E-02  0.3134E-02  0.2148E-01  0.2148E-01
    -19.916  0.6523E-02  0.6523E-02  0.2230E-01  0.2230E-01
    -19.791  0.5368E-02  0.5368E-02  0.2297E-01  0.2297E-01
    -19.666  0.8117E-02  0.8117E-02  0.2398E-01  0.2398E-01
    -19.541  0.1057E-01  0.1057E-01  0.2530E-01  0.2530E-01
    -19.416  0.1076E-01  0.1076E-01  0.2664E-01  0.2664E-01
    -19.292  0.2246E-02  0.2246E-02  0.2692E-01  0.2692E-01
    -19.167  0.7366E-02  0.7366E-02  0.2784E-01  0.2784E-01
    -19.042  0.5997E-02  0.5997E-02  0.2859E-01  0.2859E-01
    -18.917  0.5021E-02  0.5021E-02  0.2922E-01  0.2922E-01
    -18.793  0.4181E-02  0.4181E-02  0.2974E-01  0.2974E-01
    -18.668  0.1154E-01  0.1154E-01  0.3118E-01  0.3118E-01
    -18.543  0.1376E-01  0.1376E-01  0.3290E-01  0.3290E-01
    -18.418  0.3509E-02  0.3509E-02  0.3333E-01  0.3333E-01
    -18.293  0.8667E-02  0.8667E-02  0.3442E-01  0.3442E-01
    -18.169  0.6050E-02  0.6050E-02  0.3517E-01  0.3517E-01
    -18.044  0.9382E-02  0.9382E-02  0.3634E-01  0.3634E-01
    -17.919  0.4861E-02  0.4861E-02  0.3695E-01  0.3695E-01
    -17.794  0.3879E-02  0.3879E-02  0.3743E-01  0.3743E-01
    -17.669  0.3154E-02  0.3154E-02  0.3783E-01  0.3783E-01
    -17.545  0.1393E-01  0.1393E-01  0.3956E-01  0.3956E-01
    -17.420  0.1275E-01  0.1275E-01  0.4115E-01  0.4115E-01
    -17.295  0.1071E-01  0.1071E-01  0.4249E-01  0.4249E-01
    -17.170  0.6998E-02  0.6998E-02  0.4336E-01  0.4336E-01
    -17.046  0.6987E-02  0.6987E-02  0.4424E-01  0.4424E-01
    -16.921  0.6789E-02  0.6789E-02  0.4508E-01  0.4508E-01
    -16.796  0.7388E-02  0.7388E-02  0.4601E-01  0.4601E-01
    -16.671  0.7650E-02  0.7650E-02  0.4696E-01  0.4696E-01
    -16.546  0.4097E-02  0.4097E-02  0.4747E-01  0.4747E-01
    -16.422  0.1605E-01  0.1605E-01  0.4947E-01  0.4947E-01
    -16.297  0.1047E-01  0.1047E-01  0.5078E-01  0.5078E-01
    -16.172  0.2632E-02  0.2632E-02  0.5111E-01  0.5111E-01
    -16.047  0.2758E-02  0.2758E-02  0.5145E-01  0.5145E-01
    -15.922  0.2256E-02  0.2256E-02  0.5174E-01  0.5174E-01
    -15.798  0.3807E-02  0.3807E-02  0.5221E-01  0.5221E-01
    -15.673  0.2502E-02  0.2502E-02  0.5252E-01  0.5252E-01
    -15.548  0.5781E-02  0.5781E-02  0.5324E-01  0.5324E-01
    -15.423  0.6781E-02  0.6781E-02  0.5409E-01  0.5409E-01
    -15.299  0.7449E-02  0.7449E-02  0.5502E-01  0.5502E-01
    -15.174  0.9387E-02  0.9387E-02  0.5619E-01  0.5619E-01
    -15.049  0.8804E-02  0.8804E-02  0.5729E-01  0.5729E-01
    -14.924  0.1237E-01  0.1237E-01  0.5883E-01  0.5883E-01
    -14.799  0.3779E-02  0.3779E-02  0.5930E-01  0.5930E-01
    -14.675  0.1072E-01  0.1072E-01  0.6064E-01  0.6064E-01
    -14.550  0.8208E-02  0.8208E-02  0.6167E-01  0.6167E-01
    -14.425  0.1206E-01  0.1206E-01  0.6317E-01  0.6317E-01
    -14.300  0.1560E-01  0.1560E-01  0.6512E-01  0.6512E-01
    -14.176  0.4775E-02  0.4775E-02  0.6571E-01  0.6571E-01
    -14.051  0.4498E-02  0.4498E-02  0.6628E-01  0.6628E-01
    -13.926  0.4422E-02  0.4422E-02  0.6683E-01  0.6683E-01
    -13.801  0.6082E-02  0.6082E-02  0.6759E-01  0.6759E-01
    -13.676  0.1178E-01  0.1178E-01  0.6906E-01  0.6906E-01
    -13.552  0.9904E-02  0.9904E-02  0.7029E-01  0.7029E-01
    -13.427  0.9905E-02  0.9905E-02  0.7153E-01  0.7153E-01
    -13.302  0.5264E-02  0.5264E-02  0.7218E-01  0.7218E-01
    -13.177  0.3212E-02  0.3212E-02  0.7259E-01  0.7259E-01
    -13.052  0.6283E-02  0.6283E-02  0.7337E-01  0.7337E-01
    -12.928  0.6941E-02  0.6941E-02  0.7424E-01  0.7424E-01
    -12.803  0.8868E-02  0.8868E-02  0.7534E-01  0.7534E-01
    -12.678  0.2082E-01  0.2082E-01  0.7794E-01  0.7794E-01
    -12.553  0.6551E-02  0.6551E-02  0.7876E-01  0.7876E-01
    -12.429  0.1035E-01  0.1035E-01  0.8005E-01  0.8005E-01
    -12.304  0.1413E-01  0.1413E-01  0.8181E-01  0.8181E-01
    -12.179  0.5004E-02  0.5004E-02  0.8244E-01  0.8244E-01
    -12.054  0.7557E-02  0.7557E-02  0.8338E-01  0.8338E-01
    -11.929  0.1289E-01  0.1289E-01  0.8499E-01  0.8499E-01
    -11.805  0.1430E-01  0.1430E-01  0.8677E-01  0.8677E-01
    -11.680  0.9525E-02  0.9525E-02  0.8796E-01  0.8796E-01
    -11.555  0.1452E-01  0.1452E-01  0.8977E-01  0.8977E-01
    -11.430  0.7294E-02  0.7294E-02  0.9068E-01  0.9068E-01
    -11.306  0.1188E-01  0.1188E-01  0.9217E-01  0.9217E-01
    -11.181  0.1482E-01  0.1482E-01  0.9402E-01  0.9402E-01
    -11.056  0.9827E-02  0.9827E-02  0.9524E-01  0.9524E-01
    -10.931  0.1334E-01  0.1334E-01  0.9691E-01  0.9691E-01
    -10.806  0.9732E-02  0.9732E-02  0.9812E-01  0.9812E-01
    -10.682  0.1174E-01  0.1174E-01  0.9959E-01  0.9959E-01
    -10.557  0.1137E-01  0.1137E-01  0.1010E+00  0.1010E+00
    -10.432  0.1144E-01  0.1144E-01  0.1024E+00  0.1024E+00
    -10.307  0.1672E-01  0.1672E-01  0.1045E+00  0.1045E+00
    -10.182  0.1806E-01  0.1806E-01  0.1068E+00  0.1068E+00
    -10.058  0.2291E-01  0.2291E-01  0.1096E+00  0.1096E+00
     -9.933  0.2046E-01  0.2046E-01  0.1122E+00  0.1122E+00
     -9.808  0.2220E-01  0.2220E-01  0.1150E+00  0.1150E+00
     -9.683  0.1590E-01  0.1590E-01  0.1169E+00  0.1169E+00
     -9.559  0.2449E-01  0.2449E-01  0.1200E+00  0.1200E+00
     -9.434  0.2221E-01  0.2221E-01  0.1228E+00  0.1228E+00
     -9.309  0.2297E-01  0.2297E-01  0.1256E+00  0.1256E+00
     -9.184  0.2653E-01  0.2653E-01  0.1289E+00  0.1289E+00
     -9.059  0.1681E-01  0.1681E-01  0.1310E+00  0.1310E+00
     -8.935  0.1872E-01  0.1872E-01  0.1334E+00  0.1334E+00
     -8.810  0.2863E-01  0.2863E-01  0.1369E+00  0.1369E+00
     -8.685  0.2387E-01  0.2387E-01  0.1399E+00  0.1399E+00
     -8.560  0.1865E-01  0.1865E-01  0.1423E+00  0.1423E+00
     -8.435  0.1674E-01  0.1674E-01  0.1443E+00  0.1443E+00
     -8.311  0.1319E-01  0.1319E-01  0.1460E+00  0.1460E+00
     -8.186  0.1616E-01  0.1616E-01  0.1480E+00  0.1480E+00
     -8.061  0.2170E-01  0.2170E-01  0.1507E+00  0.1507E+00
     -7.936  0.2435E-01  0.2435E-01  0.1538E+00  0.1538E+00
     -7.812  0.1726E-01  0.1726E-01  0.1559E+00  0.1559E+00
     -7.687  0.1566E-01  0.1566E-01  0.1579E+00  0.1579E+00
     -7.562  0.1246E-01  0.1246E-01  0.1594E+00  0.1594E+00
     -7.437  0.1625E-01  0.1625E-01  0.1614E+00  0.1614E+00
     -7.312  0.1747E-01  0.1747E-01  0.1636E+00  0.1636E+00
     -7.188  0.2258E-01  0.2258E-01  0.1664E+00  0.1664E+00
     -7.063  0.1288E-01  0.1288E-01  0.1680E+00  0.1680E+00
     -6.938  0.2153E-01  0.2153E-01  0.1707E+00  0.1707E+00
     -6.813  0.1930E-01  0.1930E-01  0.1731E+00  0.1731E+00
     -6.689  0.1042E-01  0.1042E-01  0.1744E+00  0.1744E+00
     -6.564  0.1275E-01  0.1275E-01  0.1760E+00  0.1760E+00
     -6.439  0.1500E-01  0.1500E-01  0.1779E+00  0.1779E+00
     -6.314  0.1169E-01  0.1169E-01  0.1794E+00  0.1794E+00
     -6.189  0.1427E-01  0.1427E-01  0.1811E+00  0.1811E+00
     -6.065  0.2756E-01  0.2756E-01  0.1846E+00  0.1846E+00
     -5.940  0.9269E-02  0.9269E-02  0.1857E+00  0.1857E+00
     -5.815  0.8171E-02  0.8171E-02  0.1868E+00  0.1868E+00
     -5.690  0.1270E-01  0.1270E-01  0.1883E+00  0.1883E+00
     -5.565  0.8807E-02  0.8807E-02  0.1894E+00  0.1894E+00
     -5.441  0.6978E-02  0.6978E-02  0.1903E+00  0.1903E+00
     -5.316  0.6184E-02  0.6184E-02  0.1911E+00  0.1911E+00
     -5.191  0.4741E-02  0.4741E-02  0.1917E+00  0.1917E+00
     -5.066  0.1288E-01  0.1288E-01  0.1933E+00  0.1933E+00
     -4.942  0.1530E-01  0.1530E-01  0.1952E+00  0.1952E+00
     -4.817  0.1796E-01  0.1796E-01  0.1974E+00  0.1974E+00
     -4.692  0.6486E-02  0.6486E-02  0.1982E+00  0.1982E+00
     -4.567  0.2916E-02  0.2916E-02  0.1986E+00  0.1986E+00
     -4.442  0.9764E-02  0.9764E-02  0.1998E+00  0.1998E+00
     -4.318  0.1144E-01  0.1144E-01  0.2013E+00  0.2013E+00
     -4.193  0.1009E-01  0.1009E-01  0.2025E+00  0.2025E+00
     -4.068  0.5565E-02  0.5565E-02  0.2032E+00  0.2032E+00
     -3.943  0.7044E-02  0.7044E-02  0.2041E+00  0.2041E+00
     -3.818  0.3470E-02  0.3470E-02  0.2045E+00  0.2045E+00
     -3.694  0.6881E-02  0.6881E-02  0.2054E+00  0.2054E+00
     -3.569  0.4861E-02  0.4861E-02  0.2060E+00  0.2060E+00
     -3.444  0.1129E-03  0.1129E-03  0.2060E+00  0.2060E+00
     -3.319  0.2502E-03  0.2502E-03  0.2060E+00  0.2060E+00
     -3.195  0.5697E-02  0.5697E-02  0.2067E+00  0.2067E+00
     -3.070  0.3576E-02  0.3576E-02  0.2072E+00  0.2072E+00
     -2.945  0.2444E-02  0.2444E-02  0.2075E+00  0.2075E+00
     -2.820  0.5372E-04  0.5372E-04  0.2075E+00  0.2075E+00
     -2.695  0.2871E-04  0.2871E-04  0.2075E+00  0.2075E+00
     -2.571  0.3417E-02  0.3417E-02  0.2079E+00  0.2079E+00
     -2.446  0.5608E-03  0.5608E-03  0.2080E+00  0.2080E+00
     -2.321  0.6153E-07  0.6153E-07  0.2080E+00  0.2080E+00
     -2.196  0.9967E-03  0.9967E-03  0.2081E+00  0.2081E+00
     -2.072  0.3001E-02  0.3001E-02  0.2085E+00  0.2085E+00
     -1.947  0.4312E-04  0.4312E-04  0.2085E+00  0.2085E+00
     -1.822  0.1811E-02  0.1811E-02  0.2087E+00  0.2087E+00
     -1.697  0.1988E-02  0.1988E-02  0.2090E+00  0.2090E+00
     -1.572  0.5736E-02  0.5736E-02  0.2097E+00  0.2097E+00
     -1.448  0.2101E-02  0.2101E-02  0.2100E+00  0.2100E+00
     -1.323  0.3703E-03  0.3703E-03  0.2100E+00  0.2100E+00
     -1.198  0.3392E-02  0.3392E-02  0.2104E+00  0.2104E+00
     -1.073  0.3957E-02  0.3957E-02  0.2109E+00  0.2109E+00
     -0.948  0.1420E-01  0.1420E-01  0.2127E+00  0.2127E+00
     -0.824  0.1590E-01  0.1590E-01  0.2147E+00  0.2147E+00
     -0.699  0.2204E-02  0.2204E-02  0.2150E+00  0.2150E+00
     -0.574  0.1100E-01  0.1100E-01  0.2163E+00  0.2163E+00
     -0.449  0.1191E-01  0.1191E-01  0.2178E+00  0.2178E+00
     -0.325  0.5027E-02  0.5027E-02  0.2184E+00  0.2184E+00
     -0.200  0.4623E-02  0.4623E-02  0.2190E+00  0.2190E+00
     -0.075  0.6053E-02  0.6053E-02  0.2198E+00  0.2198E+00
      0.050  0.9790E-02  0.9790E-02  0.2210E+00  0.2210E+00
      0.175  0.1660E-01  0.1660E-01  0.2231E+00  0.2231E+00
      0.299  0.7482E-02  0.7482E-02  0.2240E+00  0.2240E+00
      0.424  0.3821E-02  0.3821E-02  0.2245E+00  0.2245E+00
      0.549  0.4067E-02  0.4067E-02  0.2250E+00  0.2250E+00
      0.674  0.6375E-02  0.6375E-02  0.2258E+00  0.2258E+00
      0.798  0.6237E-02  0.6237E-02  0.2266E+00  0.2266E+00
      0.923  0.6439E-02  0.6439E-02  0.2274E+00  0.2274E+00
      1.048  0.7934E-02  0.7934E-02  0.2283E+00  0.2283E+00
      1.173  0.1066E-01  0.1066E-01  0.2297E+00  0.2297E+00
      1.298  0.6668E-02  0.6668E-02  0.2305E+00  0.2305E+00
      1.422  0.1633E-01  0.1633E-01  0.2325E+00  0.2325E+00
      1.547  0.1879E-01  0.1879E-01  0.2349E+00  0.2349E+00
      1.672  0.1268E-01  0.1268E-01  0.2365E+00  0.2365E+00
      1.797  0.5759E-02  0.5759E-02  0.2372E+00  0.2372E+00
      1.922  0.1099E-01  0.1099E-01  0.2386E+00  0.2386E+00
      2.046  0.1978E-01  0.1978E-01  0.2410E+00  0.2410E+00
      2.171  0.2100E-01  0.2100E-01  0.2437E+00  0.2437E+00
      2.296  0.8065E-02  0.8065E-02  0.2447E+00  0.2447E+00
      2.421  0.2175E-01  0.2175E-01  0.2474E+00  0.2474E+00
      2.545  0.2487E-01  0.2487E-01  0.2505E+00  0.2505E+00
      2.670  0.9220E-02  0.9220E-02  0.2516E+00  0.2516E+00
      2.795  0.1657E-01  0.1657E-01  0.2537E+00  0.2537E+00
      2.920  0.2890E-01  0.2890E-01  0.2573E+00  0.2573E+00
      3.045  0.4358E-01  0.4358E-01  0.2627E+00  0.2627E+00
      3.169  0.2260E-01  0.2260E-01  0.2656E+00  0.2656E+00
      3.294  0.1486E-01  0.1486E-01  0.2674E+00  0.2674E+00
      3.419  0.1537E-01  0.1537E-01  0.2693E+00  0.2693E+00
      3.544  0.2344E-01  0.2344E-01  0.2723E+00  0.2723E+00
      3.669  0.1989E-01  0.1989E-01  0.2747E+00  0.2747E+00
      3.793  0.1960E-01  0.1960E-01  0.2772E+00  0.2772E+00
      3.918  0.3069E-01  0.3069E-01  0.2810E+00  0.2810E+00
      4.043  0.2619E-01  0.2619E-01  0.2843E+00  0.2843E+00
      4.168  0.2133E-01  0.2133E-01  0.2869E+00  0.2869E+00
      4.292  0.1552E-01  0.1552E-01  0.2889E+00  0.2889E+00
      4.417  0.8914E-02  0.8914E-02  0.2900E+00  0.2900E+00
      4.542  0.6860E-04  0.6860E-04  0.2900E+00  0.2900E+00
      4.667  0.1757E-10  0.1757E-10  0.2900E+00  0.2900E+00
      4.792  0.0000E+00  0.0000E+00  0.2900E+00  0.2900E+00
      4.916  0.0000E+00  0.0000E+00  0.2900E+00  0.2900E+00
      5.041  0.0000E+00  0.0000E+00  0.2900E+00  0.2900E+00
      5.166  0.0000E+00  0.0000E+00  0.2900E+00  0.2900E+00
      5.291  0.0000E+00  0.0000E+00  0.2900E+00  0.2900E+00
      5.415  0.0000E+00  0.0000E+00  0.2900E+00  0.2900E+00
      5.540  0.0000E+00  0.0000E+00  0.2900E+00  0.2900E+00
      5.665  0.0000E+00  0.0000E+00  0.2900E+00  0.2900E+00
      5.790  0.0000E+00  0.0000E+00  0.2900E+00  0.2900E+00
      5.915  0.0000E+00  0.0000E+00  0.2900E+00  0.2900E+00
      6.039  0.0000E+00  0.0000E+00  0.2900E+00  0.2900E+00
