       N       E                     dE             d eps       ncg     rms          rms(c)
DAV:   1     0.385947969639E+04    0.38595E+04   -0.16167E+05  5050   0.110E+03
DAV:   2    -0.181975726585E+03   -0.40415E+04   -0.38235E+04  6920   0.275E+02
DAV:   3    -0.871572315057E+03   -0.68960E+03   -0.68629E+03  5700   0.119E+02
DAV:   4    -0.893395622649E+03   -0.21823E+02   -0.21716E+02  5790   0.261E+01
DAV:   5    -0.894042803379E+03   -0.64718E+00   -0.64615E+00  6670   0.379E+00    0.528E+01
DAV:   6    -0.875934041881E+03    0.18109E+02   -0.21177E+01  5700   0.108E+01    0.341E+01
DAV:   7    -0.855340673577E+03    0.20593E+02   -0.38009E+01  5510   0.102E+01    0.207E+01
DAV:   8    -0.850493171568E+03    0.48475E+01   -0.19363E+01  5630   0.678E+00    0.913E+00
DAV:   9    -0.850710324999E+03   -0.21715E+00   -0.12421E+00  5620   0.212E+00    0.425E+00
DAV:  10    -0.850502210707E+03    0.20811E+00   -0.68577E-01  5340   0.143E+00    0.123E+00
DAV:  11    -0.850487178462E+03    0.15032E-01   -0.11101E-01  5380   0.640E-01    0.306E-01
DAV:  12    -0.850486875680E+03    0.30278E-03   -0.13933E-02  5600   0.250E-01    0.133E-01
DAV:  13    -0.850487078292E+03   -0.20261E-03   -0.18474E-03  5590   0.884E-02    0.101E-01
DAV:  14    -0.850487110090E+03   -0.31799E-04   -0.36138E-04  5410   0.383E-02    0.629E-02
DAV:  15    -0.850487171708E+03   -0.61618E-04   -0.24022E-04  5230   0.327E-02    0.259E-02
DAV:  16    -0.850487166936E+03    0.47721E-05   -0.58565E-05  5480   0.202E-02    0.122E-02
DAV:  17    -0.850487167808E+03   -0.87124E-06   -0.12621E-05  5460   0.736E-03    0.806E-03
DAV:  18    -0.850487166810E+03    0.99791E-06   -0.52507E-06  5110   0.800E-03
   1 F= -.85846371E+03 E0= -.85846371E+03  d E =-.858464E+03  mag=     0.0000
       N       E                     dE             d eps       ncg     rms          rms(c)
DAV:   1    -0.850488717931E+03   -0.15501E-02   -0.99452E-02  4880   0.417E-01    0.553E-02
DAV:   2    -0.850488852463E+03   -0.13453E-03   -0.19083E-03  5230   0.555E-02    0.415E-02
DAV:   3    -0.850488841566E+03    0.10897E-04   -0.32304E-05  5820   0.101E-02    0.331E-02
DAV:   4    -0.850488848232E+03   -0.66651E-05   -0.53442E-05  4760   0.126E-02    0.108E-02
DAV:   5    -0.850488853370E+03   -0.51386E-05   -0.17234E-05  5100   0.562E-03    0.614E-03
DAV:   6    -0.850488853699E+03   -0.32854E-06   -0.17846E-06  3710   0.241E-03
   2 F= -.85846533E+03 E0= -.85846533E+03  d E =-.162894E-02  mag=    -0.0000
       N       E                     dE             d eps       ncg     rms          rms(c)
DAV:   1    -0.850490985932E+03   -0.21326E-02   -0.32562E-01  4880   0.659E-01    0.948E-02
DAV:   2    -0.850491377826E+03   -0.39189E-03   -0.56398E-03  5020   0.795E-02    0.635E-02
DAV:   3    -0.850491360224E+03    0.17602E-04   -0.67633E-05  5720   0.127E-02    0.502E-02
DAV:   4    -0.850491432062E+03   -0.71839E-04   -0.15070E-04  4820   0.184E-02    0.117E-02
DAV:   5    -0.850491442627E+03   -0.10565E-04   -0.36786E-05  5280   0.689E-03    0.926E-03
DAV:   6    -0.850491442928E+03   -0.30062E-06   -0.30818E-06  3700   0.322E-03
   3 F= -.85846781E+03 E0= -.85846781E+03  d E =-.247205E-02  mag=     0.0000
       N       E                     dE             d eps       ncg     rms          rms(c)
DAV:   1    -0.850494783846E+03   -0.33412E-02   -0.65304E-01  4860   0.877E-01    0.133E-01
DAV:   2    -0.850495584012E+03   -0.80017E-03   -0.10891E-02  4900   0.983E-02    0.839E-02
DAV:   3    -0.850495553311E+03    0.30701E-04   -0.11030E-04  5480   0.132E-02    0.661E-02
DAV:   4    -0.850495693419E+03   -0.14011E-03   -0.29760E-04  4880   0.235E-02    0.115E-02
DAV:   5    -0.850495703174E+03   -0.97545E-05   -0.61321E-05  5390   0.755E-03    0.121E-02
DAV:   6    -0.850495702587E+03    0.58686E-06   -0.32296E-06  3800   0.426E-03
   4 F= -.85847190E+03 E0= -.85847190E+03  d E =-.408984E-02  mag=    -0.0000
       N       E                     dE             d eps       ncg     rms          rms(c)
DAV:   1    -0.850499288682E+03   -0.35855E-02   -0.11304E+00  4740   0.116E+00    0.176E-01
DAV:   2    -0.850500784343E+03   -0.14957E-02   -0.19392E-02  4970   0.132E-01    0.112E-01
DAV:   3    -0.850500717105E+03    0.67238E-04   -0.20314E-04  5710   0.186E-02    0.883E-02
DAV:   4    -0.850500891405E+03   -0.17430E-03   -0.50313E-04  4920   0.329E-02    0.167E-02
DAV:   5    -0.850500913849E+03   -0.22444E-04   -0.11223E-04  5340   0.109E-02    0.162E-02
DAV:   6    -0.850500913311E+03    0.53809E-06   -0.81367E-06  4360   0.683E-03
   5 F= -.85847688E+03 E0= -.85847688E+03  d E =-.498214E-02  mag=     0.0000
       N       E                     dE             d eps       ncg     rms          rms(c)
DAV:   1    -0.850504494692E+03   -0.35808E-02   -0.17076E+00  4760   0.138E+00    0.215E-01
DAV:   2    -0.850506771615E+03   -0.22769E-02   -0.28739E-02  4900   0.153E-01    0.136E-01
DAV:   3    -0.850506668655E+03    0.10296E-03   -0.28981E-04  5580   0.209E-02    0.107E-01
DAV:   4    -0.850506893075E+03   -0.22442E-03   -0.80229E-04  4880   0.372E-02    0.193E-02
DAV:   5    -0.850506921403E+03   -0.28329E-04   -0.15816E-04  5400   0.119E-02    0.201E-02
DAV:   6    -0.850506919479E+03    0.19241E-05   -0.11931E-05  4360   0.753E-03    0.106E-02
DAV:   7    -0.850506919240E+03    0.23974E-06   -0.10681E-05  4340   0.558E-03    0.461E-03
DAV:   8    -0.850506918965E+03    0.27481E-06   -0.38344E-06  4160   0.466E-03
   6 F= -.85848259E+03 E0= -.85848259E+03  d E =-.571413E-02  mag=     0.0000
       N       E                     dE             d eps       ncg     rms          rms(c)
DAV:   1    -0.850510234754E+03   -0.33155E-02   -0.23418E+00  4740   0.164E+00    0.250E-01
DAV:   2    -0.850513453529E+03   -0.32188E-02   -0.39780E-02  4910   0.186E-01    0.162E-01
DAV:   3    -0.850513284548E+03    0.16898E-03   -0.41300E-04  5620   0.264E-02    0.129E-01
DAV:   4    -0.850513480529E+03   -0.19598E-03   -0.11801E-03  4980   0.454E-02    0.250E-02
DAV:   5    -0.850513536073E+03   -0.55545E-04   -0.23924E-04  5420   0.153E-02    0.249E-02
DAV:   6    -0.850513536627E+03   -0.55306E-06   -0.24535E-05  4400   0.915E-03    0.124E-02
DAV:   7    -0.850513537072E+03   -0.44519E-06   -0.12355E-05  4600   0.548E-03    0.653E-03
DAV:   8    -0.850513536524E+03    0.54772E-06   -0.64807E-06  4320   0.480E-03
   7 F= -.85848886E+03 E0= -.85848886E+03  d E =-.627006E-02  mag=    -0.0000
       N       E                     dE             d eps       ncg     rms          rms(c)
DAV:   1    -0.850515863899E+03   -0.23268E-02   -0.36450E+00  4760   0.207E+00    0.315E-01
DAV:   2    -0.850521088316E+03   -0.52244E-02   -0.62668E-02  4900   0.233E-01    0.199E-01
DAV:   3    -0.850520840899E+03    0.24742E-03   -0.63184E-04  5640   0.321E-02    0.158E-01
DAV:   4    -0.850521072223E+03   -0.23132E-03   -0.17906E-03  4970   0.558E-02    0.311E-02
DAV:   5    -0.850521134852E+03   -0.62629E-04   -0.35877E-04  5420   0.181E-02    0.325E-02
DAV:   6    -0.850521135441E+03   -0.58970E-06   -0.49007E-05  4470   0.120E-02    0.160E-02
DAV:   7    -0.850521139051E+03   -0.36100E-05   -0.22474E-05  4620   0.743E-03    0.990E-03
DAV:   8    -0.850521137445E+03    0.16063E-05   -0.12892E-05  4650   0.609E-03    0.214E-03
DAV:   9    -0.850521137577E+03   -0.13172E-06   -0.14735E-06  3640   0.190E-03
   8 F= -.85849602E+03 E0= -.85849602E+03  d E =-.716256E-02  mag=    -0.0000
       N       E                     dE             d eps       ncg     rms          rms(c)
DAV:   1    -0.850521520806E+03   -0.38336E-03   -0.54855E+00  4760   0.261E+00    0.393E-01
DAV:   2    -0.850529832468E+03   -0.83117E-02   -0.97664E-02  4880   0.299E-01    0.245E-01
DAV:   3    -0.850529466911E+03    0.36556E-03   -0.96685E-04  5640   0.394E-02    0.194E-01
DAV:   4    -0.850529731712E+03   -0.26480E-03   -0.26710E-03  5110   0.705E-02    0.392E-02
DAV:   5    -0.850529821444E+03   -0.89732E-04   -0.54456E-04  5360   0.225E-02    0.417E-02
DAV:   6    -0.850529813045E+03    0.83995E-05   -0.84171E-05  4710   0.154E-02    0.207E-02
DAV:   7    -0.850529818431E+03   -0.53864E-05   -0.45396E-05  4980   0.109E-02    0.139E-02
DAV:   8    -0.850529815280E+03    0.31512E-05   -0.25008E-05  5020   0.833E-03    0.313E-03
DAV:   9    -0.850529815666E+03   -0.38664E-06   -0.27258E-06  3690   0.260E-03
   9 F= -.85850416E+03 E0= -.85850416E+03  d E =-.813679E-02  mag=     0.0000
       N       E                     dE             d eps       ncg     rms          rms(c)
DAV:   1    -0.850526385365E+03    0.34299E-02   -0.81439E+00  4760   0.326E+00    0.484E-01
DAV:   2    -0.850539242455E+03   -0.12857E-01   -0.14970E-01  4920   0.383E-01    0.303E-01
DAV:   3    -0.850538677307E+03    0.56515E-03   -0.14941E-03  5640   0.504E-02    0.241E-01
DAV:   4    -0.850538917388E+03   -0.24008E-03   -0.42542E-03  5260   0.868E-02    0.525E-02
DAV:   5    -0.850539078019E+03   -0.16063E-03   -0.84197E-04  5320   0.289E-02    0.542E-02
DAV:   6    -0.850539056198E+03    0.21821E-04   -0.17655E-04  4940   0.203E-02    0.252E-02
DAV:   7    -0.850539058402E+03   -0.22040E-05   -0.64565E-05  5050   0.121E-02    0.183E-02
DAV:   8    -0.850539053253E+03    0.51496E-05   -0.35726E-05  4920   0.935E-03    0.310E-03
DAV:   9    -0.850539053920E+03   -0.66688E-06   -0.44919E-06  3960   0.303E-03
  10 F= -.85851271E+03 E0= -.85851271E+03  d E =-.855166E-02  mag=    -0.0000
       N       E                     dE             d eps       ncg     rms          rms(c)
DAV:   1    -0.850529818350E+03    0.92349E-02   -0.10893E+01  4760   0.397E+00    0.567E-01
DAV:   2    -0.850547782480E+03   -0.17964E-01   -0.20698E-01  4940   0.472E-01    0.349E-01
DAV:   3    -0.850547069945E+03    0.71253E-03   -0.20432E-03  5600   0.631E-02    0.278E-01
DAV:   4    -0.850547388496E+03   -0.31855E-03   -0.55772E-03  5120   0.104E-01    0.646E-02
DAV:   5    -0.850547592544E+03   -0.20405E-03   -0.11189E-03  5320   0.346E-02    0.672E-02
DAV:   6    -0.850547553392E+03    0.39152E-04   -0.30906E-04  5090   0.262E-02    0.288E-02
DAV:   7    -0.850547557420E+03   -0.40274E-05   -0.90472E-05  5150   0.142E-02    0.225E-02
DAV:   8    -0.850547547675E+03    0.97450E-05   -0.41396E-05  4960   0.103E-02    0.501E-03
DAV:   9    -0.850547548649E+03   -0.97389E-06   -0.10503E-05  4260   0.431E-03    0.326E-03
DAV:  10    -0.850547548453E+03    0.19547E-06   -0.72312E-07  3490   0.168E-03
  11 F= -.85852040E+03 E0= -.85852040E+03  d E =-.768966E-02  mag=    -0.0000
       N       E                     dE             d eps       ncg     rms          rms(c)
DAV:   1    -0.850529734027E+03    0.17815E-01   -0.14161E+01  4760   0.487E+00    0.656E-01
DAV:   2    -0.850554608099E+03   -0.24874E-01   -0.28285E-01  4940   0.601E-01    0.408E-01
DAV:   3    -0.850553638744E+03    0.96936E-03   -0.27292E-03  5700   0.752E-02    0.325E-01
DAV:   4    -0.850553904687E+03   -0.26594E-03   -0.79137E-03  5120   0.131E-01    0.774E-02
DAV:   5    -0.850554131339E+03   -0.22665E-03   -0.15755E-03  5320   0.450E-02    0.809E-02
DAV:   6    -0.850554072593E+03    0.58746E-04   -0.39720E-04  5280   0.315E-02    0.364E-02
DAV:   7    -0.850554081830E+03   -0.92371E-05   -0.16079E-04  5200   0.205E-02    0.268E-02
DAV:   8    -0.850554070785E+03    0.11045E-04   -0.62279E-05  5740   0.132E-02    0.637E-03
DAV:   9    -0.850554071451E+03   -0.66546E-06   -0.11663E-05  4800   0.516E-03    0.408E-03
DAV:  10    -0.850554071252E+03    0.19939E-06   -0.77479E-07  3440   0.192E-03
  12 F= -.85852592E+03 E0= -.85852592E+03  d E =-.551542E-02  mag=    -0.0000
       N       E                     dE             d eps       ncg     rms          rms(c)
DAV:   1    -0.850527692495E+03    0.26379E-01   -0.16101E+01  4740   0.570E+00    0.715E-01
DAV:   2    -0.850557151951E+03   -0.29459E-01   -0.33392E-01  5000   0.729E-01    0.440E-01
DAV:   3    -0.850556135188E+03    0.10168E-02   -0.35954E-03  5800   0.994E-02    0.349E-01
DAV:   4    -0.850556305360E+03   -0.17017E-03   -0.70306E-03  5080   0.138E-01    0.895E-02
DAV:   5    -0.850556633690E+03   -0.32833E-03   -0.16360E-03  5260   0.502E-02    0.807E-02
DAV:   6    -0.850556570094E+03    0.63596E-04   -0.59845E-04  5140   0.397E-02    0.320E-02
DAV:   7    -0.850556583267E+03   -0.13173E-04   -0.74452E-05  5230   0.138E-02    0.241E-02
DAV:   8    -0.850556578318E+03    0.49493E-05   -0.33010E-05  4610   0.108E-02    0.946E-03
DAV:   9    -0.850556581972E+03   -0.36542E-05   -0.23316E-05  4990   0.656E-03    0.635E-03
DAV:  10    -0.850556581289E+03    0.68321E-06   -0.45331E-06  4460   0.419E-03
  13 F= -.85852742E+03 E0= -.85852742E+03  d E =-.149958E-02  mag=    -0.0000
       N       E                     dE             d eps       ncg     rms          rms(c)
DAV:   1    -0.850559402640E+03   -0.28207E-02   -0.13455E-01  4870   0.705E-01    0.815E-02
DAV:   2    -0.850559652303E+03   -0.24966E-03   -0.35659E-03  5560   0.107E-01    0.733E-02
DAV:   3    -0.850559601222E+03    0.51082E-04   -0.13138E-04  5840   0.228E-02    0.584E-02
DAV:   4    -0.850559548226E+03    0.52996E-04   -0.10364E-04  5080   0.213E-02    0.266E-02
DAV:   5    -0.850559546864E+03    0.13620E-05   -0.51069E-05  5260   0.128E-02    0.105E-02
DAV:   6    -0.850559547086E+03   -0.22176E-06   -0.76282E-06  5040   0.591E-03
  14 F= -.85853035E+03 E0= -.85853035E+03  d E =-.292918E-02  mag=    -0.0000
       N       E                     dE             d eps       ncg     rms          rms(c)
DAV:   1    -0.850557360060E+03    0.21868E-02   -0.21761E-01  4720   0.919E-01    0.996E-02
DAV:   2    -0.850557783518E+03   -0.42346E-03   -0.56786E-03  5600   0.138E-01    0.859E-02
DAV:   3    -0.850557718213E+03    0.65305E-04   -0.19108E-04  5830   0.277E-02    0.679E-02
DAV:   4    -0.850557658234E+03    0.59979E-04   -0.13601E-04  5080   0.248E-02    0.311E-02
DAV:   5    -0.850557659840E+03   -0.16057E-05   -0.66276E-05  5300   0.149E-02    0.126E-02
DAV:   6    -0.850557660226E+03   -0.38585E-06   -0.10706E-05  5060   0.681E-03    0.532E-03
DAV:   7    -0.850557660590E+03   -0.36389E-06   -0.79150E-07  3360   0.209E-03
  15 F= -.85852841E+03 E0= -.85852841E+03  d E =0.194162E-02  mag=    -0.0000
       N       E                     dE             d eps       ncg     rms          rms(c)
DAV:   1    -0.850558279563E+03   -0.61934E-03   -0.51381E-03  4800   0.142E-01    0.157E-02
DAV:   2    -0.850558289183E+03   -0.96204E-05   -0.13890E-04  5640   0.214E-02    0.142E-02
DAV:   3    -0.850558287314E+03    0.18694E-05   -0.44187E-06  5030   0.415E-03    0.115E-02
DAV:   4    -0.850558285161E+03    0.21526E-05   -0.47065E-06  4500   0.453E-03    0.507E-03
DAV:   5    -0.850558285113E+03    0.48152E-07   -0.18006E-06  3680   0.242E-03
  16 F= -.85852903E+03 E0= -.85852903E+03  d E =-.629326E-03  mag=    -0.0000
       N       E                     dE             d eps       ncg     rms          rms(c)
DAV:   1    -0.850558972083E+03   -0.68692E-03   -0.17080E-02  4800   0.260E-01    0.283E-02
DAV:   2    -0.850559006777E+03   -0.34694E-04   -0.46868E-04  5620   0.392E-02    0.252E-02
DAV:   3    -0.850559001427E+03    0.53500E-05   -0.14540E-05  5840   0.743E-03    0.204E-02
DAV:   4    -0.850558995550E+03    0.58766E-05   -0.12766E-05  4840   0.759E-03    0.903E-03
DAV:   5    -0.850558995612E+03   -0.62166E-07   -0.57864E-06  4600   0.434E-03
  17 F= -.85852975E+03 E0= -.85852975E+03  d E =-.718448E-03  mag=    -0.0000
       N       E                     dE             d eps       ncg     rms          rms(c)
DAV:   1    -0.850559121138E+03   -0.12559E-03   -0.28019E-02  4740   0.336E-01    0.355E-02
DAV:   2    -0.850559179204E+03   -0.58065E-04   -0.76386E-04  5580   0.507E-02    0.310E-02
DAV:   3    -0.850559171465E+03    0.77390E-05   -0.22532E-05  5860   0.921E-03    0.251E-02
DAV:   4    -0.850559163390E+03    0.80751E-05   -0.19532E-05  4810   0.950E-03    0.109E-02
DAV:   5    -0.850559163767E+03   -0.37723E-06   -0.85184E-06  5100   0.525E-03
  18 F= -.85852993E+03 E0= -.85852993E+03  d E =-.176164E-03  mag=     0.0000
       N       E                     dE             d eps       ncg     rms          rms(c)
DAV:   1    -0.850558604033E+03    0.55936E-03   -0.30900E-02  4730   0.358E-01    0.350E-02
DAV:   2    -0.850558669205E+03   -0.65171E-04   -0.81561E-04  5500   0.531E-02    0.288E-02
DAV:   3    -0.850558663109E+03    0.60959E-05   -0.19639E-05  5890   0.865E-03    0.231E-02
DAV:   4    -0.850558658619E+03    0.44898E-05   -0.17128E-05  4780   0.918E-03    0.948E-03
DAV:   5    -0.850558659465E+03   -0.84568E-06   -0.65411E-06  4850   0.466E-03
  19 F= -.85852943E+03 E0= -.85852943E+03  d E =0.500128E-03  mag=    -0.0000
       N       E                     dE             d eps       ncg     rms          rms(c)
DAV:   1    -0.850558685895E+03   -0.27276E-04   -0.10528E-04  4800   0.200E-02    0.298E-03
DAV:   2    -0.850558686046E+03   -0.15170E-06   -0.27152E-06  4020   0.308E-03
  20 F= -.85852946E+03 E0= -.85852946E+03  d E =-.256314E-04  mag=     0.0000
       N       E                     dE             d eps       ncg     rms          rms(c)
DAV:   1    -0.850558730352E+03   -0.44457E-04   -0.41160E-04  4780   0.396E-02    0.519E-03
DAV:   2    -0.850558730984E+03   -0.63165E-06   -0.10151E-05  5540   0.581E-03    0.451E-03
DAV:   3    -0.850558730811E+03    0.17326E-06   -0.26627E-07  2580   0.114E-03
  21 F= -.85852950E+03 E0= -.85852950E+03  d E =-.429049E-04  mag=    -0.0000
       N       E                     dE             d eps       ncg     rms          rms(c)
DAV:   1    -0.850558778691E+03   -0.47708E-04   -0.87087E-04  4720   0.577E-02    0.635E-03
DAV:   2    -0.850558780251E+03   -0.15593E-05   -0.20275E-05  5560   0.818E-03    0.536E-03
DAV:   3    -0.850558780077E+03    0.17359E-06   -0.38321E-07  2860   0.138E-03
  22 F= -.85852954E+03 E0= -.85852954E+03  d E =-.465318E-04  mag=     0.0000
       N       E                     dE             d eps       ncg     rms          rms(c)
DAV:   1    -0.850558814546E+03   -0.34296E-04   -0.14779E-03  4740   0.753E-02    0.812E-03
DAV:   2    -0.850558817247E+03   -0.27002E-05   -0.34393E-05  5520   0.107E-02    0.673E-03
DAV:   3    -0.850558816974E+03    0.27233E-06   -0.63309E-07  3120   0.177E-03
  23 F= -.85852958E+03 E0= -.85852958E+03  d E =-.333635E-04  mag=    -0.0000
       N       E                     dE             d eps       ncg     rms          rms(c)
DAV:   1    -0.850558820674E+03   -0.34271E-05   -0.21718E-03  4740   0.915E-02    0.966E-03
DAV:   2    -0.850558824641E+03   -0.39675E-05   -0.49986E-05  5460   0.129E-02    0.785E-03
DAV:   3    -0.850558824305E+03    0.33615E-06   -0.87812E-07  3480   0.206E-03
  24 F= -.85852958E+03 E0= -.85852958E+03  d E =-.307218E-05  mag=     0.0000
       N       E                     dE             d eps       ncg     rms          rms(c)
DAV:   1    -0.850558785835E+03    0.38807E-04   -0.29328E-03  4720   0.107E-01    0.110E-02
DAV:   2    -0.850558791210E+03   -0.53756E-05   -0.66870E-05  5400   0.149E-02    0.867E-03
DAV:   3    -0.850558790838E+03    0.37188E-06   -0.10843E-06  3740   0.228E-03
  25 F= -.85852954E+03 E0= -.85852954E+03  d E =0.384101E-04  mag=    -0.0000
       N       E                     dE             d eps       ncg     rms          rms(c)
DAV:   1    -0.850558694290E+03    0.96920E-04   -0.46332E-03  4720   0.134E-01    0.132E-02
DAV:   2    -0.850558702934E+03   -0.86435E-05   -0.10515E-04  5320   0.187E-02    0.100E-02
DAV:   3    -0.850558702512E+03    0.42145E-06   -0.15149E-06  4140   0.265E-03
  26 F= -.85852945E+03 E0= -.85852945E+03  d E =0.944340E-04  mag=     0.0000
       N       E                     dE             d eps       ncg     rms          rms(c)
DAV:   1    -0.850558537868E+03    0.16507E-03   -0.71484E-03  4740   0.166E-01    0.158E-02
DAV:   2    -0.850558551265E+03   -0.13397E-04   -0.16023E-04  5120   0.230E-02    0.114E-02
DAV:   3    -0.850558550892E+03    0.37337E-06   -0.19561E-06  4690   0.299E-03
  27 F= -.85852929E+03 E0= -.85852929E+03  d E =0.158870E-03  mag=     0.0000
       N       E                     dE             d eps       ncg     rms          rms(c)
DAV:   1    -0.850558321362E+03    0.22990E-03   -0.10975E-02  4740   0.205E-01    0.189E-02
DAV:   2    -0.850558342068E+03   -0.20706E-04   -0.24397E-04  4930   0.281E-02    0.129E-02
DAV:   3    -0.850558341868E+03    0.19971E-06   -0.24472E-06  4800   0.332E-03
  28 F= -.85852907E+03 E0= -.85852907E+03  d E =0.217411E-03  mag=    -0.0000
       N       E                     dE             d eps       ncg     rms          rms(c)
DAV:   1    -0.850558054018E+03    0.28805E-03   -0.17221E-02  4740   0.256E-01    0.230E-02
DAV:   2    -0.850558086932E+03   -0.32913E-04   -0.38204E-04  4720   0.349E-02    0.150E-02
DAV:   3    -0.850558086869E+03    0.62202E-07   -0.33798E-06  5230   0.381E-03
  29 F= -.85852881E+03 E0= -.85852881E+03  d E =0.264399E-03  mag=     0.0000
       N       E                     dE             d eps       ncg     rms          rms(c)
DAV:   1    -0.850557728947E+03    0.35798E-03   -0.27794E-02  4740   0.325E-01    0.289E-02
DAV:   2    -0.850557782684E+03   -0.53737E-04   -0.61911E-04  4700   0.442E-02    0.186E-02
DAV:   3    -0.850557782692E+03   -0.81563E-08   -0.52800E-06  5630   0.469E-03
  30 F= -.85852849E+03 E0= -.85852849E+03  d E =0.314735E-03  mag=    -0.0000
       N       E                     dE             d eps       ncg     rms          rms(c)
DAV:   1    -0.850557295163E+03    0.48752E-03   -0.46149E-02  4740   0.419E-01    0.372E-02
DAV:   2    -0.850557384908E+03   -0.89745E-04   -0.10341E-03  4730   0.571E-02    0.240E-02
DAV:   3    -0.850557384999E+03   -0.90724E-07   -0.89838E-06  5780   0.607E-03
  31 F= -.85852808E+03 E0= -.85852808E+03  d E =0.409922E-03  mag=     0.0000
       N       E                     dE             d eps       ncg     rms          rms(c)
DAV:   1    -0.850556649441E+03    0.73547E-03   -0.78107E-02  4740   0.544E-01    0.485E-02
DAV:   2    -0.850556801188E+03   -0.15175E-03   -0.17535E-03  4750   0.743E-02    0.315E-02
DAV:   3    -0.850556801689E+03   -0.50126E-06   -0.15393E-05  5820   0.793E-03    0.249E-02
DAV:   4    -0.850556814536E+03   -0.12847E-04   -0.13493E-05  4680   0.938E-03    0.553E-03
DAV:   5    -0.850556815811E+03   -0.12742E-05   -0.48166E-06  5300   0.392E-03    0.353E-03
DAV:   6    -0.850556815583E+03    0.22735E-06   -0.60773E-07  3200   0.196E-03
  32 F= -.85852750E+03 E0= -.85852750E+03  d E =0.584579E-03  mag=    -0.0000
       N       E                     dE             d eps       ncg     rms          rms(c)
DAV:   1    -0.850555675473E+03    0.11403E-02   -0.13477E-01  4740   0.714E-01    0.605E-02
DAV:   2    -0.850555955327E+03   -0.27985E-03   -0.31437E-03  4840   0.992E-02    0.377E-02
DAV:   3    -0.850555953545E+03    0.17829E-05   -0.26235E-05  5780   0.104E-02    0.300E-02
DAV:   4    -0.850555968365E+03   -0.14820E-04   -0.25983E-05  4740   0.127E-02    0.713E-03
DAV:   5    -0.850555970287E+03   -0.19226E-05   -0.84685E-06  5380   0.519E-03    0.464E-03
DAV:   6    -0.850555969955E+03    0.33230E-06   -0.13132E-06  3880   0.291E-03
  33 F= -.85852663E+03 E0= -.85852663E+03  d E =0.865734E-03  mag=     0.0000
       N       E                     dE             d eps       ncg     rms          rms(c)
DAV:   1    -0.850554284808E+03    0.16855E-02   -0.23056E-01  4740   0.931E-01    0.788E-02
DAV:   2    -0.850554763195E+03   -0.47839E-03   -0.53505E-03  4840   0.129E-01    0.487E-02
DAV:   3    -0.850554759965E+03    0.32291E-05   -0.42921E-05  5700   0.134E-02    0.387E-02
DAV:   4    -0.850554786310E+03   -0.26345E-04   -0.42308E-05  4760   0.162E-02    0.888E-03
DAV:   5    -0.850554789348E+03   -0.30383E-05   -0.13610E-05  5380   0.658E-03    0.581E-03
DAV:   6    -0.850554788780E+03    0.56795E-06   -0.22082E-06  4290   0.374E-03
  34 F= -.85852542E+03 E0= -.85852542E+03  d E =0.120911E-02  mag=     0.0000
       N       E                     dE             d eps       ncg     rms          rms(c)
DAV:   1    -0.850552351335E+03    0.24380E-02   -0.39765E-01  4740   0.122E+00    0.103E-01
DAV:   2    -0.850553177033E+03   -0.82570E-03   -0.92181E-03  4840   0.169E-01    0.639E-02
DAV:   3    -0.850553172140E+03    0.48932E-05   -0.73761E-05  5680   0.177E-02    0.508E-02
DAV:   4    -0.850553215409E+03   -0.43269E-04   -0.71244E-05  4980   0.209E-02    0.119E-02
DAV:   5    -0.850553221578E+03   -0.61694E-05   -0.23119E-05  5380   0.861E-03    0.755E-03
DAV:   6    -0.850553220597E+03    0.98083E-06   -0.38948E-06  4800   0.488E-03
  35 F= -.85852382E+03 E0= -.85852382E+03  d E =0.160700E-02  mag=    -0.0000
       N       E                     dE             d eps       ncg     rms          rms(c)
DAV:   1    -0.850549447038E+03    0.37745E-02   -0.69195E-01  4740   0.161E+00    0.137E-01
DAV:   2    -0.850550881604E+03   -0.14346E-02   -0.16064E-02  4840   0.222E-01    0.846E-02
DAV:   3    -0.850550874442E+03    0.71623E-05   -0.13069E-04  5660   0.236E-02    0.673E-02
DAV:   4    -0.850550949863E+03   -0.75422E-04   -0.12381E-04  5280   0.273E-02    0.163E-02
DAV:   5    -0.850550960782E+03   -0.10918E-04   -0.40375E-05  5380   0.113E-02    0.100E-02
DAV:   6    -0.850550958950E+03    0.18322E-05   -0.70098E-06  4960   0.638E-03    0.506E-03
DAV:   7    -0.850550959189E+03   -0.23988E-06   -0.18615E-06  3760   0.264E-03
  36 F= -.85852150E+03 E0= -.85852150E+03  d E =0.231482E-02  mag=    -0.0000
       N       E                     dE             d eps       ncg     rms          rms(c)
DAV:   1    -0.850545487193E+03    0.54718E-02   -0.11182E+00  4740   0.204E+00    0.173E-01
DAV:   2    -0.850547803429E+03   -0.23162E-02   -0.25929E-02  4860   0.282E-01    0.107E-01
DAV:   3    -0.850547786918E+03    0.16511E-04   -0.21240E-04  5680   0.301E-02    0.854E-02
DAV:   4    -0.850547907227E+03   -0.12031E-03   -0.20275E-04  5340   0.346E-02    0.210E-02
DAV:   5    -0.850547924925E+03   -0.17698E-04   -0.64800E-05  5340   0.144E-02    0.126E-02
DAV:   6    -0.850547922133E+03    0.27917E-05   -0.11671E-05  4980   0.793E-03    0.626E-03
DAV:   7    -0.850547922450E+03   -0.31651E-06   -0.27457E-06  4300   0.315E-03
  37 F= -.85851839E+03 E0= -.85851839E+03  d E =0.310937E-02  mag=    -0.0000
       N       E                     dE             d eps       ncg     rms          rms(c)
DAV:   1    -0.850540552422E+03    0.73697E-02   -0.16810E+00  4740   0.251E+00    0.211E-01
DAV:   2    -0.850544047127E+03   -0.34947E-02   -0.38979E-02  4900   0.346E-01    0.130E-01
DAV:   3    -0.850544024267E+03    0.22861E-04   -0.31092E-04  5640   0.363E-02    0.103E-01
DAV:   4    -0.850544202243E+03   -0.17798E-03   -0.31631E-04  5400   0.431E-02    0.241E-02
DAV:   5    -0.850544224822E+03   -0.22580E-04   -0.93098E-05  5340   0.174E-02    0.152E-02
DAV:   6    -0.850544221043E+03    0.37798E-05   -0.18173E-05  5100   0.987E-03    0.727E-03
DAV:   7    -0.850544221640E+03   -0.59734E-06   -0.37740E-06  4780   0.364E-03
  38 F= -.85851460E+03 E0= -.85851460E+03  d E =0.379504E-02  mag=    -0.0000
       N       E                     dE             d eps       ncg     rms          rms(c)
DAV:   1    -0.850535073553E+03    0.91475E-02   -0.23251E+00  4740   0.296E+00    0.247E-01
DAV:   2    -0.850539931149E+03   -0.48576E-02   -0.53933E-02  4920   0.408E-01    0.152E-01
DAV:   3    -0.850539895463E+03    0.35685E-04   -0.42864E-04  5660   0.424E-02    0.121E-01
DAV:   4    -0.850540125059E+03   -0.22960E-03   -0.46036E-04  5420   0.520E-02    0.271E-02
DAV:   5    -0.850540151648E+03   -0.26589E-04   -0.12790E-04  5340   0.205E-02    0.176E-02
DAV:   6    -0.850540147034E+03    0.46150E-05   -0.25473E-05  5100   0.119E-02    0.825E-03
DAV:   7    -0.850540147991E+03   -0.95760E-06   -0.49853E-06  4940   0.416E-03
  39 F= -.85851040E+03 E0= -.85851040E+03  d E =0.419350E-02  mag=     0.0000
       N       E                     dE             d eps       ncg     rms          rms(c)
DAV:   1    -0.850529841667E+03    0.10305E-01   -0.28694E+00  4740   0.330E+00    0.274E-01
DAV:   2    -0.850535848747E+03   -0.60071E-02   -0.66544E-02  4940   0.456E-01    0.169E-01
DAV:   3    -0.850535792954E+03    0.55793E-04   -0.53987E-04  5660   0.475E-02    0.134E-01
DAV:   4    -0.850536058040E+03   -0.26509E-03   -0.58223E-04  5440   0.588E-02    0.296E-02
DAV:   5    -0.850536093732E+03   -0.35692E-04   -0.15947E-04  5380   0.230E-02    0.190E-02
DAV:   6    -0.850536088927E+03    0.48047E-05   -0.28293E-05  5120   0.135E-02    0.911E-03
DAV:   7    -0.850536090199E+03   -0.12718E-05   -0.66472E-06  5090   0.485E-03    0.590E-03
DAV:   8    -0.850536089835E+03    0.36441E-06   -0.13420E-06  4010   0.423E-03
  40 F= -.85850619E+03 E0= -.85850619E+03  d E =0.421088E-02  mag=     0.0000
       N       E                     dE             d eps       ncg     rms          rms(c)
DAV:   1    -0.850526518131E+03    0.95721E-02   -0.29906E+00  4740   0.339E+00    0.281E-01
DAV:   2    -0.850532764093E+03   -0.62460E-02   -0.69408E-02  4880   0.473E-01    0.175E-01
DAV:   3    -0.850532684803E+03    0.79290E-04   -0.58823E-04  5620   0.500E-02    0.139E-01
DAV:   4    -0.850532963220E+03   -0.27842E-03   -0.63561E-04  5440   0.614E-02    0.317E-02
DAV:   5    -0.850533005355E+03   -0.42134E-04   -0.17531E-04  5340   0.243E-02    0.197E-02
DAV:   6    -0.850533000970E+03    0.43842E-05   -0.27664E-05  5280   0.140E-02    0.985E-03
DAV:   7    -0.850533002862E+03   -0.18920E-05   -0.80010E-06  5060   0.539E-03    0.613E-03
DAV:   8    -0.850533002511E+03    0.35095E-06   -0.18652E-06  4240   0.539E-03
  41 F= -.85850290E+03 E0= -.85850290E+03  d E =0.329482E-02  mag=    -0.0000
       N       E                     dE             d eps       ncg     rms          rms(c)
DAV:   1    -0.850533236412E+03   -0.23355E-03   -0.19975E-03  4800   0.864E-02    0.825E-03
DAV:   2    -0.850533240445E+03   -0.40325E-05   -0.46915E-05  4860   0.121E-02    0.563E-03
DAV:   3    -0.850533240332E+03    0.11284E-06   -0.46927E-07  3330   0.153E-03
  42 F= -.85850313E+03 E0= -.85850313E+03  d E =-.230855E-03  mag=    -0.0000
       N       E                     dE             d eps       ncg     rms          rms(c)
DAV:   1    -0.850533623140E+03   -0.38270E-03   -0.59225E-03  4720   0.150E-01    0.147E-02
DAV:   2    -0.850533633920E+03   -0.10780E-04   -0.13511E-04  4960   0.206E-02    0.987E-03
DAV:   3    -0.850533633795E+03    0.12484E-06   -0.12979E-06  4120   0.242E-03
  43 F= -.85850351E+03 E0= -.85850351E+03  d E =-.379307E-03  mag=    -0.0000
       N       E                     dE             d eps       ncg     rms          rms(c)
DAV:   1    -0.850534067968E+03   -0.43405E-03   -0.91537E-03  4720   0.187E-01    0.185E-02
DAV:   2    -0.850534083858E+03   -0.15890E-04   -0.20381E-04  4880   0.255E-02    0.123E-02
DAV:   3    -0.850534083762E+03    0.95439E-07   -0.20954E-06  4500   0.308E-03
  44 F= -.85850394E+03 E0= -.85850394E+03  d E =-.428782E-03  mag=     0.0000
       N       E                     dE             d eps       ncg     rms          rms(c)
DAV:   1    -0.850534471038E+03   -0.38718E-03   -0.11273E-02  4720   0.209E-01    0.205E-02
DAV:   2    -0.850534489984E+03   -0.18947E-04   -0.24456E-04  4860   0.284E-02    0.138E-02
DAV:   3    -0.850534489795E+03    0.18965E-06   -0.26472E-06  4720   0.352E-03
  45 F= -.85850432E+03 E0= -.85850432E+03  d E =-.378847E-03  mag=     0.0000
       N       E                     dE             d eps       ncg     rms          rms(c)
DAV:   1    -0.850534834386E+03   -0.34440E-03   -0.15032E-02  4720   0.242E-01    0.233E-02
DAV:   2    -0.850534859499E+03   -0.25113E-04   -0.32131E-04  4780   0.330E-02    0.158E-02
DAV:   3    -0.850534859219E+03    0.28022E-06   -0.36177E-06  5080   0.406E-03
  46 F= -.85850465E+03 E0= -.85850465E+03  d E =-.337415E-03  mag=     0.0000
       N       E                     dE             d eps       ncg     rms          rms(c)
DAV:   1    -0.850535171391E+03   -0.31189E-03   -0.20439E-02  4720   0.283E-01    0.271E-02
DAV:   2    -0.850535205644E+03   -0.34254E-04   -0.43751E-04  4740   0.387E-02    0.185E-02
DAV:   3    -0.850535205306E+03    0.33843E-06   -0.51002E-06  5360   0.475E-03
  47 F= -.85850496E+03 E0= -.85850496E+03  d E =-.309860E-03  mag=    -0.0000
       N       E                     dE             d eps       ncg     rms          rms(c)
DAV:   1    -0.850535503673E+03   -0.29803E-03   -0.33384E-02  4720   0.362E-01    0.345E-02
DAV:   2    -0.850535559732E+03   -0.56059E-04   -0.71703E-04  4640   0.496E-02    0.236E-02
DAV:   3    -0.850535559302E+03    0.43034E-06   -0.85395E-06  5480   0.609E-03
  48 F= -.85850527E+03 E0= -.85850527E+03  d E =-.309878E-03  mag=     0.0000
       N       E                     dE             d eps       ncg     rms          rms(c)
DAV:   1    -0.850535870691E+03   -0.31096E-03   -0.52251E-02  4720   0.453E-01    0.435E-02
DAV:   2    -0.850535956653E+03   -0.85962E-04   -0.11188E-03  4640   0.619E-02    0.296E-02
DAV:   3    -0.850535957090E+03   -0.43729E-06   -0.13694E-05  5500   0.764E-03    0.230E-02
DAV:   4    -0.850535972956E+03   -0.15866E-04   -0.14232E-05  4530   0.876E-03    0.544E-03
DAV:   5    -0.850535974623E+03   -0.16669E-05   -0.41969E-06  4740   0.367E-03    0.340E-03
DAV:   6    -0.850535974531E+03    0.92434E-07   -0.61753E-07  3340   0.201E-03
  49 F= -.85850563E+03 E0= -.85850563E+03  d E =-.362084E-03  mag=    -0.0000
       N       E                     dE             d eps       ncg     rms          rms(c)
DAV:   1    -0.850536342306E+03   -0.36768E-03   -0.81322E-02  4720   0.564E-01    0.516E-02
DAV:   2    -0.850536489793E+03   -0.14749E-03   -0.18277E-03  4640   0.791E-02    0.338E-02
DAV:   3    -0.850536487235E+03    0.25578E-05   -0.21522E-05  5560   0.961E-03    0.263E-02
DAV:   4    -0.850536505018E+03   -0.17783E-04   -0.23395E-05  4560   0.112E-02    0.669E-03
DAV:   5    -0.850536507357E+03   -0.23390E-05   -0.65686E-06  5160   0.457E-03    0.417E-03
DAV:   6    -0.850536507303E+03    0.53784E-07   -0.10338E-06  3480   0.280E-03
  50 F= -.85850610E+03 E0= -.85850610E+03  d E =-.468548E-03  mag=    -0.0000
       N       E                     dE             d eps       ncg     rms          rms(c)
DAV:   1    -0.850536978832E+03   -0.47147E-03   -0.12430E-01  4740   0.696E-01    0.646E-02
DAV:   2    -0.850537204565E+03   -0.22573E-03   -0.28123E-03  4640   0.979E-02    0.423E-02
DAV:   3    -0.850537200290E+03    0.42751E-05   -0.32983E-05  5600   0.119E-02    0.329E-02
DAV:   4    -0.850537229545E+03   -0.29256E-04   -0.35131E-05  4680   0.139E-02    0.825E-03
DAV:   5    -0.850537233133E+03   -0.35872E-05   -0.99796E-06  5320   0.565E-03    0.513E-03
DAV:   6    -0.850537233019E+03    0.11364E-06   -0.16914E-06  3920   0.351E-03
  51 F= -.85850675E+03 E0= -.85850675E+03  d E =-.647583E-03  mag=     0.0000
       N       E                     dE             d eps       ncg     rms          rms(c)
DAV:   1    -0.850537863302E+03   -0.63017E-03   -0.18424E-01  4740   0.842E-01    0.793E-02
DAV:   2    -0.850538197746E+03   -0.33444E-03   -0.41731E-03  4660   0.118E-01    0.521E-02
DAV:   3    -0.850538189982E+03    0.77638E-05   -0.47780E-05  5560   0.143E-02    0.406E-02
DAV:   4    -0.850538236539E+03   -0.46557E-04   -0.58456E-05  4880   0.175E-02    0.988E-03
DAV:   5    -0.850538241594E+03   -0.50548E-05   -0.15172E-05  5380   0.701E-03    0.668E-03
DAV:   6    -0.850538241342E+03    0.25173E-06   -0.31720E-06  4200   0.456E-03
  52 F= -.85850767E+03 E0= -.85850767E+03  d E =-.916582E-03  mag=     0.0000
       N       E                     dE             d eps       ncg     rms          rms(c)
DAV:   1    -0.850539118759E+03   -0.87716E-03   -0.27336E-01  4740   0.101E+00    0.973E-02
DAV:   2    -0.850539619086E+03   -0.50033E-03   -0.61667E-03  4740   0.141E-01    0.642E-02
DAV:   3    -0.850539605494E+03    0.13592E-04   -0.68631E-05  5540   0.170E-02    0.502E-02
DAV:   4    -0.850539671904E+03   -0.66410E-04   -0.10157E-04  4960   0.220E-02    0.119E-02
DAV:   5    -0.850539678750E+03   -0.68460E-05   -0.23575E-05  5360   0.862E-03    0.892E-03
DAV:   6    -0.850539678490E+03    0.25954E-06   -0.62270E-06  4360   0.587E-03
  53 F= -.85850900E+03 E0= -.85850900E+03  d E =-.133480E-02  mag=     0.0000
       N       E                     dE             d eps       ncg     rms          rms(c)
DAV:   1    -0.850540825293E+03   -0.11465E-02   -0.40705E-01  4720   0.121E+00    0.120E-01
DAV:   2    -0.850541584012E+03   -0.75872E-03   -0.91911E-03  4860   0.168E-01    0.785E-02
DAV:   3    -0.850541566718E+03    0.17294E-04   -0.99571E-05  5500   0.201E-02    0.616E-02
DAV:   4    -0.850541653231E+03   -0.86513E-04   -0.16058E-04  5020   0.262E-02    0.143E-02
DAV:   5    -0.850541662995E+03   -0.97640E-05   -0.34833E-05  5340   0.103E-02    0.113E-02
DAV:   6    -0.850541662442E+03    0.55325E-06   -0.10439E-05  4480   0.706E-03    0.502E-03
DAV:   7    -0.850541662769E+03   -0.32718E-06   -0.20482E-06  4000   0.272E-03
  54 F= -.85851087E+03 E0= -.85851087E+03  d E =-.187249E-02  mag=    -0.0000
       N       E                     dE             d eps       ncg     rms          rms(c)
DAV:   1    -0.850543106942E+03   -0.14445E-02   -0.60472E-01  4720   0.145E+00    0.149E-01
DAV:   2    -0.850544240835E+03   -0.11339E-02   -0.13686E-02  4840   0.200E-01    0.957E-02
DAV:   3    -0.850544221190E+03    0.19645E-04   -0.14625E-04  5390   0.238E-02    0.748E-02
DAV:   4    -0.850544336825E+03   -0.11563E-03   -0.23196E-04  5260   0.305E-02    0.169E-02
DAV:   5    -0.850544351103E+03   -0.14278E-04   -0.50126E-05  5320   0.119E-02    0.133E-02
DAV:   6    -0.850544350278E+03    0.82469E-06   -0.14224E-05  4560   0.778E-03    0.603E-03
DAV:   7    -0.850544350720E+03   -0.44235E-06   -0.29900E-06  4100   0.320E-03
  55 F= -.85851343E+03 E0= -.85851343E+03  d E =-.255293E-02  mag=    -0.0000
       N       E                     dE             d eps       ncg     rms          rms(c)
DAV:   1    -0.850545876755E+03   -0.15265E-02   -0.88852E-01  4720   0.171E+00    0.186E-01
DAV:   2    -0.850547556839E+03   -0.16801E-02   -0.20240E-02  4920   0.237E-01    0.118E-01
DAV:   3    -0.850547529770E+03    0.27070E-04   -0.21413E-04  5480   0.280E-02    0.921E-02
DAV:   4    -0.850547691621E+03   -0.16185E-03   -0.36530E-04  5300   0.372E-02    0.203E-02
DAV:   5    -0.850547710536E+03   -0.18915E-04   -0.76876E-05  5320   0.143E-02    0.167E-02
DAV:   6    -0.850547708602E+03    0.19340E-05   -0.22437E-05  4640   0.937E-03    0.747E-03
DAV:   7    -0.850547708863E+03   -0.26069E-06   -0.51847E-06  4800   0.411E-03
  56 F= -.85851661E+03 E0= -.85851661E+03  d E =-.318045E-02  mag=     0.0000
       N       E                     dE             d eps       ncg     rms          rms(c)
DAV:   1    -0.850549303250E+03   -0.15946E-02   -0.12119E+00  4720   0.194E+00    0.222E-01
DAV:   2    -0.850551587322E+03   -0.22841E-02   -0.27432E-02  4880   0.266E-01    0.142E-01
DAV:   3    -0.850551547564E+03    0.39758E-04   -0.29761E-04  5440   0.323E-02    0.111E-01
DAV:   4    -0.850551752374E+03   -0.20481E-03   -0.58989E-04  5340   0.444E-02    0.249E-02
DAV:   5    -0.850551773468E+03   -0.21094E-04   -0.11248E-04  5360   0.169E-02    0.216E-02
DAV:   6    -0.850551769749E+03    0.37196E-05   -0.40998E-05  4630   0.120E-02    0.902E-03
DAV:   7    -0.850551769982E+03   -0.23292E-06   -0.77798E-06  5250   0.490E-03
  57 F= -.85852047E+03 E0= -.85852047E+03  d E =-.386316E-02  mag=     0.0000
       N       E                     dE             d eps       ncg     rms          rms(c)
DAV:   1    -0.850553010136E+03   -0.12404E-02   -0.15761E+00  4720   0.217E+00    0.258E-01
DAV:   2    -0.850555966351E+03   -0.29562E-02   -0.35415E-02  4900   0.297E-01    0.165E-01
DAV:   3    -0.850555913043E+03    0.53309E-04   -0.39191E-04  5420   0.369E-02    0.128E-01
DAV:   4    -0.850556174346E+03   -0.26130E-03   -0.82559E-04  5340   0.517E-02    0.294E-02
DAV:   5    -0.850556192878E+03   -0.18532E-04   -0.14827E-04  5380   0.196E-02    0.257E-02
DAV:   6    -0.850556187417E+03    0.54615E-05   -0.65527E-05  4740   0.149E-02    0.101E-02
DAV:   7    -0.850556187773E+03   -0.35603E-06   -0.10089E-05  5520   0.552E-03    0.775E-03
DAV:   8    -0.850556187196E+03    0.57632E-06   -0.32578E-06  4040   0.435E-03
  58 F= -.85852467E+03 E0= -.85852467E+03  d E =-.419840E-02  mag=     0.0000
       N       E                     dE             d eps       ncg     rms          rms(c)
DAV:   1    -0.850556274770E+03   -0.86997E-04   -0.21199E+00  4720   0.249E+00    0.302E-01
DAV:   2    -0.850560266435E+03   -0.39917E-02   -0.47951E-02  4900   0.344E-01    0.194E-01
DAV:   3    -0.850560183608E+03    0.82827E-04   -0.57047E-04  5460   0.444E-02    0.150E-01
DAV:   4    -0.850560464632E+03   -0.28102E-03   -0.10427E-03  5460   0.596E-02    0.346E-02
DAV:   5    -0.850560507843E+03   -0.43212E-04   -0.21215E-04  5360   0.227E-02    0.278E-02
DAV:   6    -0.850560499966E+03    0.78771E-05   -0.68403E-05  4840   0.163E-02    0.121E-02
DAV:   7    -0.850560500622E+03   -0.65564E-06   -0.14166E-05  5380   0.663E-03    0.875E-03
DAV:   8    -0.850560499903E+03    0.71836E-06   -0.47158E-06  4460   0.524E-03
  59 F= -.85852869E+03 E0= -.85852869E+03  d E =-.402356E-02  mag=     0.0000
       N       E                     dE             d eps       ncg     rms          rms(c)
DAV:   1    -0.850558499677E+03    0.20009E-02   -0.27154E+00  4720   0.295E+00    0.334E-01
DAV:   2    -0.850563673907E+03   -0.51742E-02   -0.61494E-02  4920   0.409E-01    0.218E-01
DAV:   3    -0.850563580678E+03    0.93229E-04   -0.72317E-04  5620   0.520E-02    0.170E-01
DAV:   4    -0.850563943041E+03   -0.36236E-03   -0.13046E-03  5400   0.712E-02    0.406E-02
DAV:   5    -0.850563986059E+03   -0.43018E-04   -0.25749E-04  5340   0.268E-02    0.324E-02
DAV:   6    -0.850563976592E+03    0.94674E-05   -0.11193E-04  4920   0.217E-02    0.127E-02
DAV:   7    -0.850563977823E+03   -0.12313E-05   -0.16413E-05  5500   0.718E-03    0.992E-03
DAV:   8    -0.850563976958E+03    0.86526E-06   -0.43077E-06  4500   0.546E-03
  60 F= -.85853187E+03 E0= -.85853187E+03  d E =-.317275E-02  mag=    -0.0000
       N       E                     dE             d eps       ncg     rms          rms(c)
DAV:   1    -0.850556506004E+03    0.74718E-02   -0.43075E+00  4720   0.381E+00    0.408E-01
DAV:   2    -0.850565013553E+03   -0.85075E-02   -0.99840E-02  4960   0.533E-01    0.274E-01
DAV:   3    -0.850564746497E+03    0.26706E-03   -0.12731E-03  5780   0.702E-02    0.214E-01
DAV:   4    -0.850565028537E+03   -0.28204E-03   -0.19860E-03  5220   0.899E-02    0.564E-02
DAV:   5    -0.850565153147E+03   -0.12461E-03   -0.48174E-04  5280   0.359E-02    0.385E-02
DAV:   6    -0.850565142140E+03    0.11007E-04   -0.12561E-04  5180   0.241E-02    0.166E-02
DAV:   7    -0.850565145326E+03   -0.31856E-05   -0.21843E-05  5280   0.829E-03    0.117E-02
DAV:   8    -0.850565144219E+03    0.11066E-05   -0.91370E-06  4880   0.776E-03    0.494E-03
DAV:   9    -0.850565144935E+03   -0.71574E-06   -0.27955E-06  3760   0.303E-03
  61 F= -.85853262E+03 E0= -.85853262E+03  d E =-.756354E-03  mag=     0.0000
       N       E                     dE             d eps       ncg     rms          rms(c)
DAV:   1    -0.850566810373E+03   -0.16662E-02   -0.10494E-01  4700   0.651E-01    0.713E-02
DAV:   2    -0.850567011396E+03   -0.20102E-03   -0.27591E-03  5760   0.962E-02    0.645E-02
DAV:   3    -0.850566971079E+03    0.40317E-04   -0.10110E-04  6160   0.190E-02    0.512E-02
DAV:   4    -0.850566926447E+03    0.44632E-04   -0.88753E-05  4960   0.200E-02    0.219E-02
DAV:   5    -0.850566925235E+03    0.12122E-05   -0.33661E-05  5140   0.104E-02    0.867E-03
DAV:   6    -0.850566925385E+03   -0.15012E-06   -0.36881E-06  4000   0.380E-03
  62 F= -.85853440E+03 E0= -.85853440E+03  d E =-.177737E-02  mag=     0.0000
       N       E                     dE             d eps       ncg     rms          rms(c)
DAV:   1    -0.850565126863E+03    0.17984E-02   -0.11137E-01  4680   0.686E-01    0.691E-02
DAV:   2    -0.850565357862E+03   -0.23100E-03   -0.29393E-03  5680   0.102E-01    0.592E-02
DAV:   3    -0.850565329538E+03    0.28324E-04   -0.89204E-05  6160   0.180E-02    0.470E-02
DAV:   4    -0.850565300489E+03    0.29048E-04   -0.75291E-05  5000   0.189E-02    0.196E-02
DAV:   5    -0.850565301760E+03   -0.12710E-05   -0.26740E-05  5100   0.945E-03    0.840E-03
DAV:   6    -0.850565301933E+03   -0.17248E-06   -0.35587E-06  4260   0.369E-03
  63 F= -.85853274E+03 E0= -.85853274E+03  d E =0.165873E-02  mag=    -0.0000
       N       E                     dE             d eps       ncg     rms          rms(c)
DAV:   1    -0.850565914837E+03   -0.61308E-03   -0.58612E-03  4680   0.153E-01    0.167E-02
DAV:   2    -0.850565925168E+03   -0.10331E-04   -0.15081E-04  5740   0.226E-02    0.153E-02
DAV:   3    -0.850565922775E+03    0.23930E-05   -0.53103E-06  5120   0.444E-03    0.121E-02
DAV:   4    -0.850565919958E+03    0.28171E-05   -0.59325E-06  4640   0.506E-03    0.508E-03
DAV:   5    -0.850565919884E+03    0.73138E-07   -0.19308E-06  3680   0.247E-03
  64 F= -.85853335E+03 E0= -.85853335E+03  d E =-.610715E-03  mag=    -0.0000
       N       E                     dE             d eps       ncg     rms          rms(c)
DAV:   1    -0.850566456387E+03   -0.53643E-03   -0.19118E-02  4660   0.279E-01    0.292E-02
DAV:   2    -0.850566493713E+03   -0.37326E-04   -0.49267E-04  5740   0.410E-02    0.260E-02
DAV:   3    -0.850566487816E+03    0.58965E-05   -0.15967E-05  6040   0.760E-03    0.207E-02
DAV:   4    -0.850566481281E+03    0.65358E-05   -0.14654E-05  4800   0.811E-03    0.877E-03
DAV:   5    -0.850566481322E+03   -0.41087E-07   -0.53947E-06  4400   0.416E-03
  65 F= -.85853390E+03 E0= -.85853390E+03  d E =-.547215E-03  mag=     0.0000
       N       E                     dE             d eps       ncg     rms          rms(c)
DAV:   1    -0.850566240809E+03    0.24047E-03   -0.31708E-02  4640   0.362E-01    0.358E-02
DAV:   2    -0.850566305173E+03   -0.64364E-04   -0.81179E-04  5620   0.532E-02    0.306E-02
DAV:   3    -0.850566297790E+03    0.73828E-05   -0.22426E-05  6060   0.910E-03    0.245E-02
DAV:   4    -0.850566290344E+03    0.74462E-05   -0.20302E-05  4740   0.969E-03    0.101E-02
DAV:   5    -0.850566290876E+03   -0.53203E-06   -0.75381E-06  4980   0.492E-03
  66 F= -.85853369E+03 E0= -.85853369E+03  d E =0.211017E-03  mag=     0.0000
       N       E                     dE             d eps       ncg     rms          rms(c)
DAV:   1    -0.850565317099E+03    0.97325E-03   -0.39641E-02  4720   0.401E-01    0.367E-02
DAV:   2    -0.850565399149E+03   -0.82050E-04   -0.97843E-04  5380   0.578E-02    0.279E-02
DAV:   3    -0.850565394668E+03    0.44805E-05   -0.17475E-05  5980   0.832E-03    0.221E-02
DAV:   4    -0.850565393534E+03    0.11343E-05   -0.15816E-05  4720   0.896E-03    0.847E-03
DAV:   5    -0.850565394791E+03   -0.12571E-05   -0.57263E-06  4780   0.434E-03    0.412E-03
DAV:   6    -0.850565394787E+03    0.43947E-08   -0.91234E-07  3180   0.203E-03
  67 F= -.85853277E+03 E0= -.85853277E+03  d E =0.919613E-03  mag=    -0.0000
       N       E                     dE             d eps       ncg     rms          rms(c)
DAV:   1    -0.850564308221E+03    0.10866E-02   -0.55474E-02  4740   0.460E-01    0.398E-02
DAV:   2    -0.850564420881E+03   -0.11266E-03   -0.13042E-03  4740   0.644E-02    0.254E-02
DAV:   3    -0.850564419471E+03    0.14103E-05   -0.12547E-05  5860   0.731E-03    0.201E-02
DAV:   4    -0.850564427367E+03   -0.78958E-05   -0.10914E-05  4550   0.813E-03    0.601E-03
DAV:   5    -0.850564428790E+03   -0.14226E-05   -0.40267E-06  4880   0.363E-03    0.346E-03
DAV:   6    -0.850564428653E+03    0.13664E-06   -0.69307E-07  3280   0.203E-03
  68 F= -.85853178E+03 E0= -.85853178E+03  d E =0.989399E-03  mag=    -0.0000
       N       E                     dE             d eps       ncg     rms          rms(c)
DAV:   1    -0.850563498927E+03    0.92986E-03   -0.92883E-02  4740   0.591E-01    0.512E-02
DAV:   2    -0.850563685126E+03   -0.18620E-03   -0.21707E-03  4660   0.824E-02    0.318E-02
DAV:   3    -0.850563683496E+03    0.16304E-05   -0.18419E-05  5740   0.881E-03    0.252E-02
DAV:   4    -0.850563699926E+03   -0.16431E-04   -0.17142E-05  4560   0.103E-02    0.654E-03
DAV:   5    -0.850563701927E+03   -0.20005E-05   -0.60618E-06  5200   0.440E-03    0.404E-03
DAV:   6    -0.850563701690E+03    0.23702E-06   -0.90284E-07  3610   0.239E-03
  69 F= -.85853103E+03 E0= -.85853103E+03  d E =0.749104E-03  mag=     0.0000
       N       E                     dE             d eps       ncg     rms          rms(c)
DAV:   1    -0.850562497959E+03    0.12040E-02   -0.18160E-01  4740   0.832E-01    0.726E-02
DAV:   2    -0.850562865287E+03   -0.36733E-03   -0.43167E-03  4880   0.117E-01    0.471E-02
DAV:   3    -0.850562859650E+03    0.56379E-05   -0.43443E-05  5840   0.133E-02    0.373E-02
DAV:   4    -0.850562885413E+03   -0.25764E-04   -0.42522E-05  4860   0.158E-02    0.109E-02
DAV:   5    -0.850562890758E+03   -0.53448E-05   -0.14662E-05  5140   0.686E-03    0.635E-03
DAV:   6    -0.850562890393E+03    0.36482E-06   -0.25002E-06  4160   0.364E-03
  70 F= -.85853019E+03 E0= -.85853019E+03  d E =0.836030E-03  mag=     0.0000
       N       E                     dE             d eps       ncg     rms          rms(c)
DAV:   1    -0.850560491770E+03    0.23990E-02   -0.32451E-01  4740   0.111E+00    0.971E-02
DAV:   2    -0.850561157537E+03   -0.66577E-03   -0.77261E-03  4920   0.157E-01    0.634E-02
DAV:   3    -0.850561145907E+03    0.11630E-04   -0.79307E-05  5860   0.179E-02    0.503E-02
DAV:   4    -0.850561182139E+03   -0.36232E-04   -0.78424E-05  5000   0.211E-02    0.148E-02
DAV:   5    -0.850561193170E+03   -0.11030E-04   -0.26492E-05  5320   0.935E-03    0.858E-03
DAV:   6    -0.850561192829E+03    0.34100E-06   -0.49603E-06  4520   0.491E-03
  71 F= -.85852846E+03 E0= -.85852846E+03  d E =0.173010E-02  mag=     0.0000
       N       E                     dE             d eps       ncg     rms          rms(c)
DAV:   1    -0.850557419223E+03    0.37739E-02   -0.50624E-01  4740   0.138E+00    0.119E-01
DAV:   2    -0.850558464186E+03   -0.10450E-02   -0.11865E-02  4880   0.192E-01    0.744E-02
DAV:   3    -0.850558453914E+03    0.10272E-04   -0.10227E-04  5740   0.206E-02    0.591E-02
DAV:   4    -0.850558515215E+03   -0.61301E-04   -0.10357E-04  5060   0.245E-02    0.152E-02
DAV:   5    -0.850558527615E+03   -0.12400E-04   -0.33136E-05  5260   0.103E-02    0.963E-03
DAV:   6    -0.850558526984E+03    0.63136E-06   -0.65762E-06  4660   0.583E-03
  72 F= -.85852575E+03 E0= -.85852575E+03  d E =0.271401E-02  mag=     0.0000
       N       E                     dE             d eps       ncg     rms          rms(c)
DAV:   1    -0.850554435071E+03    0.40925E-02   -0.70856E-01  4740   0.163E+00    0.139E-01
DAV:   2    -0.850555898718E+03   -0.14636E-02   -0.16456E-02  4880   0.226E-01    0.857E-02
DAV:   3    -0.850555887493E+03    0.11225E-04   -0.13143E-04  5660   0.237E-02    0.681E-02
DAV:   4    -0.850555973441E+03   -0.85948E-04   -0.13750E-04  5300   0.282E-02    0.163E-02
DAV:   5    -0.850555989205E+03   -0.15764E-04   -0.40874E-05  5280   0.115E-02    0.107E-02
DAV:   6    -0.850555988167E+03    0.10384E-05   -0.93040E-06  4700   0.699E-03    0.492E-03
DAV:   7    -0.850555988491E+03   -0.32465E-06   -0.17119E-06  3960   0.247E-03
  73 F= -.85852314E+03 E0= -.85852314E+03  d E =0.260721E-02  mag=     0.0000
       N       E                     dE             d eps       ncg     rms          rms(c)
DAV:   1    -0.850551086932E+03    0.49012E-02   -0.95097E-01  4740   0.191E+00    0.162E-01
DAV:   2    -0.850553054632E+03   -0.19677E-02   -0.22196E-02  4920   0.265E-01    0.103E-01
DAV:   3    -0.850553027302E+03    0.27329E-04   -0.20438E-04  5740   0.294E-02    0.818E-02
DAV:   4    -0.850553111306E+03   -0.84004E-04   -0.21094E-04  5100   0.345E-02    0.223E-02
DAV:   5    -0.850553136324E+03   -0.25018E-04   -0.65419E-05  5280   0.145E-02    0.134E-02
DAV:   6    -0.850553135171E+03    0.11523E-05   -0.14818E-05  5120   0.840E-03    0.589E-03
DAV:   7    -0.850553135844E+03   -0.67273E-06   -0.22067E-06  4020   0.279E-03
  74 F= -.85852019E+03 E0= -.85852019E+03  d E =0.294774E-02  mag=    -0.0000
       N       E                     dE             d eps       ncg     rms          rms(c)
DAV:   1    -0.850547240672E+03    0.58945E-02   -0.11144E+00  4740   0.207E+00    0.174E-01
DAV:   2    -0.850549526447E+03   -0.22858E-02   -0.25737E-02  4900   0.287E-01    0.107E-01
DAV:   3    -0.850549504085E+03    0.22362E-04   -0.21977E-04  5620   0.307E-02    0.850E-02
DAV:   4    -0.850549622371E+03   -0.11829E-03   -0.23283E-04  5340   0.367E-02    0.211E-02
DAV:   5    -0.850549642329E+03   -0.19958E-04   -0.66594E-05  5320   0.149E-02    0.132E-02
DAV:   6    -0.850549641111E+03    0.12182E-05   -0.14003E-05  4860   0.876E-03    0.613E-03
DAV:   7    -0.850549641965E+03   -0.85435E-06   -0.27268E-06  4520   0.312E-03
  75 F= -.85851658E+03 E0= -.85851658E+03  d E =0.361475E-02  mag=     0.0000
       N       E                     dE             d eps       ncg     rms          rms(c)
DAV:   1    -0.850549828638E+03   -0.18753E-03   -0.96777E-04  4720   0.639E-02    0.672E-03
DAV:   2    -0.850549830616E+03   -0.19779E-05   -0.25562E-05  5640   0.954E-03    0.598E-03
DAV:   3    -0.850549830301E+03    0.31476E-06   -0.62394E-07  2960   0.173E-03
  76 F= -.85851677E+03 E0= -.85851677E+03  d E =-.187514E-03  mag=    -0.0000
       N       E                     dE             d eps       ncg     rms          rms(c)
DAV:   1    -0.850550109130E+03   -0.27851E-03   -0.33108E-03  4700   0.118E-01    0.129E-02
DAV:   2    -0.850550115361E+03   -0.62311E-05   -0.82977E-05  5740   0.172E-02    0.111E-02
DAV:   3    -0.850550114382E+03    0.97965E-06   -0.21649E-06  4040   0.309E-03
  77 F= -.85851705E+03 E0= -.85851705E+03  d E =-.281868E-03  mag=    -0.0000
       N       E                     dE             d eps       ncg     rms          rms(c)
DAV:   1    -0.850550369768E+03   -0.25441E-03   -0.58908E-03  4680   0.158E-01    0.176E-02
DAV:   2    -0.850550380401E+03   -0.10633E-04   -0.14320E-04  5620   0.228E-02    0.148E-02
DAV:   3    -0.850550378934E+03    0.14664E-05   -0.41208E-06  4900   0.413E-03    0.117E-02
DAV:   4    -0.850550378196E+03    0.73866E-06   -0.47402E-06  4540   0.475E-03
  78 F= -.85851731E+03 E0= -.85851731E+03  d E =-.259388E-03  mag=     0.0000
       N       E                     dE             d eps       ncg     rms          rms(c)
DAV:   1    -0.850550569785E+03   -0.19085E-03   -0.77009E-03  4740   0.181E-01    0.177E-02
DAV:   2    -0.850550585208E+03   -0.15422E-04   -0.19046E-04  5500   0.263E-02    0.138E-02
DAV:   3    -0.850550584137E+03    0.10710E-05   -0.40856E-06  5080   0.418E-03    0.110E-02
DAV:   4    -0.850550584265E+03   -0.12795E-06   -0.37133E-06  4380   0.429E-03
  79 F= -.85851751E+03 E0= -.85851751E+03  d E =-.197857E-03  mag=    -0.0000
       N       E                     dE             d eps       ncg     rms          rms(c)
DAV:   1    -0.850550780555E+03   -0.19642E-03   -0.83277E-03  4720   0.185E-01    0.176E-02
DAV:   2    -0.850550796431E+03   -0.15876E-04   -0.19511E-04  5280   0.264E-02    0.122E-02
DAV:   3    -0.850550795925E+03    0.50587E-06   -0.27619E-06  4760   0.369E-03
  80 F= -.85851771E+03 E0= -.85851771E+03  d E =-.199124E-03  mag=    -0.0000
       N       E                     dE             d eps       ncg     rms          rms(c)
DAV:   1    -0.850551065700E+03   -0.26927E-03   -0.93879E-03  4720   0.193E-01    0.191E-02
DAV:   2    -0.850551081524E+03   -0.15823E-04   -0.20608E-04  4740   0.267E-02    0.131E-02
DAV:   3    -0.850551081502E+03    0.21799E-07   -0.21635E-06  4740   0.335E-03
  81 F= -.85851797E+03 E0= -.85851797E+03  d E =-.269029E-03  mag=     0.0000
       N       E                     dE             d eps       ncg     rms          rms(c)
DAV:   1    -0.850551445807E+03   -0.36428E-03   -0.14448E-02  4720   0.240E-01    0.228E-02
DAV:   2    -0.850551471052E+03   -0.25245E-04   -0.32091E-04  4740   0.333E-02    0.157E-02
DAV:   3    -0.850551470682E+03    0.36986E-06   -0.37568E-06  5260   0.412E-03
  82 F= -.85851834E+03 E0= -.85851834E+03  d E =-.366575E-03  mag=     0.0000
       N       E                     dE             d eps       ncg     rms          rms(c)
DAV:   1    -0.850551810429E+03   -0.33938E-03   -0.22929E-02  4720   0.303E-01    0.290E-02
DAV:   2    -0.850551850339E+03   -0.39910E-04   -0.51381E-04  4980   0.424E-02    0.210E-02
DAV:   3    -0.850551849109E+03    0.12300E-05   -0.73408E-06  5660   0.554E-03    0.165E-02
DAV:   4    -0.850551853919E+03   -0.48100E-05   -0.91006E-06  4520   0.686E-03    0.461E-03
DAV:   5    -0.850551854736E+03   -0.81755E-06   -0.26331E-06  4240   0.294E-03
  83 F= -.85851870E+03 E0= -.85851870E+03  d E =-.354159E-03  mag=     0.0000
       N       E                     dE             d eps       ncg     rms          rms(c)
DAV:   1    -0.850551978775E+03   -0.12486E-03   -0.34008E-02  4720   0.371E-01    0.332E-02
DAV:   2    -0.850552043788E+03   -0.65013E-04   -0.79361E-04  4840   0.530E-02    0.233E-02
DAV:   3    -0.850552041210E+03    0.25788E-05   -0.10715E-05  5860   0.673E-03    0.183E-02
DAV:   4    -0.850552045992E+03   -0.47824E-05   -0.12613E-05  4580   0.813E-03    0.549E-03
DAV:   5    -0.850552047118E+03   -0.11263E-05   -0.36858E-06  4400   0.346E-03    0.321E-03
DAV:   6    -0.850552047133E+03   -0.14239E-07   -0.53647E-07  2980   0.176E-03
  84 F= -.85851885E+03 E0= -.85851885E+03  d E =-.154460E-03  mag=    -0.0000
       N       E                     dE             d eps       ncg     rms          rms(c)
DAV:   1    -0.850551984990E+03    0.62129E-04   -0.45212E-02  4720   0.427E-01    0.368E-02
DAV:   2    -0.850552069929E+03   -0.84939E-04   -0.10220E-03  4640   0.604E-02    0.244E-02
DAV:   3    -0.850552067433E+03    0.24953E-05   -0.11451E-05  5700   0.713E-03    0.191E-02
DAV:   4    -0.850552075287E+03   -0.78533E-05   -0.13279E-05  4560   0.867E-03    0.502E-03
DAV:   5    -0.850552076393E+03   -0.11063E-05   -0.37654E-06  4700   0.354E-03    0.307E-03
DAV:   6    -0.850552076395E+03   -0.17899E-08   -0.56958E-07  3140   0.195E-03
  85 F= -.85851884E+03 E0= -.85851884E+03  d E =0.145639E-04  mag=     0.0000
       N       E                     dE             d eps       ncg     rms          rms(c)
DAV:   1    -0.850551877488E+03    0.19891E-03   -0.68214E-02  4740   0.525E-01    0.447E-02
DAV:   2    -0.850552005337E+03   -0.12785E-03   -0.15380E-03  4640   0.742E-02    0.294E-02
DAV:   3    -0.850552002630E+03    0.27068E-05   -0.16680E-05  5620   0.857E-03    0.229E-02
DAV:   4    -0.850552014610E+03   -0.11980E-04   -0.17805E-05  4660   0.102E-02    0.590E-03
DAV:   5    -0.850552016182E+03   -0.15719E-05   -0.51432E-06  5060   0.413E-03    0.348E-03
DAV:   6    -0.850552016108E+03    0.73785E-07   -0.80425E-07  3250   0.244E-03
  86 F= -.85851873E+03 E0= -.85851873E+03  d E =0.109117E-03  mag=    -0.0000
       N       E                     dE             d eps       ncg     rms          rms(c)
DAV:   1    -0.850551400579E+03    0.61560E-03   -0.11747E-01  4720   0.689E-01    0.589E-02
DAV:   2    -0.850551623232E+03   -0.22265E-03   -0.26866E-03  4660   0.977E-02    0.395E-02
DAV:   3    -0.850551617849E+03    0.53835E-05   -0.31789E-05  5780   0.116E-02    0.308E-02
DAV:   4    -0.850551636324E+03   -0.18475E-04   -0.31406E-05  4940   0.136E-02    0.875E-03
DAV:   5    -0.850551639470E+03   -0.31463E-05   -0.96685E-06  5220   0.560E-03    0.488E-03
DAV:   6    -0.850551639327E+03    0.14342E-06   -0.15376E-06  3560   0.332E-03
  87 F= -.85851829E+03 E0= -.85851829E+03  d E =0.433831E-03  mag=     0.0000
       N       E                     dE             d eps       ncg     rms          rms(c)
DAV:   1    -0.850550471609E+03    0.11679E-02   -0.19333E-01  4740   0.880E-01    0.750E-02
DAV:   2    -0.850550838221E+03   -0.36661E-03   -0.43762E-03  4700   0.124E-01    0.489E-02
DAV:   3    -0.850550831541E+03    0.66797E-05   -0.46797E-05  5620   0.143E-02    0.381E-02
DAV:   4    -0.850550862098E+03   -0.30557E-04   -0.48204E-05  5180   0.169E-02    0.102E-02
DAV:   5    -0.850550866738E+03   -0.46399E-05   -0.13908E-05  5220   0.680E-03    0.581E-03
DAV:   6    -0.850550866529E+03    0.20834E-06   -0.24516E-06  4180   0.423E-03
  88 F= -.85851745E+03 E0= -.85851745E+03  d E =0.845152E-03  mag=    -0.0000
       N       E                     dE             d eps       ncg     rms          rms(c)
DAV:   1    -0.850549389342E+03    0.14774E-02   -0.29409E-01  4760   0.108E+00    0.918E-02
DAV:   2    -0.850549946742E+03   -0.55740E-03   -0.65918E-03  4860   0.151E-01    0.597E-02
DAV:   3    -0.850549936948E+03    0.97943E-05   -0.66690E-05  5600   0.173E-02    0.465E-02
DAV:   4    -0.850549978562E+03   -0.41614E-04   -0.78626E-05  5440   0.213E-02    0.116E-02
DAV:   5    -0.850549984924E+03   -0.63619E-05   -0.20681E-05  5200   0.839E-03    0.690E-03
DAV:   6    -0.850549984676E+03    0.24807E-06   -0.36720E-06  4520   0.519E-03
  89 F= -.85851647E+03 E0= -.85851647E+03  d E =0.975977E-03  mag=     0.0000
       N       E                     dE             d eps       ncg     rms          rms(c)
DAV:   1    -0.850548040139E+03    0.19448E-02   -0.42568E-01  4740   0.130E+00    0.111E-01
DAV:   2    -0.850548851212E+03   -0.81107E-03   -0.95733E-03  4860   0.182E-01    0.729E-02
DAV:   3    -0.850548836562E+03    0.14650E-04   -0.10264E-04  5680   0.213E-02    0.568E-02
DAV:   4    -0.850548887451E+03   -0.50889E-04   -0.12113E-04  5460   0.261E-02    0.148E-02
DAV:   5    -0.850548897541E+03   -0.10090E-04   -0.31391E-05  5320   0.103E-02    0.855E-03
DAV:   6    -0.850548897573E+03   -0.31607E-07   -0.57988E-06  4400   0.632E-03
  90 F= -.85851526E+03 E0= -.85851526E+03  d E =0.120663E-02  mag=    -0.0000
       N       E                     dE             d eps       ncg     rms          rms(c)
DAV:   1    -0.850547045327E+03    0.18522E-02   -0.52177E-01  4760   0.144E+00    0.123E-01
DAV:   2    -0.850548031263E+03   -0.98594E-03   -0.11638E-02  4900   0.201E-01    0.807E-02
DAV:   3    -0.850548012494E+03    0.18769E-04   -0.12334E-04  5600   0.234E-02    0.626E-02
DAV:   4    -0.850548081353E+03   -0.68858E-04   -0.14146E-04  5460   0.284E-02    0.158E-02
DAV:   5    -0.850548092417E+03   -0.11064E-04   -0.36588E-05  5300   0.111E-02    0.903E-03
DAV:   6    -0.850548092345E+03    0.72097E-07   -0.68561E-06  4600   0.694E-03
  91 F= -.85851433E+03 E0= -.85851433E+03  d E =0.937376E-03  mag=     0.0000
       N       E                     dE             d eps       ncg     rms          rms(c)
DAV:   1    -0.850546451855E+03    0.16406E-02   -0.61764E-01  4760   0.157E+00    0.137E-01
DAV:   2    -0.850547606091E+03   -0.11542E-02   -0.13731E-02  4920   0.220E-01    0.913E-02
DAV:   3    -0.850547574191E+03    0.31900E-04   -0.15792E-04  5740   0.264E-02    0.707E-02
DAV:   4    -0.850547657464E+03   -0.83273E-04   -0.18466E-04  5500   0.323E-02    0.186E-02
DAV:   5    -0.850547671919E+03   -0.14455E-04   -0.47559E-05  5280   0.126E-02    0.108E-02
DAV:   6    -0.850547671752E+03    0.16772E-06   -0.96633E-06  4640   0.812E-03
  92 F= -.85851376E+03 E0= -.85851376E+03  d E =0.572320E-03  mag=     0.0000
       N       E                     dE             d eps       ncg     rms          rms(c)
DAV:   1    -0.850546827783E+03    0.84414E-03   -0.71483E-01  4780   0.167E+00    0.151E-01
DAV:   2    -0.850548138076E+03   -0.13103E-02   -0.15797E-02  4880   0.233E-01    0.102E-01
DAV:   3    -0.850548098234E+03    0.39842E-04   -0.18842E-04  5580   0.287E-02    0.790E-02
DAV:   4    -0.850548194537E+03   -0.96303E-04   -0.25993E-04  5500   0.364E-02    0.204E-02
DAV:   5    -0.850548210914E+03   -0.16376E-04   -0.61017E-05  5240   0.141E-02    0.129E-02
DAV:   6    -0.850548210974E+03   -0.59867E-07   -0.13693E-05  4580   0.926E-03    0.590E-03
DAV:   7    -0.850548211846E+03   -0.87258E-06   -0.28988E-06  4260   0.324E-03
  93 F= -.85851411E+03 E0= -.85851411E+03  d E =-.355015E-03  mag=    -0.0000
       N       E                     dE             d eps       ncg     rms          rms(c)
DAV:   1    -0.850548067922E+03    0.14305E-03   -0.89551E-01  4780   0.183E+00    0.177E-01
DAV:   2    -0.850549694337E+03   -0.16264E-02   -0.19806E-02  4900   0.256E-01    0.116E-01
DAV:   3    -0.850549655023E+03    0.39314E-04   -0.23905E-04  5560   0.321E-02    0.896E-02
DAV:   4    -0.850549781144E+03   -0.12612E-03   -0.30649E-04  5540   0.388E-02    0.230E-02
DAV:   5    -0.850549803735E+03   -0.22591E-04   -0.74445E-05  5240   0.153E-02    0.144E-02
DAV:   6    -0.850549802977E+03    0.75767E-06   -0.16985E-05  4540   0.974E-03    0.684E-03
DAV:   7    -0.850549803771E+03   -0.79405E-06   -0.36874E-06  4860   0.361E-03
  94 F= -.85851549E+03 E0= -.85851549E+03  d E =-.137640E-02  mag=    -0.0000
       N       E                     dE             d eps       ncg     rms          rms(c)
DAV:   1    -0.850550108456E+03   -0.30548E-03   -0.11992E+00  4740   0.207E+00    0.210E-01
DAV:   2    -0.850552289529E+03   -0.21811E-02   -0.26544E-02  4880   0.287E-01    0.138E-01
DAV:   3    -0.850552236600E+03    0.52929E-04   -0.32077E-04  5620   0.366E-02    0.107E-01
DAV:   4    -0.850552412969E+03   -0.17637E-03   -0.48175E-04  5380   0.462E-02    0.267E-02
DAV:   5    -0.850552437778E+03   -0.24809E-04   -0.10696E-04  5240   0.180E-02    0.188E-02
DAV:   6    -0.850552435858E+03    0.19197E-05   -0.31933E-05  4680   0.116E-02    0.814E-03
DAV:   7    -0.850552436620E+03   -0.76187E-06   -0.51644E-06  5220   0.410E-03
  95 F= -.85851787E+03 E0= -.85851787E+03  d E =-.238604E-02  mag=     0.0000
       N       E                     dE             d eps       ncg     rms          rms(c)
DAV:   1    -0.850552326938E+03    0.10892E-03   -0.17025E+00  4720   0.242E+00    0.255E-01
DAV:   2    -0.850555497720E+03   -0.31708E-02   -0.38292E-02  4900   0.336E-01    0.170E-01
DAV:   3    -0.850555392217E+03    0.10550E-03   -0.49665E-04  5660   0.435E-02    0.132E-01
DAV:   4    -0.850555592211E+03   -0.19999E-03   -0.81405E-04  5280   0.570E-02    0.345E-02
DAV:   5    -0.850555631481E+03   -0.39269E-04   -0.17619E-04  5240   0.221E-02    0.251E-02
DAV:   6    -0.850555628413E+03    0.30679E-05   -0.60396E-05  5020   0.149E-02    0.103E-02
DAV:   7    -0.850555629556E+03   -0.11435E-05   -0.80460E-06  5320   0.495E-03    0.731E-03
DAV:   8    -0.850555629169E+03    0.38742E-06   -0.29251E-06  3980   0.413E-03
  96 F= -.85852077E+03 E0= -.85852077E+03  d E =-.289704E-02  mag=    -0.0000
       N       E                     dE             d eps       ncg     rms          rms(c)
DAV:   1    -0.850556136586E+03   -0.50703E-03   -0.22761E-02  4660   0.306E-01    0.335E-02
DAV:   2    -0.850556178971E+03   -0.42385E-04   -0.58775E-04  5700   0.447E-02    0.298E-02
DAV:   3    -0.850556169815E+03    0.91567E-05   -0.22655E-05  6080   0.887E-03    0.232E-02
DAV:   4    -0.850556161094E+03    0.87201E-05   -0.19216E-05  4800   0.924E-03    0.101E-02
DAV:   5    -0.850556160924E+03    0.17007E-06   -0.67654E-06  4700   0.475E-03
  97 F= -.85852130E+03 E0= -.85852130E+03  d E =-.535103E-03  mag=    -0.0000
       N       E                     dE             d eps       ncg     rms          rms(c)
DAV:   1    -0.850555598259E+03    0.56284E-03   -0.40958E-02  4660   0.421E-01    0.414E-02
DAV:   2    -0.850555681474E+03   -0.83214E-04   -0.10461E-03  5580   0.615E-02    0.340E-02
DAV:   3    -0.850555671913E+03    0.95611E-05   -0.30084E-05  6120   0.105E-02    0.268E-02
DAV:   4    -0.850555664929E+03    0.69834E-05   -0.23730E-05  4800   0.108E-02    0.116E-02
DAV:   5    -0.850555665829E+03   -0.90010E-06   -0.87214E-06  4900   0.558E-03
  98 F= -.85852081E+03 E0= -.85852081E+03  d E =0.495732E-03  mag=    -0.0000
       N       E                     dE             d eps       ncg     rms          rms(c)
DAV:   1    -0.850555704739E+03   -0.39810E-04   -0.17629E-03  4660   0.857E-02    0.881E-03
DAV:   2    -0.850555708098E+03   -0.33591E-05   -0.46118E-05  5530   0.127E-02    0.723E-03
DAV:   3    -0.850555707615E+03    0.48363E-06   -0.10324E-06  3120   0.217E-03
  99 F= -.85852085E+03 E0= -.85852085E+03  d E =-.397391E-04  mag=     0.0000
       N       E                     dE             d eps       ncg     rms          rms(c)
DAV:   1    -0.850555598286E+03    0.10981E-03   -0.85227E-03  4720   0.186E-01    0.185E-02
DAV:   2    -0.850555615192E+03   -0.16907E-04   -0.20801E-04  5400   0.267E-02    0.144E-02
DAV:   3    -0.850555613994E+03    0.11985E-05   -0.38195E-06  5120   0.394E-03    0.114E-02
DAV:   4    -0.850555613693E+03    0.30128E-06   -0.43938E-06  4400   0.471E-03
 100 F= -.85852075E+03 E0= -.85852075E+03  d E =0.972280E-04  mag=     0.0000
       N       E                     dE             d eps       ncg     rms          rms(c)
DAV:   1    -0.850555128066E+03    0.48593E-03   -0.24299E-02  4740   0.308E-01    0.289E-02
DAV:   2    -0.850555178425E+03   -0.50359E-04   -0.59212E-04  5180   0.441E-02    0.202E-02
DAV:   3    -0.850555176818E+03    0.16065E-05   -0.81122E-06  5780   0.577E-03    0.159E-02
DAV:   4    -0.850555178473E+03   -0.16545E-05   -0.62067E-06  4440   0.592E-03    0.579E-03
DAV:   5    -0.850555179339E+03   -0.86636E-06   -0.25999E-06  4300   0.301E-03
 101 F= -.85852031E+03 E0= -.85852031E+03  d E =0.437956E-03  mag=     0.0000
       N       E                     dE             d eps       ncg     rms          rms(c)
DAV:   1    -0.850554177706E+03    0.10008E-02   -0.55552E-02  4740   0.458E-01    0.420E-02
DAV:   2    -0.850554293068E+03   -0.11536E-03   -0.13353E-03  4860   0.650E-02    0.271E-02
DAV:   3    -0.850554291080E+03    0.19881E-05   -0.14001E-05  5860   0.769E-03    0.213E-02
DAV:   4    -0.850554297203E+03   -0.61231E-05   -0.10574E-05  4600   0.789E-03    0.712E-03
DAV:   5    -0.850554299057E+03   -0.18539E-05   -0.45637E-06  4920   0.388E-03    0.369E-03
DAV:   6    -0.850554298898E+03    0.15913E-06   -0.81005E-07  3280   0.209E-03
 102 F= -.85851943E+03 E0= -.85851943E+03  d E =0.882886E-03  mag=    -0.0000
       N       E                     dE             d eps       ncg     rms          rms(c)
DAV:   1    -0.850552873729E+03    0.14253E-02   -0.97260E-02  4740   0.601E-01    0.541E-02
DAV:   2    -0.850553073179E+03   -0.19945E-03   -0.22943E-03  4800   0.842E-02    0.337E-02
DAV:   3    -0.850553071620E+03    0.15584E-05   -0.20288E-05  5760   0.932E-03    0.266E-02
DAV:   4    -0.850553084386E+03   -0.12765E-04   -0.16126E-05  4660   0.978E-03    0.782E-03
DAV:   5    -0.850553087122E+03   -0.27365E-05   -0.67179E-06  5080   0.459E-03    0.427E-03
DAV:   6    -0.850553086836E+03    0.28576E-06   -0.10696E-06  3770   0.244E-03
 103 F= -.85851822E+03 E0= -.85851822E+03  d E =0.121288E-02  mag=     0.0000
       N       E                     dE             d eps       ncg     rms          rms(c)
DAV:   1    -0.850551329243E+03    0.17579E-02   -0.14801E-01  4740   0.740E-01    0.660E-02
DAV:   2    -0.850551631690E+03   -0.30245E-03   -0.34686E-03  4760   0.103E-01    0.407E-02
DAV:   3    -0.850551629354E+03    0.23360E-05   -0.28884E-05  5700   0.111E-02    0.323E-02
DAV:   4    -0.850551650952E+03   -0.21598E-04   -0.24992E-05  4720   0.120E-02    0.877E-03
DAV:   5    -0.850551654574E+03   -0.36217E-05   -0.95349E-06  5240   0.541E-03    0.511E-03
DAV:   6    -0.850551654152E+03    0.42187E-06   -0.16501E-06  3940   0.302E-03
 104 F= -.85851679E+03 E0= -.85851679E+03  d E =0.143234E-02  mag=     0.0000
       N       E                     dE             d eps       ncg     rms          rms(c)
DAV:   1    -0.850549302858E+03    0.23517E-02   -0.25477E-01  4740   0.972E-01    0.860E-02
DAV:   2    -0.850549824740E+03   -0.52188E-03   -0.59657E-03  4800   0.135E-01    0.533E-02
DAV:   3    -0.850549820026E+03    0.47136E-05   -0.50204E-05  5660   0.146E-02    0.424E-02
DAV:   4    -0.850549856226E+03   -0.36200E-04   -0.47705E-05  4880   0.164E-02    0.114E-02
DAV:   5    -0.850549862051E+03   -0.58250E-05   -0.16805E-05  5260   0.717E-03    0.700E-03
DAV:   6    -0.850549861372E+03    0.67929E-06   -0.34282E-06  4460   0.420E-03
 105 F= -.85851499E+03 E0= -.85851499E+03  d E =0.179178E-02  mag=    -0.0000
       N       E                     dE             d eps       ncg     rms          rms(c)
DAV:   1    -0.850546542418E+03    0.33196E-02   -0.41385E-01  4740   0.124E+00    0.109E-01
DAV:   2    -0.850547392573E+03   -0.85015E-03   -0.96882E-03  4820   0.173E-01    0.679E-02
DAV:   3    -0.850547385406E+03    0.71675E-05   -0.82121E-05  5660   0.186E-02    0.541E-02
DAV:   4    -0.850547441551E+03   -0.56145E-04   -0.84111E-05  5000   0.215E-02    0.144E-02
DAV:   5    -0.850547450825E+03   -0.92741E-05   -0.27354E-05  5320   0.921E-03    0.926E-03
DAV:   6    -0.850547449904E+03    0.92077E-06   -0.65809E-06  4760   0.562E-03
 106 F= -.85851258E+03 E0= -.85851258E+03  d E =0.241172E-02  mag=    -0.0000
       N       E                     dE             d eps       ncg     rms          rms(c)
DAV:   1    -0.850542850032E+03    0.46008E-02   -0.62542E-01  4740   0.153E+00    0.134E-01
DAV:   2    -0.850544133246E+03   -0.12832E-02   -0.14591E-02  4860   0.212E-01    0.831E-02
DAV:   3    -0.850544124230E+03    0.90169E-05   -0.12106E-04  5620   0.227E-02    0.662E-02
DAV:   4    -0.850544210118E+03   -0.85889E-04   -0.13023E-04  5120   0.266E-02    0.171E-02
DAV:   5    -0.850544222002E+03   -0.11883E-04   -0.39266E-05  5340   0.111E-02    0.113E-02
DAV:   6    -0.850544220613E+03    0.13887E-05   -0.10697E-05  4760   0.708E-03    0.495E-03
DAV:   7    -0.850544220890E+03   -0.27685E-06   -0.17221E-06  3720   0.243E-03
 107 F= -.85850935E+03 E0= -.85850935E+03  d E =0.323417E-02  mag=    -0.0000
       N       E                     dE             d eps       ncg     rms          rms(c)
DAV:   1    -0.850538570965E+03    0.56496E-02   -0.87111E-01  4740   0.180E+00    0.157E-01
DAV:   2    -0.850540351496E+03   -0.17805E-02   -0.20257E-02  4860   0.250E-01    0.979E-02
DAV:   3    -0.850540337820E+03    0.13676E-04   -0.16647E-04  5660   0.267E-02    0.779E-02
DAV:   4    -0.850540455041E+03   -0.11722E-03   -0.18099E-04  5320   0.313E-02    0.200E-02
DAV:   5    -0.850540470942E+03   -0.15901E-04   -0.53058E-05  5360   0.129E-02    0.129E-02
DAV:   6    -0.850540468893E+03    0.20493E-05   -0.14900E-05  4800   0.833E-03    0.559E-03
DAV:   7    -0.850540469184E+03   -0.29067E-06   -0.22291E-06  4040   0.274E-03
 108 F= -.85850558E+03 E0= -.85850558E+03  d E =0.376672E-02  mag=     0.0000
       N       E                     dE             d eps       ncg     rms          rms(c)
DAV:   1    -0.850533771764E+03    0.66971E-02   -0.11253E+00  4740   0.206E+00    0.179E-01
DAV:   2    -0.850536074093E+03   -0.23023E-02   -0.26200E-02  4840   0.286E-01    0.112E-01
DAV:   3    -0.850536055411E+03    0.18682E-04   -0.22156E-04  5640   0.307E-02    0.889E-02
DAV:   4    -0.850536196281E+03   -0.14087E-03   -0.23711E-04  5300   0.363E-02    0.228E-02
DAV:   5    -0.850536216120E+03   -0.19838E-04   -0.71097E-05  5340   0.149E-02    0.144E-02
DAV:   6    -0.850536213367E+03    0.27529E-05   -0.17825E-05  4880   0.943E-03    0.637E-03
DAV:   7    -0.850536213769E+03   -0.40226E-06   -0.30274E-06  4500   0.319E-03
 109 F= -.85850130E+03 E0= -.85850130E+03  d E =0.428375E-02  mag=     0.0000
       N       E                     dE             d eps       ncg     rms          rms(c)
DAV:   1    -0.850529196331E+03    0.70170E-02   -0.12641E+00  4740   0.219E+00    0.190E-01
DAV:   2    -0.850531760993E+03   -0.25647E-02   -0.29248E-02  4840   0.304E-01    0.118E-01
DAV:   3    -0.850531742089E+03    0.18904E-04   -0.25340E-04  5600   0.327E-02    0.935E-02
DAV:   4    -0.850531890845E+03   -0.14876E-03   -0.26202E-04  5360   0.386E-02    0.234E-02
DAV:   5    -0.850531913413E+03   -0.22568E-04   -0.79455E-05  5320   0.159E-02    0.143E-02
DAV:   6    -0.850531910290E+03    0.31228E-05   -0.15909E-05  4940   0.967E-03    0.687E-03
DAV:   7    -0.850531910864E+03   -0.57355E-06   -0.38901E-06  4740   0.371E-03
 110 F= -.85849695E+03 E0= -.85849695E+03  d E =0.435107E-02  mag=     0.0000
       N       E                     dE             d eps       ncg     rms          rms(c)
DAV:   1    -0.850532006328E+03   -0.96038E-04   -0.43535E-04  4780   0.422E-02    0.421E-03
DAV:   2    -0.850532007230E+03   -0.90175E-06   -0.10948E-05  5380   0.626E-03    0.340E-03
DAV:   3    -0.850532007140E+03    0.89793E-07   -0.16496E-07  2700   0.922E-04
 111 F= -.85849704E+03 E0= -.85849704E+03  d E =-.939922E-04  mag=     0.0000
       N       E                     dE             d eps       ncg     rms          rms(c)
DAV:   1    -0.850532170977E+03   -0.16375E-03   -0.15527E-03  4740   0.796E-02    0.760E-03
DAV:   2    -0.850532173972E+03   -0.29944E-05   -0.36598E-05  5380   0.114E-02    0.576E-03
DAV:   3    -0.850532173761E+03    0.21093E-06   -0.51134E-07  3120   0.162E-03
 112 F= -.85849720E+03 E0= -.85849720E+03  d E =-.161975E-03  mag=     0.0000
       N       E                     dE             d eps       ncg     rms          rms(c)
DAV:   1    -0.850532365961E+03   -0.19199E-03   -0.29942E-03  4700   0.110E-01    0.105E-02
DAV:   2    -0.850532371608E+03   -0.56469E-05   -0.69319E-05  5380   0.156E-02    0.784E-03
DAV:   3    -0.850532371298E+03    0.31062E-06   -0.90315E-07  3480   0.213E-03
 113 F= -.85849739E+03 E0= -.85849739E+03  d E =-.190384E-03  mag=    -0.0000
       N       E                     dE             d eps       ncg     rms          rms(c)
DAV:   1    -0.850532551853E+03   -0.18025E-03   -0.43921E-03  4700   0.133E-01    0.123E-02
DAV:   2    -0.850532559948E+03   -0.80947E-05   -0.98669E-05  5280   0.187E-02    0.888E-03
DAV:   3    -0.850532559585E+03    0.36355E-06   -0.11707E-06  3780   0.242E-03
 114 F= -.85849757E+03 E0= -.85849757E+03  d E =-.178568E-03  mag=    -0.0000
       N       E                     dE             d eps       ncg     rms          rms(c)
DAV:   1    -0.850532697137E+03   -0.13719E-03   -0.54206E-03  4720   0.148E-01    0.131E-02
DAV:   2    -0.850532706749E+03   -0.96118E-05   -0.11721E-04  5200   0.203E-02    0.913E-03
DAV:   3    -0.850532706418E+03    0.33122E-06   -0.12120E-06  3920   0.249E-03
 115 F= -.85849771E+03 E0= -.85849771E+03  d E =-.135102E-03  mag=    -0.0000
       N       E                     dE             d eps       ncg     rms          rms(c)
DAV:   1    -0.850532781153E+03   -0.74404E-04   -0.64394E-03  4720   0.161E-01    0.138E-02
DAV:   2    -0.850532792396E+03   -0.11244E-04   -0.13658E-04  4960   0.220E-02    0.929E-03
DAV:   3    -0.850532792078E+03    0.31797E-06   -0.12672E-06  4040   0.255E-03
 116 F= -.85849778E+03 E0= -.85849778E+03  d E =-.724295E-04  mag=    -0.0000
       N       E                     dE             d eps       ncg     rms          rms(c)
DAV:   1    -0.850532775167E+03    0.17229E-04   -0.10121E-02  4720   0.202E-01    0.170E-02
DAV:   2    -0.850532793182E+03   -0.18015E-04   -0.21609E-04  4840   0.278E-02    0.113E-02
DAV:   3    -0.850532792748E+03    0.43331E-06   -0.21092E-06  4700   0.318E-03
 117 F= -.85849776E+03 E0= -.85849776E+03  d E =0.152278E-04  mag=    -0.0000
       N       E                     dE             d eps       ncg     rms          rms(c)
DAV:   1    -0.850532649749E+03    0.14343E-03   -0.16779E-02  4720   0.261E-01    0.223E-02
DAV:   2    -0.850532680265E+03   -0.30517E-04   -0.36261E-04  4760   0.361E-02    0.150E-02
DAV:   3    -0.850532679578E+03    0.68765E-06   -0.39425E-06  5300   0.418E-03
[...]
DAV:   4    -0.850498193924E+03   -0.13644E-04   -0.30818E-04  5400   0.405E-02    0.303E-02
DAV:   5    -0.850498216129E+03   -0.22205E-04   -0.99422E-05  5200   0.172E-02    0.146E-02
DAV:   6    -0.850498216535E+03   -0.40579E-06   -0.14823E-05  4940   0.886E-03    0.661E-03
DAV:   7    -0.850498217349E+03   -0.81441E-06   -0.27811E-06  4180   0.315E-03
 217 F= -.85846150E+03 E0= -.85846150E+03  d E =0.168279E-02  mag=     0.0000
       N       E                     dE             d eps       ncg     rms          rms(c)
DAV:   1    -0.850498849923E+03   -0.63339E-03   -0.39307E-02  4640   0.403E-01    0.455E-02
DAV:   2    -0.850498919118E+03   -0.69195E-04   -0.10084E-03  5720   0.591E-02    0.407E-02
DAV:   3    -0.850498899344E+03    0.19774E-04   -0.48734E-05  6200   0.132E-02    0.306E-02
DAV:   4    -0.850498882629E+03    0.16715E-04   -0.35005E-05  4960   0.128E-02    0.133E-02
DAV:   5    -0.850498881805E+03    0.82406E-06   -0.11201E-05  4960   0.620E-03    0.550E-03
DAV:   6    -0.850498881864E+03   -0.58666E-07   -0.11191E-06  3160   0.215E-03
 218 F= -.85846215E+03 E0= -.85846215E+03  d E =-.648332E-03  mag=     0.0000
       N       E                     dE             d eps       ncg     rms          rms(c)
DAV:   1    -0.850498863256E+03    0.18548E-04   -0.13346E-04  4720   0.234E-02    0.296E-03
DAV:   2    -0.850498863441E+03   -0.18490E-06   -0.31169E-06  4140   0.340E-03
 219 F= -.85846213E+03 E0= -.85846213E+03  d E =0.187056E-04  mag=    -0.0000
       N       E                     dE             d eps       ncg     rms          rms(c)
DAV:   1    -0.850498778228E+03    0.85028E-04   -0.76218E-04  4720   0.542E-02    0.658E-03
DAV:   2    -0.850498779301E+03   -0.10729E-05   -0.17128E-05  5360   0.761E-03    0.517E-03
DAV:   3    -0.850498779157E+03    0.14422E-06   -0.41137E-07  2680   0.141E-03
 220 F= -.85846205E+03 E0= -.85846205E+03  d E =0.844404E-04  mag=     0.0000
       N       E                     dE             d eps       ncg     rms          rms(c)
DAV:   1    -0.850498573453E+03    0.20585E-03   -0.25664E-03  4720   0.964E-02    0.104E-02
DAV:   2    -0.850498577680E+03   -0.42273E-05   -0.55786E-05  5040   0.132E-02    0.730E-03
DAV:   3    -0.850498577568E+03    0.11252E-06   -0.82490E-07  3740   0.189E-03
 221 F= -.85846185E+03 E0= -.85846185E+03  d E =0.201197E-03  mag=    -0.0000
       N       E                     dE             d eps       ncg     rms          rms(c)
DAV:   1    -0.850498252880E+03    0.32480E-03   -0.52995E-03  4720   0.137E-01    0.149E-02
DAV:   2    -0.850498261555E+03   -0.86744E-05   -0.11428E-04  4780   0.187E-02    0.101E-02
DAV:   3    -0.850498261569E+03   -0.13977E-07   -0.14971E-06  4220   0.251E-03
 222 F= -.85846153E+03 E0= -.85846153E+03  d E =0.315230E-03  mag=     0.0000
       N       E                     dE             d eps       ncg     rms          rms(c)
DAV:   1    -0.850497828922E+03    0.43263E-03   -0.86990E-03  4720   0.175E-01    0.190E-02
DAV:   2    -0.850497843107E+03   -0.14185E-04   -0.18600E-04  4640   0.237E-02    0.127E-02
DAV:   3    -0.850497843270E+03   -0.16302E-06   -0.21769E-06  4260   0.305E-03
 223 F= -.85846111E+03 E0= -.85846111E+03  d E =0.416706E-03  mag=    -0.0000
       N       E                     dE             d eps       ncg     rms          rms(c)
DAV:   1    -0.850497317828E+03    0.52528E-03   -0.12427E-02  4720   0.210E-01    0.223E-02
DAV:   2    -0.850497338377E+03   -0.20550E-04   -0.26431E-04  4640   0.284E-02    0.149E-02
DAV:   3    -0.850497338557E+03   -0.17964E-06   -0.29586E-06  4640   0.355E-03
 224 F= -.85846061E+03 E0= -.85846061E+03  d E =0.502088E-03  mag=     0.0000
       N       E                     dE             d eps       ncg     rms          rms(c)
DAV:   1    -0.850496653752E+03    0.68462E-03   -0.20332E-02  4720   0.271E-01    0.278E-02
DAV:   2    -0.850496688030E+03   -0.34277E-04   -0.43460E-04  4640   0.367E-02    0.187E-02
DAV:   3    -0.850496688312E+03   -0.28249E-06   -0.48246E-06  5160   0.452E-03
 225 F= -.85845997E+03 E0= -.85845997E+03  d E =0.646243E-03  mag=    -0.0000
       N       E                     dE             d eps       ncg     rms          rms(c)
DAV:   1    -0.850495826255E+03    0.86177E-03   -0.31062E-02  4720   0.336E-01    0.343E-02
DAV:   2    -0.850495878062E+03   -0.51807E-04   -0.65921E-04  4640   0.454E-02    0.233E-02
DAV:   3    -0.850495878296E+03   -0.23424E-06   -0.75213E-06  5540   0.565E-03
 226 F= -.85845916E+03 E0= -.85845916E+03  d E =0.804632E-03  mag=     0.0000
       N       E                     dE             d eps       ncg     rms          rms(c)
DAV:   1    -0.850494853835E+03    0.10242E-02   -0.44344E-02  4720   0.402E-01    0.412E-02
DAV:   2    -0.850494926420E+03   -0.72585E-04   -0.93243E-04  4640   0.543E-02    0.280E-02
DAV:   3    -0.850494927114E+03   -0.69391E-06   -0.10996E-05  5520   0.683E-03    0.217E-02
DAV:   4    -0.850494938083E+03   -0.10969E-04   -0.14086E-05  4460   0.828E-03    0.520E-03
DAV:   5    -0.850494938977E+03   -0.89375E-06   -0.36875E-06  4600   0.336E-03
 227 F= -.85845823E+03 E0= -.85845823E+03  d E =0.932105E-03  mag=    -0.0000
       N       E                     dE             d eps       ncg     rms          rms(c)
DAV:   1    -0.850493760091E+03    0.11780E-02   -0.60057E-02  4720   0.468E-01    0.454E-02
DAV:   2    -0.850493868119E+03   -0.10803E-03   -0.13277E-03  4680   0.649E-02    0.302E-02
DAV:   3    -0.850493866720E+03    0.13988E-05   -0.15608E-05  5580   0.817E-03    0.236E-02
DAV:   4    -0.850493876598E+03   -0.98774E-05   -0.22605E-05  4460   0.103E-02    0.626E-03
DAV:   5    -0.850493877878E+03   -0.12807E-05   -0.55157E-06  5040   0.408E-03    0.447E-03
DAV:   6    -0.850493877777E+03    0.10162E-06   -0.17509E-06  3740   0.273E-03
 228 F= -.85845718E+03 E0= -.85845718E+03  d E =0.105205E-02  mag=     0.0000
       N       E                     dE             d eps       ncg     rms          rms(c)
DAV:   1    -0.850492690222E+03    0.11877E-02   -0.66692E-02  4740   0.491E-01    0.478E-02
DAV:   2    -0.850492805368E+03   -0.11515E-03   -0.14339E-03  4700   0.676E-02    0.323E-02
DAV:   3    -0.850492802841E+03    0.25273E-05   -0.18784E-05  5560   0.899E-03    0.249E-02
DAV:   4    -0.850492811278E+03   -0.84375E-05   -0.23423E-05  4540   0.106E-02    0.673E-03
DAV:   5    -0.850492813027E+03   -0.17486E-05   -0.66178E-06  4980   0.439E-03    0.415E-03
DAV:   6    -0.850492812977E+03    0.49651E-07   -0.12429E-06  3660   0.244E-03
 229 F= -.85845612E+03 E0= -.85845612E+03  d E =0.105585E-02  mag=     0.0000
       N       E                     dE             d eps       ncg     rms          rms(c)
DAV:   1    -0.850492834232E+03   -0.21205E-04   -0.43299E-05  4720   0.134E-02    0.191E-03
DAV:   2    -0.850492834299E+03   -0.66830E-07   -0.10283E-06  2800   0.206E-03
 230 F= -.85845614E+03 E0= -.85845614E+03  d E =-.210442E-04  mag=     0.0000
       N       E                     dE             d eps       ncg     rms          rms(c)
DAV:   1    -0.850492874165E+03   -0.39933E-04   -0.15949E-04  4720   0.258E-02    0.299E-03
DAV:   2    -0.850492874438E+03   -0.27254E-06   -0.37257E-06  4640   0.373E-03
 231 F= -.85845618E+03 E0= -.85845618E+03  d E =-.395890E-04  mag=     0.0000
       N       E                     dE             d eps       ncg     rms          rms(c)
DAV:   1    -0.850492929196E+03   -0.55031E-04   -0.32826E-04  4720   0.369E-02    0.469E-03
DAV:   2    -0.850492929689E+03   -0.49270E-06   -0.75221E-06  5400   0.524E-03
 232 F= -.85845624E+03 E0= -.85845624E+03  d E =-.545948E-04  mag=     0.0000
       N       E                     dE             d eps       ncg     rms          rms(c)
DAV:   1    -0.850492995437E+03   -0.66241E-04   -0.50939E-04  4720   0.457E-02    0.620E-03
DAV:   2    -0.850492996109E+03   -0.67239E-06   -0.11237E-05  5340   0.641E-03    0.506E-03
DAV:   3    -0.850492996063E+03    0.46341E-07   -0.22505E-07  2700   0.113E-03
 233 F= -.85845630E+03 E0= -.85845630E+03  d E =-.656558E-04  mag=     0.0000
       N       E                     dE             d eps       ncg     rms          rms(c)
DAV:   1    -0.850493068521E+03   -0.72412E-04   -0.67187E-04  4720   0.524E-02    0.507E-03
DAV:   2    -0.850493069653E+03   -0.11319E-05   -0.14000E-05  5200   0.710E-03    0.372E-03
DAV:   3    -0.850493069635E+03    0.18372E-07   -0.15683E-07  2700   0.931E-04
 234 F= -.85845637E+03 E0= -.85845637E+03  d E =-.730386E-04  mag=    -0.0000
       N       E                     dE             d eps       ncg     rms          rms(c)
DAV:   1    -0.850493143238E+03   -0.73585E-04   -0.82764E-04  4720   0.584E-02    0.538E-03
DAV:   2    -0.850493144645E+03   -0.14063E-05   -0.17384E-05  4980   0.797E-03    0.396E-03
DAV:   3    -0.850493144607E+03    0.37791E-07   -0.19305E-07  3000   0.104E-03
 235 F= -.85845645E+03 E0= -.85845645E+03  d E =-.747063E-04  mag=    -0.0000
       N       E                     dE             d eps       ncg     rms          rms(c)
DAV:   1    -0.850493219557E+03   -0.74913E-04   -0.11679E-03  4720   0.695E-02    0.626E-03
DAV:   2    -0.850493221495E+03   -0.19383E-05   -0.24012E-05  4840   0.945E-03    0.472E-03
DAV:   3    -0.850493221432E+03    0.63970E-07   -0.27981E-07  3120   0.125E-03
 236 F= -.85845653E+03 E0= -.85845653E+03  d E =-.768840E-04  mag=     0.0000
       N       E                     dE             d eps       ncg     rms          rms(c)
DAV:   1    -0.850493284047E+03   -0.62551E-04   -0.15876E-03  4720   0.811E-02    0.731E-03
DAV:   2    -0.850493286551E+03   -0.25041E-05   -0.31716E-05  4740   0.110E-02    0.571E-03
DAV:   3    -0.850493286431E+03    0.12034E-06   -0.41651E-07  3370   0.151E-03
 237 F= -.85845659E+03 E0= -.85845659E+03  d E =-.655888E-04  mag=    -0.0000
       N       E                     dE             d eps       ncg     rms          rms(c)
DAV:   1    -0.850493317726E+03   -0.31175E-04   -0.21134E-03  4720   0.928E-02    0.847E-03
DAV:   2    -0.850493320778E+03   -0.30514E-05   -0.39989E-05  4680   0.124E-02    0.686E-03
DAV:   3    -0.850493320566E+03    0.21209E-06   -0.60523E-07  3600   0.181E-03
 238 F= -.85845663E+03 E0= -.85845663E+03  d E =-.350785E-04  mag=    -0.0000
       N       E                     dE             d eps       ncg     rms          rms(c)
DAV:   1    -0.850493295291E+03    0.25487E-04   -0.28811E-03  4720   0.107E-01    0.101E-02
DAV:   2    -0.850493299034E+03   -0.37432E-05   -0.51164E-05  4660   0.140E-02    0.829E-03
DAV:   3    -0.850493298703E+03    0.33111E-06   -0.90572E-07  3900   0.218E-03
 239 F= -.85845661E+03 E0= -.85845661E+03  d E =0.208242E-04  mag=    -0.0000
       N       E                     dE             d eps       ncg     rms          rms(c)
DAV:   1    -0.850493185540E+03    0.11349E-03   -0.43199E-03  4720   0.129E-01    0.126E-02
DAV:   2    -0.850493190870E+03   -0.53302E-05   -0.74715E-05  4640   0.167E-02    0.103E-02
DAV:   3    -0.850493190376E+03    0.49444E-06   -0.14711E-06  4160   0.270E-03
 240 F= -.85845650E+03 E0= -.85845650E+03  d E =0.106817E-03  mag=    -0.0000
       N       E                     dE             d eps       ncg     rms          rms(c)
DAV:   1    -0.850492947551E+03    0.24332E-03   -0.74111E-03  4740   0.168E-01    0.168E-02
DAV:   2    -0.850492956852E+03   -0.93002E-05   -0.13120E-04  4640   0.217E-02    0.133E-02
DAV:   3    -0.850492956218E+03    0.63370E-06   -0.25376E-06  4480   0.345E-03
 241 F= -.85845627E+03 E0= -.85845627E+03  d E =0.231614E-03  mag=    -0.0000
       N       E                     dE             d eps       ncg     rms          rms(c)
DAV:   1    -0.850492527198E+03    0.42965E-03   -0.14180E-02  4720   0.231E-01    0.232E-02
DAV:   2    -0.850492546641E+03   -0.19443E-04   -0.26704E-04  4640   0.304E-02    0.176E-02
DAV:   3    -0.850492545875E+03    0.76660E-06   -0.45686E-06  5220   0.454E-03
 242 F= -.85845586E+03 E0= -.85845586E+03  d E =0.405190E-03  mag=    -0.0000
       N       E                     dE             d eps       ncg     rms          rms(c)
DAV:   1    -0.850491863750E+03    0.68289E-03   -0.27313E-02  4720   0.319E-01    0.324E-02
DAV:   2    -0.850491902968E+03   -0.39218E-04   -0.53327E-04  4640   0.423E-02    0.238E-02
DAV:   3    -0.850491902044E+03    0.92423E-06   -0.82637E-06  5420   0.607E-03
 243 F= -.85845523E+03 E0= -.85845523E+03  d E =0.632778E-03  mag=     0.0000
       N       E                     dE             d eps       ncg     rms          rms(c)
DAV:   1    -0.850490908281E+03    0.99469E-03   -0.49350E-02  4720   0.426E-01    0.439E-02
DAV:   2    -0.850490981404E+03   -0.73122E-04   -0.98312E-04  4640   0.567E-02    0.317E-02
DAV:   3    -0.850490980096E+03    0.13077E-05   -0.14553E-05  5580   0.798E-03    0.241E-02
DAV:   4    -0.850490989914E+03   -0.98185E-05   -0.17879E-05  4420   0.944E-03    0.601E-03
DAV:   5    -0.850490991226E+03   -0.13111E-05   -0.55731E-06  4900   0.391E-03    0.354E-03
DAV:   6    -0.850490991134E+03    0.91699E-07   -0.10171E-06  3480   0.211E-03
 244 F= -.85845434E+03 E0= -.85845434E+03  d E =0.891969E-03  mag=     0.0000
       N       E                     dE             d eps       ncg     rms          rms(c)
DAV:   1    -0.850489660201E+03    0.13310E-02   -0.82621E-02  4800   0.550E-01    0.528E-02
DAV:   2    -0.850489798244E+03   -0.13804E-03   -0.17482E-03  4640   0.753E-02    0.369E-02
DAV:   3    -0.850489793095E+03    0.51490E-05   -0.23865E-05  5640   0.102E-02    0.285E-02
DAV:   4    -0.850489803295E+03   -0.10200E-04   -0.33314E-05  4520   0.126E-02    0.771E-03
DAV:   5    -0.850489805166E+03   -0.18701E-05   -0.87070E-06  5300   0.503E-03    0.469E-03
DAV:   6    -0.850489805128E+03    0.37566E-07   -0.18743E-06  3740   0.299E-03
 245 F= -.85845318E+03 E0= -.85845318E+03  d E =0.115881E-02  mag=    -0.0000
       N       E                     dE             d eps       ncg     rms          rms(c)
DAV:   1    -0.850488218650E+03    0.15865E-02   -0.11840E-01  4800   0.665E-01    0.624E-02
DAV:   2    -0.850488418505E+03   -0.19985E-03   -0.25192E-03  4640   0.913E-02    0.439E-02
DAV:   3    -0.850488411188E+03    0.73171E-05   -0.33525E-05  5660   0.122E-02    0.340E-02
DAV:   4    -0.850488426639E+03   -0.15452E-04   -0.50118E-05  4860   0.156E-02    0.912E-03
DAV:   5    -0.850488429053E+03   -0.24141E-05   -0.12311E-05  5280   0.615E-03    0.566E-03
DAV:   6    -0.850488429102E+03   -0.48138E-07   -0.28056E-06  3860   0.370E-03
 246 F= -.85845184E+03 E0= -.85845184E+03  d E =0.134402E-02  mag=    -0.0000
       N       E                     dE             d eps       ncg     rms          rms(c)
DAV:   1    -0.850486917535E+03    0.15115E-02   -0.13525E-01  4800   0.720E-01    0.662E-02
DAV:   2    -0.850487140635E+03   -0.22310E-03   -0.28429E-03  4640   0.994E-02    0.478E-02
DAV:   3    -0.850487130938E+03    0.96975E-05   -0.40535E-05  5720   0.135E-02    0.369E-02
DAV:   4    -0.850487147965E+03   -0.17027E-04   -0.60018E-05  5040   0.173E-02    0.101E-02
DAV:   5    -0.850487150650E+03   -0.26847E-05   -0.14966E-05  5240   0.690E-03    0.605E-03
DAV:   6    -0.850487150820E+03   -0.17059E-06   -0.31191E-06  4060   0.403E-03
 247 F= -.85845060E+03 E0= -.85845060E+03  d E =0.123631E-02  mag=    -0.0000
       N       E                     dE             d eps       ncg     rms          rms(c)
DAV:   1    -0.850487221657E+03   -0.71008E-04   -0.31084E-04  4720   0.355E-02    0.359E-03
DAV:   2    -0.850487222234E+03   -0.57631E-06   -0.73543E-06  5140   0.511E-03
 248 F= -.85845067E+03 E0= -.85845067E+03  d E =-.702376E-04  mag=    -0.0000
       N       E                     dE             d eps       ncg     rms          rms(c)
DAV:   1    -0.850487339192E+03   -0.11753E-03   -0.98535E-04  4720   0.634E-02    0.695E-03
DAV:   2    -0.850487340724E+03   -0.15313E-05   -0.22478E-05  5300   0.891E-03    0.547E-03
DAV:   3    -0.850487340580E+03    0.14349E-06   -0.34696E-07  2820   0.137E-03
 249 F= -.85845079E+03 E0= -.85845079E+03  d E =-.116395E-03  mag=     0.0000
       N       E                     dE             d eps       ncg     rms          rms(c)
DAV:   1    -0.850487480816E+03   -0.14009E-03   -0.16980E-03  4720   0.836E-02    0.803E-03
DAV:   2    -0.850487483684E+03   -0.28685E-05   -0.36816E-05  5280   0.114E-02    0.573E-03
DAV:   3    -0.850487483611E+03    0.73160E-07   -0.39113E-07  3160   0.147E-03
 250 F= -.85845093E+03 E0= -.85845093E+03  d E =-.141164E-03  mag=    -0.0000
       N       E                     dE             d eps       ncg     rms          rms(c)
DAV:   1    -0.850487630917E+03   -0.14723E-03   -0.24401E-03  4720   0.100E-01    0.913E-03
DAV:   2    -0.850487635182E+03   -0.42654E-05   -0.53220E-05  5000   0.138E-02    0.641E-03
DAV:   3    -0.850487635092E+03    0.90411E-07   -0.52566E-07  3500   0.171E-03
 251 F= -.85845108E+03 E0= -.85845108E+03  d E =-.150154E-03  mag=    -0.0000
       N       E                     dE             d eps       ncg     rms          rms(c)
DAV:   1    -0.850487740139E+03   -0.10496E-03   -0.27190E-03  4720   0.107E-01    0.953E-03
DAV:   2    -0.850487744779E+03   -0.46392E-05   -0.58077E-05  4940   0.147E-02    0.696E-03
DAV:   3    -0.850487744615E+03    0.16375E-06   -0.63935E-07  3620   0.188E-03
 252 F= -.85845119E+03 E0= -.85845119E+03  d E =-.109751E-03  mag=     0.0000
       N       E                     dE             d eps       ncg     rms          rms(c)
DAV:   1    -0.850487757300E+03   -0.12521E-04   -0.29702E-03  4720   0.111E-01    0.100E-02
DAV:   2    -0.850487762082E+03   -0.47825E-05   -0.61397E-05  4720   0.153E-02    0.761E-03
DAV:   3    -0.850487761847E+03    0.23556E-06   -0.76143E-07  3780   0.203E-03
 253 F= -.85845121E+03 E0= -.85845121E+03  d E =-.193160E-04  mag=    -0.0000
       N       E                     dE             d eps       ncg     rms          rms(c)
DAV:   1    -0.850487676274E+03    0.85808E-04   -0.46575E-03  4720   0.138E-01    0.126E-02
DAV:   2    -0.850487683522E+03   -0.72475E-05   -0.95447E-05  4640   0.189E-02    0.951E-03
DAV:   3    -0.850487683202E+03    0.31937E-06   -0.11902E-06  3880   0.252E-03
 254 F= -.85845113E+03 E0= -.85845113E+03  d E =0.743228E-04  mag=     0.0000
       N       E                     dE             d eps       ncg     rms          rms(c)
DAV:   1    -0.850487495739E+03    0.18778E-03   -0.75763E-03  4720   0.174E-01    0.162E-02
DAV:   2    -0.850487507150E+03   -0.11411E-04   -0.15346E-04  4640   0.237E-02    0.121E-02
DAV:   3    -0.850487506814E+03    0.33600E-06   -0.19596E-06  4280   0.314E-03
 255 F= -.85845096E+03 E0= -.85845096E+03  d E =0.169403E-03  mag=     0.0000
       N       E                     dE             d eps       ncg     rms          rms(c)
DAV:   1    -0.850487220671E+03    0.28648E-03   -0.12311E-02  4760   0.221E-01    0.210E-02
DAV:   2    -0.850487238911E+03   -0.18239E-04   -0.24878E-04  4640   0.300E-02    0.156E-02
DAV:   3    -0.850487238516E+03    0.39460E-06   -0.34978E-06  5060   0.403E-03
 256 F= -.85845070E+03 E0= -.85845070E+03  d E =0.258127E-03  mag=     0.0000
       N       E                     dE             d eps       ncg     rms          rms(c)
DAV:   1    -0.850486876601E+03    0.36231E-03   -0.19353E-02  4720   0.276E-01    0.266E-02
DAV:   2    -0.850486904709E+03   -0.28108E-04   -0.39061E-04  4640   0.376E-02    0.198E-02
DAV:   3    -0.850486904190E+03    0.51891E-06   -0.57537E-06  5460   0.511E-03
 257 F= -.85845038E+03 E0= -.85845038E+03  d E =0.321223E-03  mag=    -0.0000
       N       E                     dE             d eps       ncg     rms          rms(c)
DAV:   1    -0.850486536650E+03    0.36806E-03   -0.27899E-02  4720   0.333E-01    0.323E-02
DAV:   2    -0.850486575781E+03   -0.39130E-04   -0.55703E-04  4640   0.453E-02    0.243E-02
DAV:   3    -0.850486574972E+03    0.80899E-06   -0.87658E-06  5640   0.631E-03
 258 F= -.85845007E+03 E0= -.85845007E+03  d E =0.314218E-03  mag=     0.0000
