unknown system                          
           1
    17.271038    0.000000    0.000000
    -8.635519   14.957158    0.000000
     0.000000    0.000000   15.000000
   C    F    H    O 
    88     8     2     1
Direct configuration=     1
   0.99869262  0.99914918  0.50422593
   0.99794100  0.14156315  0.50558259
   0.99732104  0.28415604  0.50249703
   0.99708106  0.42718641  0.49676505
   0.99740988  0.57036463  0.49509684
   0.99885735  0.71360363  0.49505063
   0.99956751  0.85685872  0.49878176
   0.14170810  0.99941944  0.51188290
   0.14083189  0.14175088  0.52044250
   0.13955748  0.28371893  0.52011294
   0.13885540  0.42671319  0.51121798
   0.13985818  0.56987867  0.50334237
   0.14075580  0.71307735  0.50578638
   0.14149192  0.85627602  0.50720336
   0.28418624  0.99876950  0.51097050
   0.28452178  0.14171004  0.52106349
   0.28375583  0.28476777  0.53631194
   0.28008669  0.42657293  0.52965815
   0.28229548  0.56950713  0.51064506
   0.28316503  0.71344806  0.50736484
   0.28390655  0.85615231  0.50714191
   0.42701552  0.99858093  0.50269486
   0.42696473  0.14107737  0.50954762
   0.42539755  0.27480420  0.54964283
   0.42067430  0.71484386  0.47769583
   0.42661060  0.85566613  0.50029449
   0.56960828  0.99856569  0.49095572
   0.56977627  0.14120765  0.49713221
   0.57056539  0.28445170  0.50129004
   0.57023287  0.85587176  0.48764407
   0.71293846  0.99913317  0.48484195
   0.71260083  0.14176641  0.48935461
   0.71239737  0.28476711  0.48656344
   0.71167917  0.42720118  0.46776708
   0.72735043  0.57775480  0.42369947
   0.72592257  0.72254175  0.43485989
   0.71441003  0.85720661  0.47800765
   0.85646172  0.99961866  0.48821085
   0.85532130  0.14175780  0.49210113
   0.85497324  0.28448131  0.49003220
   0.85489844  0.42750006  0.48316351
   0.85596056  0.57128716  0.47604337
   0.85918053  0.71557601  0.47197882
   0.85777713  0.85713189  0.48379346
   0.04591681  0.09427433  0.51068714
   0.04474034  0.23640305  0.50948646
   0.04401850  0.37925099  0.50381687
   0.04480752  0.52246705  0.49851857
   0.04562486  0.66559284  0.49937491
   0.04650830  0.80875667  0.50099014
   0.04652447  0.95169687  0.50623749
   0.18906258  0.09436652  0.51790565
   0.18766288  0.23662342  0.52795502
   0.18532883  0.37865561  0.52079590
   0.18665929  0.52165962  0.50690340
   0.18784099  0.66537456  0.50719566
   0.18877517  0.80849293  0.50765336
   0.18911767  0.95144769  0.51056365
   0.33186175  0.09394287  0.51459818
   0.33259518  0.23623976  0.53635873
   0.32517474  0.37756738  0.53117851
   0.32409566  0.52075381  0.53101097
   0.33018450  0.66561145  0.50060304
   0.33142411  0.80847206  0.50503355
   0.33168780  0.95120091  0.50714532
   0.47467974  0.09368259  0.50151802
   0.47535456  0.23584221  0.51919701
   0.47372755  0.80779237  0.48986980
   0.47465414  0.95104932  0.49870778
   0.61725866  0.09374842  0.49181187
   0.61764254  0.23660625  0.49497785
   0.61877503  0.37625844  0.48023585
   0.62255487  0.81456003  0.49448536
   0.61764463  0.95128619  0.48533680
   0.76031640  0.09436485  0.48846131
   0.76001841  0.23692105  0.48820674
   0.75966363  0.37990734  0.47894754
   0.76179131  0.52445421  0.45518152
   0.76887883  0.67104698  0.44106401
   0.76353457  0.80985656  0.46744355
   0.76137065  0.95240568  0.48085881
   0.90316649  0.09418249  0.49503898
   0.90247167  0.23679006  0.49468786
   0.90210613  0.37983239  0.48980503
   0.90249381  0.52304354  0.48579722
   0.90448525  0.66643632  0.48138006
   0.90524215  0.80972255  0.48566917
   0.90406453  0.95181710  0.49340778
   0.46967734  0.34941727  0.60065439
   0.41413185  0.42568577  0.51562081
   0.41024249  0.56521367  0.55946229
   0.64502029  0.68645506  0.39541674
   0.65370364  0.54104850  0.37214185
   0.56990237  0.41696990  0.47146280
   0.58410469  0.73065950  0.52788850
   0.45623741  0.67092860  0.43457805
   0.54643892  0.59317695  0.52099107
   0.55116491  0.51160291  0.55311702
   0.58860603  0.57331564  0.53513977
Direct configuration=     2
   0.99869836  0.99915433  0.50421853
   0.99794345  0.14155993  0.50558033
   0.99731987  0.28414597  0.50249739
   0.99707044  0.42717455  0.49676589
   0.99740175  0.57035918  0.49509881
   0.99885565  0.71359948  0.49504666
   0.99956913  0.85685407  0.49877722
   0.14170201  0.99942053  0.51188439
   0.14082125  0.14174209  0.52043571
   0.13955098  0.28371464  0.52010878
   0.13885333  0.42670380  0.51121985
   0.13985364  0.56987303  0.50334572
   0.14075395  0.71308395  0.50578706
   0.14148448  0.85627176  0.50720359
   0.28417801  0.99876580  0.51097619
   0.28451083  0.14170671  0.52107168
   0.28374741  0.28476812  0.53631527
   0.28007454  0.42658628  0.52966239
   0.28230946  0.56949184  0.51064895
   0.28317377  0.71345934  0.50736860
   0.28390493  0.85615102  0.50714480
   0.42701398  0.99857667  0.50269917
   0.42695617  0.14106885  0.50955521
   0.42538708  0.27480635  0.54963439
   0.42067666  0.71484797  0.47768803
   0.42661672  0.85567467  0.50029126
   0.56959584  0.99856031  0.49094770
   0.56977340  0.14120952  0.49713414
   0.57056390  0.28444764  0.50129020
   0.57024278  0.85587079  0.48763753
   0.71293730  0.99912425  0.48483264
   0.71260070  0.14177170  0.48935041
   0.71239691  0.28477177  0.48656378
   0.71167845  0.42719745  0.46776296
   0.72734597  0.57774842  0.42368644
   0.72591185  0.72251640  0.43483353
   0.71442778  0.85720033  0.47798804
   0.85647195  0.99962051  0.48820417
   0.85533770  0.14176319  0.49209905
   0.85497705  0.28448229  0.49002835
   0.85489810  0.42749294  0.48316208
   0.85595936  0.57128624  0.47603743
   0.85917546  0.71556433  0.47196504
   0.85778097  0.85712655  0.48377616
   0.04593021  0.09428128  0.51068536
   0.04475522  0.23641710  0.50948626
   0.04402980  0.37926778  0.50381923
   0.04482178  0.52247602  0.49852253
   0.04563063  0.66558948  0.49937400
   0.04651194  0.80876210  0.50099044
   0.04652598  0.95170100  0.50623419
   0.18907264  0.09436748  0.51790933
   0.18768196  0.23663415  0.52794884
   0.18533397  0.37866065  0.52079532
   0.18666028  0.52167154  0.50690540
   0.18785022  0.66536736  0.50720166
   0.18878306  0.80849164  0.50765061
   0.18912583  0.95144934  0.51056791
   0.33187444  0.09394137  0.51460546
   0.33260171  0.23623763  0.53635946
   0.32517251  0.37754497  0.53120292
   0.32408847  0.52075762  0.53100482
   0.33018648  0.66561654  0.50060027
   0.33142017  0.80846070  0.50503330
   0.33168570  0.95120066  0.50715139
   0.47468054  0.09368487  0.50152354
   0.47535935  0.23584374  0.51919698
   0.47373082  0.80778978  0.48985906
   0.47466243  0.95105102  0.49870517
   0.61726537  0.09375374  0.49180617
   0.61763707  0.23660373  0.49497987
   0.61877168  0.37625826  0.48023015
   0.62253267  0.81455589  0.49448063
   0.61764618  0.95128293  0.48532939
   0.76031251  0.09437273  0.48845651
   0.76002127  0.23691987  0.48820416
   0.75966351  0.37991351  0.47894629
   0.76179516  0.52445390  0.45517713
   0.76888291  0.67106023  0.44105200
   0.76353434  0.80987930  0.46743218
   0.76136106  0.95241268  0.48084576
   0.90315720  0.09418851  0.49503302
   0.90247005  0.23679363  0.49468536
   0.90211213  0.37984177  0.48980347
   0.90250088  0.52304985  0.48579674
   0.90448568  0.66643558  0.48137481
   0.90524124  0.80973339  0.48565626
   0.90405782  0.95181938  0.49339503
   0.46965229  0.34943046  0.60062081
   0.41412141  0.42569123  0.51569000
   0.41025709  0.56520927  0.55944909
   0.64501388  0.68645383  0.39540161
   0.65370602  0.54104599  0.37213592
   0.56990075  0.41696728  0.47145491
   0.58410526  0.73065501  0.52790132
   0.45623799  0.67093211  0.43456647
   0.54644965  0.59317429  0.52098940
   0.55113520  0.51156639  0.55312843
   0.58859383  0.57333217  0.53561673
Direct configuration=     3
   0.99870016  0.99915850  0.50420703
   0.99794850  0.14156611  0.50557689
   0.99732391  0.28415322  0.50249878
   0.99707582  0.42718143  0.49676828
   0.99740677  0.57035620  0.49510172
   0.99885657  0.71359954  0.49504181
   0.99956980  0.85685599  0.49877028
   0.14170554  0.99942223  0.51188721
   0.14083339  0.14175050  0.52043060
   0.13956376  0.28371998  0.52010476
   0.13885894  0.42671427  0.51122094
   0.13985988  0.56987646  0.50335160
   0.14076314  0.71308054  0.50578851
   0.14148859  0.85627159  0.50720461
   0.28418162  0.99876475  0.51098347
   0.28451567  0.14170418  0.52108274
   0.28374765  0.28475883  0.53632225
   0.28006969  0.42658331  0.52967134
   0.28231325  0.56950028  0.51064548
   0.28317796  0.71345728  0.50737320
   0.28390825  0.85614811  0.50714747
   0.42701501  0.99857555  0.50270549
   0.42695804  0.14106779  0.50956684
   0.42538305  0.27480706  0.54962039
   0.42067674  0.71485096  0.47767619
   0.42662147  0.85567364  0.50028595
   0.56959840  0.99856090  0.49093491
   0.56977226  0.14120812  0.49713584
   0.57056122  0.28444614  0.50128851
   0.57024069  0.85586789  0.48762679
   0.71293149  0.99912724  0.48481957
   0.71260125  0.14177564  0.48934399
   0.71239581  0.28477416  0.48656446
   0.71167455  0.42719509  0.46775674
   0.72735187  0.57774735  0.42367586
   0.72591097  0.72252090  0.43481048
   0.71441929  0.85719976  0.47796888
   0.85646796  0.99962415  0.48819198
   0.85533591  0.14176924  0.49209434
   0.85497949  0.28448665  0.49002267
   0.85490034  0.42749625  0.48316029
   0.85596254  0.57128547  0.47603008
   0.85917848  0.71556870  0.47194818
   0.85777975  0.85713315  0.48375003
   0.04593141  0.09428141  0.51068018
   0.04475872  0.23641443  0.50948486
   0.04402871  0.37925947  0.50382185
   0.04481817  0.52247110  0.49852708
   0.04562930  0.66558689  0.49937217
   0.04650917  0.80875694  0.50099032
   0.04652275  0.95170155  0.50622921
   0.18906916  0.09436419  0.51791318
   0.18768045  0.23663190  0.52793743
   0.18533280  0.37865971  0.52079428
   0.18666489  0.52166740  0.50691013
   0.18785372  0.66536931  0.50720968
   0.18878382  0.80849321  0.50764720
   0.18911794  0.95144444  0.51057307
   0.33187136  0.09393619  0.51461768
   0.33259357  0.23622944  0.53635896
   0.32516045  0.37755025  0.53123842
   0.32410006  0.52075579  0.53100484
   0.33019318  0.66561678  0.50059652
   0.33142560  0.80846679  0.50503266
   0.33168209  0.95119730  0.50716034
   0.47467744  0.09368000  0.50153194
   0.47535659  0.23584253  0.51919935
   0.47373633  0.80779395  0.48984510
   0.47466085  0.95105108  0.49870291
   0.61726321  0.09375511  0.49179830
   0.61763633  0.23660448  0.49498263
   0.61877133  0.37625599  0.48022289
   0.62253660  0.81454912  0.49447183
   0.61764618  0.95128116  0.48531736
   0.76031759  0.09437855  0.48844924
   0.76002674  0.23692800  0.48820025
   0.75966431  0.37991570  0.47894510
   0.76179456  0.52445352  0.45516748
   0.76887963  0.67105565  0.44102928
   0.76353586  0.80987102  0.46740036
   0.76136707  0.95241198  0.48082819
   0.90316464  0.09419322  0.49502626
   0.90247719  0.23679736  0.49468244
   0.90211065  0.37984079  0.48980095
   0.90249888  0.52304822  0.48579482
   0.90448415  0.66643177  0.48136592
   0.90524195  0.80972797  0.48563612
   0.90406275  0.95182335  0.49337773
   0.46961771  0.34945214  0.60057355
   0.41410755  0.42569843  0.51578662
   0.41027093  0.56520203  0.55942752
   0.64499973  0.68644447  0.39537864
   0.65370281  0.54104245  0.37212617
   0.56989625  0.41696580  0.47144241
   0.58410838  0.73065826  0.52791594
   0.45623955  0.67093669  0.43454816
   0.54650438  0.59314818  0.52100363
   0.55104586  0.51144053  0.55316611
   0.58858489  0.57344924  0.53628445
Direct configuration=     4
   0.99869817  0.99916084  0.50419140
   0.99795549  0.14157775  0.50557158
   0.99733323  0.28416986  0.50250088
   0.99709172  0.42719741  0.49677179
   0.99741908  0.57035771  0.49510586
   0.99885823  0.71360111  0.49503581
   0.99956870  0.85686178  0.49876044
   0.14171210  0.99942130  0.51189126
   0.14085743  0.14176761  0.52042566
   0.13958629  0.28373080  0.52009968
   0.13886727  0.42673296  0.51122151
   0.13987292  0.56988437  0.50336017
   0.14077607  0.71307055  0.50579027
   0.14149836  0.85627303  0.50720616
   0.28419000  0.99876292  0.51099305
   0.28452809  0.14169905  0.52109505
   0.28375405  0.28474746  0.53633302
   0.28007040  0.42656736  0.52968720
   0.28231088  0.56952176  0.51063888
   0.28317979  0.71344668  0.50737827
   0.28391415  0.85614575  0.50714984
   0.42701541  0.99857588  0.50271416
   0.42696718  0.14107196  0.50958275
   0.42538226  0.27480627  0.54960045
   0.42067753  0.71485292  0.47765962
   0.42662425  0.85566601  0.50027847
   0.56961266  0.99856689  0.49091797
   0.56977206  0.14120433  0.49713719
   0.57055753  0.28444826  0.50128454
   0.57023311  0.85586386  0.48761274
   0.71292986  0.99914070  0.48480312
   0.71260371  0.14177976  0.48933497
   0.71239693  0.28477557  0.48656420
   0.71167004  0.42719619  0.46774768
   0.72736689  0.57775239  0.42366706
   0.72591776  0.72254566  0.43478719
   0.71439412  0.85720285  0.47794798
   0.85645699  0.99963030  0.48817381
   0.85532271  0.14177487  0.49208675
   0.85498216  0.28449326  0.49001525
   0.85490316  0.42750585  0.48315729
   0.85596729  0.57128428  0.47602073
   0.85918593  0.71558253  0.47192800
   0.85777809  0.85714575  0.48371650
   0.04592314  0.09427996  0.51067188
   0.04475466  0.23640264  0.50948213
   0.04401999  0.37924239  0.50382332
   0.04480559  0.52245837  0.49853251
   0.04562609  0.66558595  0.49936988
   0.04650345  0.80874757  0.50098873
   0.04652015  0.95169946  0.50622210
   0.18905919  0.09436026  0.51791770
   0.18766579  0.23662003  0.52792346
   0.18532639  0.37865648  0.52079294
   0.18667394  0.52165646  0.50691714
   0.18785433  0.66537766  0.50721946
   0.18877995  0.80849432  0.50764381
   0.18910449  0.95143871  0.51058020
   0.33185839  0.09393119  0.51463369
   0.33257659  0.23621758  0.53635731
   0.32513343  0.37756705  0.53128845
   0.32412623  0.52075454  0.53101022
   0.33020266  0.66561425  0.50059208
   0.33143904  0.80848325  0.50503199
   0.33168072  0.95119195  0.50717176
   0.47467277  0.09367089  0.50154323
   0.47534794  0.23584000  0.51920364
   0.47374138  0.80780213  0.48982845
   0.47465313  0.95104954  0.49870031
   0.61725473  0.09375242  0.49178802
   0.61763963  0.23660736  0.49498579
   0.61877214  0.37625095  0.48021386
   0.62255881  0.81453997  0.49446035
   0.61764327  0.95128084  0.48530017
   0.76032573  0.09438013  0.48843881
   0.76003101  0.23694149  0.48819484
   0.75966511  0.37991375  0.47894343
   0.76179101  0.52445145  0.45515272
   0.76887303  0.67103788  0.44099798
   0.76353552  0.80984417  0.46735249
   0.76137979  0.95240588  0.48080560
   0.90318293  0.09419672  0.49501934
   0.90248794  0.23680079  0.49467803
   0.90210617  0.37983420  0.48979749
   0.90249242  0.52304065  0.48579169
   0.90448205  0.66642779  0.48135293
   0.90524409  0.80971440  0.48560883
   0.90407320  0.95182802  0.49335729
   0.46958398  0.34948433  0.60052128
   0.41409010  0.42570515  0.51590788
   0.41028288  0.56519194  0.55939761
   0.64497904  0.68642246  0.39535597
   0.65369147  0.54103791  0.37211478
   0.56988861  0.41696699  0.47142337
   0.58411534  0.73067028  0.52793094
   0.45624218  0.67094265  0.43452344
   0.54658496  0.59310396  0.52103033
   0.55091624  0.51126301  0.55321941
   0.58857870  0.57362368  0.53715662
Direct configuration=     5
   0.99869902  0.99916362  0.50417348
   0.99796150  0.14158249  0.50556507
   0.99734227  0.28417508  0.50250302
   0.99709723  0.42719877  0.49677394
   0.99742346  0.57035939  0.49510958
   0.99885661  0.71359969  0.49502807
   0.99956703  0.85686305  0.49874712
   0.14170974  0.99941632  0.51189652
   0.14086218  0.14176930  0.52041590
   0.13959257  0.28373499  0.52009377
   0.13886847  0.42673403  0.51122385
   0.13988049  0.56988547  0.50337018
   0.14077650  0.71306630  0.50579209
   0.14149930  0.85627032  0.50720786
   0.28418815  0.99875651  0.51100659
   0.28452668  0.14168736  0.52110887
   0.28375310  0.28474427  0.53634692
   0.28006508  0.42656008  0.52970920
   0.28231956  0.56952742  0.51063771
   0.28318698  0.71344501  0.50738343
   0.28391750  0.85614580  0.50715239
   0.42701187  0.99857287  0.50272575
   0.42697100  0.14107358  0.50960227
   0.42537542  0.27480787  0.54957813
   0.42068471  0.71485569  0.47763871
   0.42662564  0.85566413  0.50026869
   0.56961983  0.99857096  0.49089850
   0.56977069  0.14120307  0.49713951
   0.57055301  0.28445062  0.50128045
   0.57023502  0.85586071  0.48759706
   0.71293838  0.99914917  0.48478336
   0.71260731  0.14178676  0.48932301
   0.71239992  0.28477881  0.48656281
   0.71166894  0.42719925  0.46773570
   0.72737953  0.57775719  0.42365391
   0.72592190  0.72255306  0.43475058
   0.71438492  0.85720182  0.47791800
   0.85645815  0.99963558  0.48815126
   0.85532169  0.14177925  0.49207707
   0.85498768  0.28449892  0.49000642
   0.85490109  0.42750920  0.48315436
   0.85596788  0.57128147  0.47600795
   0.85918785  0.71558508  0.47190150
   0.85778298  0.85715105  0.48367493
   0.04592441  0.09428368  0.51066062
   0.04475860  0.23640406  0.50947892
   0.04402132  0.37924599  0.50382547
   0.04480866  0.52245627  0.49854028
   0.04563104  0.66558646  0.49936817
   0.04650254  0.80874467  0.50098590
   0.04652184  0.95169903  0.50621278
   0.18906002  0.09436162  0.51792251
   0.18766557  0.23661547  0.52791042
   0.18532208  0.37865884  0.52079263
   0.18668526  0.52166003  0.50692528
   0.18786066  0.66538142  0.50723093
   0.18878060  0.80848997  0.50764144
   0.18910340  0.95143730  0.51058960
   0.33185464  0.09392825  0.51465307
   0.33256897  0.23620895  0.53635773
   0.32510064  0.37755879  0.53135731
   0.32414486  0.52076033  0.53101530
   0.33021138  0.66561560  0.50058686
   0.33144692  0.80848416  0.50503171
   0.33168435  0.95118779  0.50718541
   0.47467164  0.09366627  0.50155767
   0.47534266  0.23584032  0.51920795
   0.47374377  0.80780571  0.48980864
   0.47465347  0.95104912  0.49869506
   0.61725229  0.09375108  0.49177483
   0.61764126  0.23660795  0.49498668
   0.61876955  0.37624656  0.48020201
   0.62256802  0.81453151  0.49444937
   0.61764076  0.95128059  0.48527769
   0.76032604  0.09438065  0.48842451
   0.76002914  0.23694688  0.48818886
   0.75966494  0.37991316  0.47894016
   0.76179106  0.52444701  0.45513489
   0.76887198  0.67103000  0.44096332
   0.76353256  0.80983617  0.46729973
   0.76137925  0.95240446  0.48077826
   0.90319130  0.09420205  0.49501001
   0.90249364  0.23680661  0.49467144
   0.90210978  0.37983610  0.48979351
   0.90249394  0.52303721  0.48578841
   0.90448164  0.66642785  0.48133728
   0.90524642  0.80971437  0.48557544
   0.90407430  0.95182922  0.49333176
   0.46955306  0.34952292  0.60046094
   0.41407350  0.42572134  0.51605376
   0.41029539  0.56518152  0.55936438
   0.64495724  0.68638938  0.39533935
   0.65367402  0.54103486  0.37210800
   0.56988281  0.41697260  0.47139851
   0.58412788  0.73068883  0.52794576
   0.45624637  0.67095074  0.43449259
   0.54665791  0.59305598  0.52105947
   0.55079428  0.51111611  0.55326772
   0.58856309  0.57376309  0.53825396
Direct configuration=     6
   0.99870323  0.99916726  0.50415490
   0.99796542  0.14157998  0.50555671
   0.99734687  0.28416754  0.50250405
   0.99708907  0.42718605  0.49677455
   0.99741915  0.57035848  0.49511261
   0.99885398  0.71359532  0.49501892
   0.99956671  0.85685642  0.49873118
   0.14170093  0.99941188  0.51190348
   0.14084606  0.14175622  0.52040239
   0.13957962  0.28372992  0.52008683
   0.13886370  0.42672104  0.51122785
   0.13988045  0.56987963  0.50338081
   0.14076777  0.71307084  0.50579452
   0.14149066  0.85626288  0.50721012
   0.28417840  0.99874822  0.51102539
   0.28451054  0.14167875  0.52112367
   0.28373819  0.28474309  0.53636576
   0.28004782  0.42657202  0.52973898
   0.28233970  0.56950960  0.51064409
   0.28320004  0.71345515  0.50738885
   0.28391777  0.85614442  0.50715581
   0.42700926  0.99856715  0.50274037
   0.42696504  0.14106878  0.50962602
   0.42536183  0.27481770  0.54955756
   0.42069554  0.71485934  0.47761540
   0.42662867  0.85567188  0.50025694
   0.56961242  0.99856903  0.49087740
   0.56976885  0.14120481  0.49714274
   0.57054839  0.28445097  0.50127621
   0.57024911  0.85586133  0.48757932
   0.71294939  0.99914474  0.48476088
   0.71260890  0.14179437  0.48930950
   0.71239927  0.28478254  0.48656131
   0.71166968  0.42719953  0.46772130
   0.72738227  0.57775612  0.42363350
   0.72592008  0.72253091  0.43469766
   0.71440365  0.85719547  0.47787659
   0.85647020  0.99963522  0.48812649
   0.85533759  0.14178282  0.49206535
   0.85499348  0.28450248  0.48999651
   0.85489693  0.42750286  0.48315174
   0.85596935  0.57128024  0.47599300
   0.85918288  0.71557311  0.47186713
   0.85779103  0.85714503  0.48362406
   0.04593693  0.09429088  0.51064603
   0.04477300  0.23642122  0.50947538
   0.04403532  0.37926895  0.50382845
   0.04482987  0.52246839  0.49855048
   0.04563993  0.66558737  0.49936722
   0.04650621  0.80874992  0.50098154
   0.04652503  0.95170077  0.50620107
   0.18906959  0.09436175  0.51792652
   0.18768351  0.23662444  0.52790020
   0.18532272  0.37866556  0.52079507
   0.18669569  0.52167702  0.50693502
   0.18787215  0.66537716  0.50724392
   0.18878683  0.80848267  0.50764107
   0.18911453  0.95143791  0.51060155
   0.33186462  0.09392433  0.51467604
   0.33257149  0.23620412  0.53636074
   0.32507351  0.37752651  0.53144477
   0.32414690  0.52076811  0.53101939
   0.33022084  0.66562191  0.50058052
   0.33144492  0.80846792  0.50503232
   0.33168837  0.95118584  0.50720160
   0.47467356  0.09367027  0.50157451
   0.47534499  0.23584535  0.51921105
   0.47374585  0.80780295  0.48978612
   0.47466237  0.95105002  0.49868803
   0.61726108  0.09375586  0.49175902
   0.61763880  0.23660713  0.49498559
   0.61876556  0.37625080  0.48018754
   0.62255693  0.81453130  0.49443969
   0.61764458  0.95127902  0.48525137
   0.76032132  0.09438534  0.48840625
   0.76002692  0.23694385  0.48818212
   0.75966360  0.37991786  0.47893608
   0.76179712  0.52444282  0.45511365
   0.76888003  0.67104148  0.44092818
   0.76353064  0.80985808  0.46724716
   0.76136747  0.95241258  0.48074713
   0.90318430  0.09420881  0.49499719
   0.90249401  0.23681406  0.49466285
   0.90212078  0.37984854  0.48978904
   0.90250424  0.52304249  0.48578507
   0.90448233  0.66643074  0.48131861
   0.90524792  0.80973223  0.48553739
   0.90406623  0.95182846  0.49329974
   0.46952840  0.34956174  0.60038493
   0.41406005  0.42574666  0.51622927
   0.41030968  0.56517353  0.55932801
   0.64492952  0.68633981  0.39533364
   0.65364844  0.54103500  0.37211168
   0.56988225  0.41698412  0.47136841
   0.58413687  0.73069295  0.52796005
   0.45625387  0.67096052  0.43445531
   0.54673519  0.59300035  0.52109760
   0.55068535  0.51100919  0.55331139
   0.58852946  0.57386048  0.53954656
Direct configuration=     7
   0.99870565  0.99916782  0.50413153
   0.99796725  0.14158028  0.50554378
   0.99734922  0.28416977  0.50250216
   0.99708804  0.42718775  0.49677468
   0.99742329  0.57035772  0.49511635
   0.99885740  0.71359339  0.49500751
   0.99956886  0.85685198  0.49870937
   0.14170118  0.99940954  0.51191122
   0.14083850  0.14174885  0.52038542
   0.13957347  0.28372769  0.52008080
   0.13886620  0.42672706  0.51123098
   0.13988660  0.56988052  0.50339297
   0.14077283  0.71307321  0.50579884
   0.14148839  0.85625685  0.50721423
   0.28417835  0.99874508  0.51105342
   0.28450087  0.14167804  0.52114080
   0.28371752  0.28472724  0.53639682
   0.28002325  0.42658519  0.52978413
   0.28236063  0.56950473  0.51065072
   0.28321160  0.71345860  0.50739541
   0.28391960  0.85613530  0.50716121
   0.42701674  0.99856639  0.50275952
   0.42695984  0.14106558  0.50965797
   0.42535178  0.27483738  0.54953489
   0.42070470  0.71486154  0.47758772
   0.42663414  0.85567712  0.50024112
   0.56960697  0.99856474  0.49085253
   0.56977048  0.14120586  0.49714501
   0.57054457  0.28445355  0.50126953
   0.57025922  0.85586579  0.48755777
   0.71294839  0.99913816  0.48473171
   0.71260800  0.14179576  0.48929151
   0.71239373  0.28478393  0.48655890
   0.71166754  0.42719678  0.46770422
   0.72738100  0.57774993  0.42360757
   0.72592065  0.72250988  0.43463535
   0.71442369  0.85719748  0.47782313
   0.85647367  0.99963298  0.48809530
   0.85534947  0.14178769  0.49204790
   0.85499543  0.28450830  0.48998594
   0.85489855  0.42749728  0.48314878
   0.85597794  0.57128133  0.47597540
   0.85918541  0.71557279  0.47182500
   0.85778724  0.85714095  0.48355849
   0.04593900  0.09429098  0.51062594
   0.04478057  0.23642970  0.50947100
   0.04404445  0.37927399  0.50382936
   0.04484440  0.52247770  0.49856224
   0.04563778  0.66558723  0.49936599
   0.04650625  0.80875171  0.50097318
   0.04651655  0.95169285  0.50618719
   0.18906602  0.09435017  0.51792996
   0.18768483  0.23662633  0.52788878
   0.18532198  0.37866714  0.52079974
   0.18670507  0.52168231  0.50694964
   0.18787932  0.66537356  0.50725929
   0.18879034  0.80848038  0.50764356
   0.18911444  0.95142890  0.51061631
   0.33186939  0.09391424  0.51470590
   0.33256679  0.23619970  0.53636566
   0.32505349  0.37751504  0.53156053
   0.32414708  0.52076455  0.53103214
   0.33023682  0.66562421  0.50057172
   0.33144468  0.80846335  0.50503212
   0.33168672  0.95118244  0.50722289
   0.47467348  0.09367703  0.50159520
   0.47534763  0.23585332  0.51921414
   0.47375376  0.80780302  0.48975940
   0.47467041  0.95105257  0.49867862
   0.61727095  0.09376396  0.49173935
   0.61763347  0.23660904  0.49498188
   0.61876439  0.37626546  0.48016810
   0.62255227  0.81453577  0.49442749
   0.61765771  0.95127989  0.48521698
   0.76032700  0.09439514  0.48838115
   0.76003297  0.23694475  0.48817292
   0.75966191  0.37992394  0.47893039
   0.76180417  0.52444125  0.45508239
   0.76889080  0.67105193  0.44088806
   0.76353549  0.80987634  0.46717675
   0.76136880  0.95241928  0.48070716
   0.90318165  0.09421148  0.49498294
   0.90249914  0.23681985  0.49465158
   0.90212599  0.37985738  0.48978283
   0.90251138  0.52304953  0.48578156
   0.90448252  0.66643092  0.48129290
   0.90525030  0.80974188  0.48549213
   0.90406424  0.95182696  0.49325842
   0.46950971  0.34960606  0.60028976
   0.41404667  0.42577959  0.51646999
   0.41032475  0.56516843  0.55928130
   0.64488414  0.68625665  0.39534581
   0.65360443  0.54103935  0.37213454
   0.56988662  0.41700659  0.47132611
   0.58414360  0.73068599  0.52797176
   0.45626819  0.67097271  0.43440423
   0.54689233  0.59290782  0.52118160
   0.55053335  0.51085131  0.55337935
   0.58845359  0.57402878  0.54114397
Direct configuration=     8
   0.99869779  0.99915829  0.50409966
   0.99796615  0.14158827  0.50552385
   0.99735342  0.28418934  0.50249532
   0.99711021  0.42721447  0.49677541
   0.99744129  0.57036240  0.49512124
   0.99886297  0.71359817  0.49499210
   0.99956759  0.85685499  0.49867934
   0.14170528  0.99939841  0.51191669
   0.14085294  0.14175675  0.52036460
   0.13959009  0.28373699  0.52007744
   0.13887983  0.42675507  0.51123352
   0.13990771  0.56989297  0.50340955
   0.14078768  0.71306504  0.50580424
   0.14149834  0.85625533  0.50722125
   0.28419319  0.99874354  0.51109200
   0.28451158  0.14167535  0.52116061
   0.28370647  0.28470750  0.53644798
   0.28000427  0.42656638  0.52985601
   0.28235907  0.56952658  0.51065218
   0.28321560  0.71344025  0.50740137
   0.28392352  0.85612636  0.50717079
   0.42702945  0.99857608  0.50278405
   0.42696707  0.14107777  0.50969643
   0.42535497  0.27485704  0.54950142
   0.42071633  0.71486092  0.47755307
   0.42664178  0.85566850  0.50022083
   0.56962585  0.99856970  0.49082333
   0.56977552  0.14120888  0.49714530
   0.57054242  0.28447101  0.50125607
   0.57025459  0.85586963  0.48753275
   0.71294637  0.99915165  0.48469471
   0.71261533  0.14179353  0.48926628
   0.71239293  0.28478452  0.48655209
   0.71166304  0.42719860  0.46768160
   0.72739169  0.57774894  0.42358545
   0.72593283  0.72252408  0.43458021
   0.71440418  0.85720791  0.47776959
   0.85646210  0.99963574  0.48805580
   0.85534197  0.14179321  0.49202441
   0.85499679  0.28451492  0.48997413
   0.85490627  0.42750810  0.48314392
   0.85599252  0.57128580  0.47595366
   0.85920926  0.71560509  0.47177838
   0.85777798  0.85715217  0.48347605
   0.04592382  0.09428018  0.51059767
   0.04476686  0.23641325  0.50946282
   0.04403195  0.37925539  0.50382430
   0.04483701  0.52247132  0.49857371
   0.04563146  0.66558624  0.49936535
   0.04650259  0.80874050  0.50095941
   0.04651518  0.95168930  0.50616762
   0.18904475  0.09433379  0.51793476
   0.18764725  0.23660305  0.52787581
   0.18530726  0.37866127  0.52080848
   0.18671942  0.52167287  0.50697092
   0.18788245  0.66537954  0.50727703
   0.18878826  0.80848225  0.50765058
   0.18909842  0.95141377  0.51063605
   0.33185368  0.09390857  0.51474773
   0.33254153  0.23619348  0.53637491
   0.32502559  0.37754633  0.53171342
   0.32416330  0.52075865  0.53106525
   0.33025799  0.66561686  0.50056161
   0.33145854  0.80847971  0.50503045
   0.33168686  0.95117479  0.50725111
   0.47467363  0.09367622  0.50162215
   0.47533807  0.23586137  0.51921827
   0.47376774  0.80781462  0.48973260
   0.47467108  0.95105423  0.49866713
   0.61726477  0.09376158  0.49171626
   0.61763070  0.23661704  0.49497941
   0.61876787  0.37627816  0.48014601
   0.62257942  0.81452984  0.49441228
   0.61766706  0.95128584  0.48517368
   0.76034381  0.09439845  0.48834703
   0.76003952  0.23695497  0.48816208
   0.75966164  0.37992092  0.47892303
   0.76180675  0.52444346  0.45503464
   0.76889112  0.67103482  0.44083739
   0.76354010  0.80984861  0.46707329
   0.76139373  0.95241329  0.48065758
   0.90320001  0.09420632  0.49496762
   0.90251120  0.23682409  0.49463639
   0.90211801  0.37984607  0.48977355