  91  91   0   0
  0.4258115E+02  0.1727104E-08  0.1727104E-08  0.1500000E-08  0.0000000E+00
  1.000000000000000E-004
  CAR 
 unknown system                          
      4.47535930    -24.15340651  301     -2.98967291      1.00000000
    -24.153  0.0000E+00  0.0000E+00  0.0000E+00  0.0000E+00
    -24.058  0.0000E+00  0.0000E+00  0.0000E+00  0.0000E+00
    -23.963  0.0000E+00  0.0000E+00  0.0000E+00  0.0000E+00
    -23.867  0.0000E+00  0.0000E+00  0.0000E+00  0.0000E+00
    -23.772  0.0000E+00  0.0000E+00  0.0000E+00  0.0000E+00
    -23.676  0.0000E+00  0.0000E+00  0.0000E+00  0.0000E+00
    -23.581  0.0000E+00  0.0000E+00  0.0000E+00  0.0000E+00
    -23.485  0.0000E+00  0.0000E+00  0.0000E+00  0.0000E+00
    -23.390  0.0000E+00  0.0000E+00  0.0000E+00  0.0000E+00
    -23.295  0.0000E+00  0.0000E+00  0.0000E+00  0.0000E+00
    -23.199  0.0000E+00  0.0000E+00  0.0000E+00  0.0000E+00
    -23.104  0.6347E-14  0.6347E-14  0.6057E-15  0.6057E-15
    -23.008  0.7383E-07  0.7383E-07  0.7045E-08  0.7045E-08
    -22.913  0.9334E-03  0.9334E-03  0.8908E-04  0.8908E-04
    -22.817  0.2602E-01  0.2602E-01  0.2572E-02  0.2572E-02
    -22.722  0.1803E-01  0.1803E-01  0.4292E-02  0.4292E-02
    -22.627  0.3181E-01  0.3181E-01  0.7327E-02  0.7327E-02
    -22.531  0.2540E-01  0.2540E-01  0.9751E-02  0.9751E-02
    -22.436  0.1288E-01  0.1288E-01  0.1098E-01  0.1098E-01
    -22.340  0.2306E-01  0.2306E-01  0.1318E-01  0.1318E-01
    -22.245  0.1343E-01  0.1343E-01  0.1446E-01  0.1446E-01
    -22.149  0.2120E-01  0.2120E-01  0.1648E-01  0.1648E-01
    -22.054  0.1403E-01  0.1403E-01  0.1782E-01  0.1782E-01
    -21.959  0.2030E-01  0.2030E-01  0.1976E-01  0.1976E-01
    -21.863  0.2335E-01  0.2335E-01  0.2199E-01  0.2199E-01
    -21.768  0.2727E-01  0.2727E-01  0.2459E-01  0.2459E-01
    -21.672  0.2170E-01  0.2170E-01  0.2666E-01  0.2666E-01
    -21.577  0.2536E-01  0.2536E-01  0.2908E-01  0.2908E-01
    -21.481  0.1739E-01  0.1739E-01  0.3074E-01  0.3074E-01
    -21.386  0.2609E-01  0.2609E-01  0.3323E-01  0.3323E-01
    -21.291  0.1527E-01  0.1527E-01  0.3469E-01  0.3469E-01
    -21.195  0.2191E-01  0.2191E-01  0.3678E-01  0.3678E-01
    -21.100  0.3889E-01  0.3889E-01  0.4049E-01  0.4049E-01
    -21.004  0.3381E-01  0.3378E-01  0.4372E-01  0.4371E-01
    -20.909  0.4372E-01  0.4373E-01  0.4789E-01  0.4789E-01
    -20.813  0.2424E-01  0.2426E-01  0.5020E-01  0.5020E-01
    -20.718  0.1124E-01  0.1124E-01  0.5128E-01  0.5128E-01
    -20.623  0.2048E-01  0.2048E-01  0.5323E-01  0.5323E-01
    -20.527  0.1880E-01  0.1880E-01  0.5502E-01  0.5502E-01
    -20.432  0.2104E-01  0.2104E-01  0.5703E-01  0.5703E-01
    -20.336  0.2073E-01  0.2073E-01  0.5901E-01  0.5901E-01
    -20.241  0.2370E-01  0.2370E-01  0.6127E-01  0.6127E-01
    -20.145  0.2288E-01  0.2288E-01  0.6346E-01  0.6346E-01
    -20.050  0.1282E-01  0.1282E-01  0.6468E-01  0.6468E-01
    -19.955  0.1537E-01  0.1537E-01  0.6615E-01  0.6615E-01
    -19.859  0.2521E-01  0.2521E-01  0.6855E-01  0.6855E-01
    -19.764  0.3571E-01  0.3571E-01  0.7196E-01  0.7196E-01
    -19.668  0.2107E-01  0.2107E-01  0.7397E-01  0.7397E-01
    -19.573  0.1540E-01  0.1540E-01  0.7544E-01  0.7544E-01
    -19.477  0.1968E-01  0.1968E-01  0.7732E-01  0.7732E-01
    -19.382  0.2632E-01  0.2632E-01  0.7983E-01  0.7983E-01
    -19.287  0.1530E-01  0.1530E-01  0.8129E-01  0.8129E-01
    -19.191  0.4197E-02  0.4197E-02  0.8169E-01  0.8169E-01
    -19.096  0.1048E-01  0.1048E-01  0.8269E-01  0.8269E-01
    -19.000  0.1675E-01  0.1675E-01  0.8429E-01  0.8429E-01
    -18.905  0.4266E-01  0.4266E-01  0.8836E-01  0.8836E-01
    -18.809  0.3970E-01  0.3970E-01  0.9215E-01  0.9215E-01
    -18.714  0.3379E-01  0.3379E-01  0.9537E-01  0.9537E-01
    -18.619  0.3082E-01  0.3082E-01  0.9832E-01  0.9832E-01
    -18.523  0.2237E-01  0.2237E-01  0.1005E+00  0.1005E+00
    -18.428  0.4157E-02  0.4157E-02  0.1008E+00  0.1008E+00
    -18.332  0.1522E-01  0.1522E-01  0.1023E+00  0.1023E+00
    -18.237  0.2047E-01  0.2047E-01  0.1043E+00  0.1043E+00
    -18.141  0.2937E-01  0.2937E-01  0.1071E+00  0.1071E+00
    -18.046  0.1954E-01  0.1954E-01  0.1089E+00  0.1089E+00
    -17.951  0.1487E-01  0.1487E-01  0.1103E+00  0.1103E+00
    -17.855  0.2908E-01  0.2908E-01  0.1131E+00  0.1131E+00
    -17.760  0.5453E-01  0.5453E-01  0.1183E+00  0.1183E+00
    -17.664  0.2564E-01  0.2564E-01  0.1208E+00  0.1208E+00
    -17.569  0.1044E-01  0.1044E-01  0.1218E+00  0.1218E+00
    -17.473  0.1785E-01  0.1785E-01  0.1235E+00  0.1235E+00
    -17.378  0.4666E-01  0.4666E-01  0.1279E+00  0.1279E+00
    -17.283  0.2858E-01  0.2858E-01  0.1306E+00  0.1306E+00
    -17.187  0.2534E-01  0.2534E-01  0.1331E+00  0.1331E+00
    -17.092  0.1497E-01  0.1497E-01  0.1345E+00  0.1345E+00
    -16.996  0.2118E-01  0.2118E-01  0.1365E+00  0.1365E+00
    -16.901  0.1832E-01  0.1832E-01  0.1383E+00  0.1383E+00
    -16.805  0.4680E-01  0.4680E-01  0.1427E+00  0.1427E+00
    -16.710  0.3254E-01  0.3254E-01  0.1458E+00  0.1458E+00
    -16.614  0.1520E-01  0.1520E-01  0.1473E+00  0.1473E+00
    -16.519  0.2285E-02  0.2285E-02  0.1475E+00  0.1475E+00
    -16.424  0.1359E-05  0.1359E-05  0.1475E+00  0.1475E+00
    -16.328  0.7354E-03  0.7354E-03  0.1476E+00  0.1476E+00
    -16.233  0.9627E-02  0.9627E-02  0.1485E+00  0.1485E+00
    -16.137  0.2282E-01  0.2282E-01  0.1507E+00  0.1507E+00
    -16.042  0.1941E-01  0.1941E-01  0.1525E+00  0.1525E+00
    -15.946  0.1665E-01  0.1665E-01  0.1541E+00  0.1541E+00
    -15.851  0.1545E-01  0.1545E-01  0.1556E+00  0.1556E+00
    -15.756  0.1462E-01  0.1462E-01  0.1570E+00  0.1570E+00
    -15.660  0.1589E-01  0.1589E-01  0.1585E+00  0.1585E+00
    -15.565  0.3182E-01  0.3182E-01  0.1615E+00  0.1615E+00
    -15.469  0.4095E-01  0.4095E-01  0.1654E+00  0.1654E+00
    -15.374  0.5184E-01  0.5184E-01  0.1704E+00  0.1704E+00
    -15.278  0.7245E-02  0.7245E-02  0.1711E+00  0.1711E+00
    -15.183  0.1714E-01  0.1714E-01  0.1727E+00  0.1727E+00
    -15.088  0.3619E-01  0.3619E-01  0.1762E+00  0.1762E+00
    -14.992  0.2449E-01  0.2449E-01  0.1785E+00  0.1785E+00
    -14.897  0.2882E-01  0.2882E-01  0.1813E+00  0.1813E+00
    -14.801  0.3906E-01  0.3906E-01  0.1850E+00  0.1850E+00
    -14.706  0.4014E-01  0.4014E-01  0.1888E+00  0.1888E+00
    -14.610  0.3493E-01  0.3493E-01  0.1921E+00  0.1921E+00
    -14.515  0.1658E-01  0.1658E-01  0.1937E+00  0.1937E+00
    -14.420  0.2081E-01  0.2081E-01  0.1957E+00  0.1957E+00
    -14.324  0.6135E-02  0.6135E-02  0.1963E+00  0.1963E+00
    -14.229  0.1231E-01  0.1231E-01  0.1975E+00  0.1975E+00
    -14.133  0.1347E-01  0.1347E-01  0.1988E+00  0.1988E+00
    -14.038  0.2572E-01  0.2572E-01  0.2012E+00  0.2012E+00
    -13.942  0.4628E-01  0.4628E-01  0.2056E+00  0.2056E+00
    -13.847  0.3455E-01  0.3455E-01  0.2089E+00  0.2089E+00
    -13.752  0.2529E-01  0.2529E-01  0.2113E+00  0.2113E+00
    -13.656  0.2099E-01  0.2099E-01  0.2133E+00  0.2133E+00
    -13.561  0.1554E-01  0.1554E-01  0.2148E+00  0.2148E+00
    -13.465  0.2980E-02  0.2980E-02  0.2151E+00  0.2151E+00
    -13.370  0.1511E-01  0.1511E-01  0.2166E+00  0.2166E+00
    -13.274  0.2126E-01  0.2126E-01  0.2186E+00  0.2186E+00
    -13.179  0.1578E-01  0.1578E-01  0.2201E+00  0.2201E+00
    -13.084  0.2633E-01  0.2633E-01  0.2226E+00  0.2226E+00
    -12.988  0.1896E-01  0.1896E-01  0.2244E+00  0.2244E+00
    -12.893  0.5368E-01  0.5368E-01  0.2295E+00  0.2295E+00
    -12.797  0.3158E-01  0.3158E-01  0.2325E+00  0.2325E+00
    -12.702  0.3495E-01  0.3495E-01  0.2359E+00  0.2359E+00
    -12.606  0.2874E-01  0.2874E-01  0.2386E+00  0.2386E+00
    -12.511  0.3539E-01  0.3539E-01  0.2420E+00  0.2420E+00
    -12.416  0.1648E-01  0.1648E-01  0.2436E+00  0.2436E+00
    -12.320  0.1447E-01  0.1447E-01  0.2450E+00  0.2450E+00
    -12.225  0.1079E-01  0.1079E-01  0.2460E+00  0.2460E+00
    -12.129  0.1394E-01  0.1394E-01  0.2473E+00  0.2473E+00
    -12.034  0.2333E-01  0.2333E-01  0.2495E+00  0.2495E+00
    -11.938  0.3132E-01  0.3132E-01  0.2525E+00  0.2525E+00
    -11.843  0.3302E-01  0.3302E-01  0.2557E+00  0.2557E+00
    -11.748  0.4250E-01  0.4250E-01  0.2597E+00  0.2597E+00
    -11.652  0.6033E-01  0.6033E-01  0.2655E+00  0.2655E+00
    -11.557  0.2542E-01  0.2542E-01  0.2679E+00  0.2679E+00
    -11.461  0.3423E-01  0.3423E-01  0.2712E+00  0.2712E+00
    -11.366  0.3256E-01  0.3256E-01  0.2743E+00  0.2743E+00
    -11.270  0.4219E-01  0.4219E-01  0.2783E+00  0.2783E+00
    -11.175  0.3169E-01  0.3169E-01  0.2813E+00  0.2813E+00
    -11.080  0.1205E-01  0.1205E-01  0.2825E+00  0.2825E+00
    -10.984  0.1429E-01  0.1429E-01  0.2839E+00  0.2839E+00
    -10.889  0.2660E-01  0.2660E-01  0.2864E+00  0.2864E+00
    -10.793  0.1345E-01  0.1345E-01  0.2877E+00  0.2877E+00
    -10.698  0.2731E-01  0.2731E-01  0.2903E+00  0.2903E+00
    -10.602  0.4860E-01  0.4860E-01  0.2949E+00  0.2949E+00
    -10.507  0.4105E-01  0.4105E-01  0.2988E+00  0.2988E+00
    -10.412  0.4666E-01  0.4666E-01  0.3033E+00  0.3033E+00
    -10.316  0.4846E-01  0.4846E-01  0.3079E+00  0.3079E+00
    -10.221  0.4923E-01  0.4923E-01  0.3126E+00  0.3126E+00
    -10.125  0.5618E-01  0.5618E-01  0.3180E+00  0.3180E+00
    -10.030  0.4817E-01  0.4817E-01  0.3226E+00  0.3226E+00
     -9.934  0.4775E-01  0.4775E-01  0.3271E+00  0.3271E+00
     -9.839  0.9182E-01  0.9182E-01  0.3359E+00  0.3359E+00
     -9.744  0.6273E-01  0.6273E-01  0.3419E+00  0.3419E+00
     -9.648  0.4532E-01  0.4532E-01  0.3462E+00  0.3462E+00
     -9.553  0.6497E-01  0.6497E-01  0.3524E+00  0.3524E+00
     -9.457  0.3884E-01  0.3884E-01  0.3561E+00  0.3561E+00
     -9.362  0.7267E-01  0.7267E-01  0.3630E+00  0.3630E+00
     -9.266  0.1012E+00  0.1012E+00  0.3727E+00  0.3727E+00
     -9.171  0.8408E-01  0.8408E-01  0.3807E+00  0.3807E+00
     -9.076  0.5407E-01  0.5407E-01  0.3859E+00  0.3859E+00
     -8.980  0.4920E-01  0.4920E-01  0.3906E+00  0.3906E+00
     -8.885  0.6687E-01  0.6687E-01  0.3970E+00  0.3970E+00
     -8.789  0.5800E-01  0.5799E-01  0.4025E+00  0.4025E+00
     -8.694  0.6611E-01  0.6612E-01  0.4088E+00  0.4088E+00
     -8.598  0.7077E-01  0.7077E-01  0.4156E+00  0.4156E+00
     -8.503  0.9006E-01  0.9006E-01  0.4242E+00  0.4242E+00
     -8.408  0.6022E-01  0.6022E-01  0.4299E+00  0.4299E+00
     -8.312  0.5122E-01  0.5122E-01  0.4348E+00  0.4348E+00
     -8.217  0.3255E-01  0.3255E-01  0.4379E+00  0.4379E+00
     -8.121  0.3800E-01  0.3800E-01  0.4415E+00  0.4415E+00
     -8.026  0.4099E-01  0.4099E-01  0.4454E+00  0.4454E+00
     -7.930  0.3184E-01  0.3184E-01  0.4485E+00  0.4485E+00
     -7.835  0.2139E-01  0.2139E-01  0.4505E+00  0.4505E+00
     -7.740  0.3771E-01  0.3771E-01  0.4541E+00  0.4541E+00
     -7.644  0.8542E-01  0.8542E-01  0.4623E+00  0.4623E+00
     -7.549  0.7646E-01  0.7646E-01  0.4696E+00  0.4696E+00
     -7.453  0.5098E-01  0.5098E-01  0.4744E+00  0.4744E+00
     -7.358  0.4084E-01  0.4084E-01  0.4783E+00  0.4783E+00
     -7.262  0.2286E-01  0.2286E-01  0.4805E+00  0.4805E+00
     -7.167  0.2549E-01  0.2549E-01  0.4829E+00  0.4829E+00
     -7.072  0.3598E-01  0.3598E-01  0.4864E+00  0.4864E+00
     -6.976  0.5399E-01  0.5399E-01  0.4915E+00  0.4915E+00
     -6.881  0.2501E-01  0.2501E-01  0.4939E+00  0.4939E+00
     -6.785  0.2452E-01  0.2452E-01  0.4962E+00  0.4962E+00
     -6.690  0.5533E-01  0.5533E-01  0.5015E+00  0.5015E+00
     -6.594  0.5113E-01  0.5113E-01  0.5064E+00  0.5064E+00
     -6.499  0.4779E-01  0.4779E-01  0.5110E+00  0.5110E+00
     -6.404  0.2953E-01  0.2953E-01  0.5138E+00  0.5138E+00
     -6.308  0.4886E-01  0.4886E-01  0.5185E+00  0.5185E+00
     -6.213  0.4096E-01  0.4096E-01  0.5224E+00  0.5224E+00
     -6.117  0.2183E-01  0.2183E-01  0.5244E+00  0.5244E+00
     -6.022  0.2195E-01  0.2195E-01  0.5265E+00  0.5265E+00
     -5.926  0.1426E-01  0.1426E-01  0.5279E+00  0.5279E+00
     -5.831  0.1476E-01  0.1476E-01  0.5293E+00  0.5293E+00
     -5.736  0.1901E-01  0.1901E-01  0.5311E+00  0.5311E+00
     -5.640  0.3538E-01  0.3538E-01  0.5345E+00  0.5345E+00
     -5.545  0.2523E-01  0.2523E-01  0.5369E+00  0.5369E+00
     -5.449  0.4153E-01  0.4153E-01  0.5409E+00  0.5409E+00
     -5.354  0.7364E-01  0.7364E-01  0.5479E+00  0.5479E+00
     -5.258  0.5573E-01  0.5572E-01  0.5532E+00  0.5532E+00
     -5.163  0.7088E-01  0.7090E-01  0.5600E+00  0.5600E+00
     -5.068  0.8927E-02  0.8927E-02  0.5608E+00  0.5608E+00
     -4.972  0.1795E-02  0.1795E-02  0.5610E+00  0.5610E+00
     -4.877  0.2127E-01  0.2127E-01  0.5630E+00  0.5630E+00
     -4.781  0.4241E-01  0.4241E-01  0.5671E+00  0.5671E+00
     -4.686  0.2098E-01  0.2098E-01  0.5691E+00  0.5691E+00
     -4.590  0.5339E-01  0.5339E-01  0.5742E+00  0.5742E+00
     -4.495  0.6255E-01  0.6255E-01  0.5801E+00  0.5801E+00
     -4.400  0.6602E-01  0.6602E-01  0.5864E+00  0.5864E+00
     -4.304  0.6459E-01  0.6459E-01  0.5926E+00  0.5926E+00
     -4.209  0.1959E-01  0.1958E-01  0.5945E+00  0.5945E+00
     -4.113  0.5648E-01  0.5648E-01  0.5999E+00  0.5999E+00
     -4.018  0.2141E-01  0.2141E-01  0.6019E+00  0.6019E+00
     -3.922  0.6868E-02  0.6868E-02  0.6026E+00  0.6026E+00
     -3.827  0.1425E-01  0.1425E-01  0.6039E+00  0.6039E+00
     -3.732  0.2399E-01  0.2398E-01  0.6062E+00  0.6062E+00
     -3.636  0.1397E-01  0.1398E-01  0.6075E+00  0.6075E+00
     -3.541  0.7188E-02  0.7188E-02  0.6082E+00  0.6082E+00
     -3.445  0.1050E-02  0.1050E-02  0.6083E+00  0.6083E+00
     -3.350  0.2854E-03  0.2854E-03  0.6084E+00  0.6084E+00
     -3.254  0.1217E-01  0.1217E-01  0.6095E+00  0.6095E+00
     -3.159  0.5376E-02  0.5366E-02  0.6100E+00  0.6100E+00
     -3.064  0.2248E-01  0.2236E-01  0.6122E+00  0.6122E+00
     -2.968  0.1299E-01  0.1312E-01  0.6134E+00  0.6134E+00
     -2.873  0.1414E-01  0.1414E-01  0.6148E+00  0.6148E+00
     -2.777  0.2426E-02  0.2426E-02  0.6150E+00  0.6150E+00
     -2.682  0.1358E-05  0.1358E-05  0.6150E+00  0.6150E+00
     -2.586  0.4285E-04  0.4285E-04  0.6150E+00  0.6150E+00
     -2.491  0.4761E-02  0.4761E-02  0.6155E+00  0.6155E+00
     -2.396  0.8321E-02  0.8321E-02  0.6163E+00  0.6163E+00
     -2.300  0.7038E-02  0.7038E-02  0.6169E+00  0.6169E+00
     -2.205  0.1073E-01  0.1073E-01  0.6179E+00  0.6179E+00
     -2.109  0.1456E-01  0.1456E-01  0.6193E+00  0.6193E+00
     -2.014  0.6914E-02  0.6913E-02  0.6200E+00  0.6200E+00
     -1.918  0.9259E-03  0.9259E-03  0.6201E+00  0.6201E+00
     -1.823  0.1732E-01  0.1732E-01  0.6217E+00  0.6217E+00
     -1.728  0.2928E-01  0.2928E-01  0.6245E+00  0.6245E+00
     -1.632  0.4882E-02  0.4882E-02  0.6250E+00  0.6250E+00
     -1.537  0.3170E-04  0.3170E-04  0.6250E+00  0.6250E+00
     -1.441  0.4956E-02  0.4956E-02  0.6255E+00  0.6255E+00
     -1.346  0.2903E-01  0.2903E-01  0.6282E+00  0.6282E+00
     -1.250  0.5634E-01  0.5634E-01  0.6336E+00  0.6336E+00
     -1.155  0.2989E-01  0.2989E-01  0.6365E+00  0.6365E+00
     -1.060  0.3475E-01  0.3475E-01  0.6398E+00  0.6398E+00
     -0.964  0.2639E-01  0.2639E-01  0.6423E+00  0.6423E+00
     -0.869  0.3121E-01  0.3121E-01  0.6453E+00  0.6453E+00
     -0.773  0.1904E-01  0.1904E-01  0.6471E+00  0.6471E+00
     -0.678  0.1121E-01  0.1121E-01  0.6482E+00  0.6482E+00
     -0.582  0.3694E-01  0.3694E-01  0.6517E+00  0.6517E+00
     -0.487  0.2745E-01  0.2745E-01  0.6543E+00  0.6543E+00
     -0.392  0.3843E-01  0.3843E-01  0.6580E+00  0.6580E+00
     -0.296  0.3342E-01  0.3342E-01  0.6612E+00  0.6612E+00
     -0.201  0.3751E-01  0.3751E-01  0.6648E+00  0.6648E+00
     -0.105  0.1829E-01  0.1829E-01  0.6665E+00  0.6665E+00
     -0.010  0.1779E-02  0.1779E-02  0.6667E+00  0.6667E+00
      0.086  0.8086E-02  0.8086E-02  0.6674E+00  0.6674E+00
      0.181  0.2219E-01  0.2219E-01  0.6696E+00  0.6696E+00
      0.276  0.2375E-01  0.2375E-01  0.6718E+00  0.6718E+00
      0.372  0.3196E-01  0.3196E-01  0.6749E+00  0.6749E+00
      0.467  0.1337E-01  0.1337E-01  0.6762E+00  0.6762E+00
      0.563  0.1672E-01  0.1672E-01  0.6777E+00  0.6777E+00
      0.658  0.1106E-01  0.1106E-01  0.6788E+00  0.6788E+00
      0.754  0.2449E-01  0.2449E-01  0.6811E+00  0.6811E+00
      0.849  0.2472E-01  0.2472E-01  0.6835E+00  0.6835E+00
      0.944  0.3908E-01  0.3908E-01  0.6872E+00  0.6872E+00
      1.040  0.4139E-01  0.4139E-01  0.6912E+00  0.6912E+00
      1.135  0.2953E-01  0.2953E-01  0.6940E+00  0.6940E+00
      1.231  0.5748E-01  0.5748E-01  0.6995E+00  0.6995E+00
      1.326  0.3536E-01  0.3536E-01  0.7029E+00  0.7029E+00
      1.422  0.3425E-01  0.3425E-01  0.7061E+00  0.7061E+00
      1.517  0.2757E-01  0.2757E-01  0.7088E+00  0.7088E+00
      1.612  0.1612E-01  0.1612E-01  0.7103E+00  0.7103E+00
      1.708  0.2481E-01  0.2481E-01  0.7127E+00  0.7127E+00
      1.803  0.5141E-01  0.5141E-01  0.7176E+00  0.7176E+00
      1.899  0.8614E-01  0.8614E-01  0.7258E+00  0.7258E+00
      1.994  0.5843E-01  0.5843E-01  0.7314E+00  0.7314E+00
      2.090  0.1517E-01  0.1517E-01  0.7328E+00  0.7328E+00
      2.185  0.3867E-01  0.3867E-01  0.7365E+00  0.7365E+00
      2.280  0.5183E-01  0.5183E-01  0.7414E+00  0.7414E+00
      2.376  0.8239E-01  0.8239E-01  0.7493E+00  0.7493E+00
      2.471  0.6351E-01  0.6351E-01  0.7554E+00  0.7554E+00
      2.567  0.3728E-01  0.3728E-01  0.7589E+00  0.7589E+00
      2.662  0.3955E-01  0.3954E-01  0.7627E+00  0.7627E+00
      2.758  0.1229E+00  0.1229E+00  0.7744E+00  0.7744E+00
      2.853  0.1657E+00  0.1657E+00  0.7902E+00  0.7902E+00
      2.948  0.5285E-01  0.5359E-01  0.7953E+00  0.7954E+00
      3.044  0.1228E-01  0.1352E-01  0.7965E+00  0.7966E+00
      3.139  0.1781E-01  0.2143E-01  0.7982E+00  0.7987E+00
      3.235  0.1892E-01  0.1368E-01  0.8000E+00  0.8000E+00
      3.330  0.4479E-03  0.7502E-04  0.8000E+00  0.8000E+00
      3.426  0.4440E-07  0.6687E-09  0.8000E+00  0.8000E+00
      3.521  0.4859E-14  0.5817E-17  0.8000E+00  0.8000E+00
      3.616  0.0000E+00  0.0000E+00  0.8000E+00  0.8000E+00
      3.712  0.0000E+00  0.0000E+00  0.8000E+00  0.8000E+00
      3.807  0.0000E+00  0.0000E+00  0.8000E+00  0.8000E+00
      3.903  0.0000E+00  0.0000E+00  0.8000E+00  0.8000E+00
      3.998  0.0000E+00  0.0000E+00  0.8000E+00  0.8000E+00
      4.094  0.0000E+00  0.0000E+00  0.8000E+00  0.8000E+00
      4.189  0.0000E+00  0.0000E+00  0.8000E+00  0.8000E+00
      4.285  0.0000E+00  0.0000E+00  0.8000E+00  0.8000E+00
      4.380  0.0000E+00  0.0000E+00  0.8000E+00  0.8000E+00
      4.475  0.0000E+00  0.0000E+00  0.8000E+00  0.8000E+00
