       N       E                     dE             d eps       ncg     rms          rms(c)
DAV:   1     0.348468570956E+04    0.34847E+04   -0.13791E+05  4080   0.116E+03
DAV:   2    -0.168005557959E+03   -0.36527E+04   -0.34767E+04  5720   0.278E+02
DAV:   3    -0.841699567475E+03   -0.67369E+03   -0.67077E+03  4640   0.127E+02
DAV:   4    -0.865657270515E+03   -0.23958E+02   -0.23837E+02  4660   0.312E+01
DAV:   5    -0.866392126192E+03   -0.73486E+00   -0.73370E+00  5580   0.455E+00    0.428E+01
DAV:   6    -0.837561765659E+03    0.28830E+02   -0.20273E+01  4440   0.790E+00    0.323E+01
DAV:   7    -0.813895786450E+03    0.23666E+02   -0.79748E+01  4460   0.144E+01    0.193E+01
DAV:   8    -0.813174283263E+03    0.72150E+00   -0.30858E+01  4580   0.363E+00    0.129E+01
DAV:   9    -0.813560401784E+03   -0.38612E+00   -0.61876E+00  4440   0.452E+00    0.678E+00
DAV:  10    -0.813324165145E+03    0.23624E+00   -0.63390E-01  4200   0.178E+00    0.423E+00
DAV:  11    -0.812991989256E+03    0.33218E+00   -0.77209E-01  4240   0.151E+00    0.206E+00
DAV:  12    -0.812939358936E+03    0.52630E-01   -0.53245E-02  4460   0.524E-01    0.188E+00
DAV:  13    -0.812851942241E+03    0.87417E-01   -0.40349E-02  4700   0.365E-01    0.156E+00
DAV:  14    -0.812820164076E+03    0.31778E-01   -0.12163E-02  4520   0.167E-01    0.140E+00
DAV:  15    -0.812725064234E+03    0.95100E-01   -0.52812E-02  4840   0.430E-01    0.993E-01
DAV:  16    -0.812669428398E+03    0.55636E-01   -0.96399E-02  4800   0.413E-01    0.458E-01
DAV:  17    -0.812659771869E+03    0.96565E-02   -0.23728E-02  4500   0.197E-01    0.242E-01
DAV:  18    -0.812711537826E+03   -0.51766E-01   -0.31644E-01  4640   0.213E-01    0.556E+00
DAV:  19    -0.812636509279E+03    0.75029E-01   -0.91982E-01  4600   0.282E-01    0.455E-01
DAV:  20    -0.812664037883E+03   -0.27529E-01   -0.50007E-03  4000   0.955E-02    0.391E-01
DAV:  21    -0.812665425705E+03   -0.13878E-02   -0.35520E-04  4280   0.336E-02    0.385E-01
DAV:  22    -0.812662410911E+03    0.30148E-02   -0.96529E-04  4560   0.429E-02    0.327E-01
DAV:  23    -0.812660965950E+03    0.14450E-02   -0.65046E-04  4640   0.299E-02    0.282E-01
DAV:  24    -0.812660696686E+03    0.26926E-03   -0.66013E-05  4380   0.104E-02    0.273E-01
DAV:  25    -0.812660496529E+03    0.20016E-03   -0.18775E-05  3800   0.526E-03    0.266E-01
DAV:  26    -0.812659861782E+03    0.63475E-03   -0.13386E-04  4760   0.135E-02    0.245E-01
DAV:  27    -0.812659467206E+03    0.39458E-03   -0.94397E-05  4360   0.107E-02    0.227E-01
DAV:  28    -0.812658833704E+03    0.63350E-03   -0.23493E-04  4760   0.166E-02    0.195E-01
DAV:  29    -0.812658225639E+03    0.60806E-03   -0.41956E-04  4600   0.205E-02    0.143E-01
DAV:  30    -0.812658011086E+03    0.21455E-03   -0.17368E-04  4480   0.132E-02    0.102E-01
DAV:  31    -0.812657972837E+03    0.38249E-04   -0.31634E-05  3680   0.608E-03    0.811E-02
DAV:  32    -0.812657926939E+03    0.45898E-04   -0.84245E-05  4120   0.775E-03    0.394E-02
DAV:  33    -0.812657985783E+03   -0.58844E-04   -0.16401E-05  3320   0.379E-03    0.566E-02
DAV:  34    -0.812657936893E+03    0.48890E-04   -0.73892E-05  3980   0.690E-03    0.129E-02
DAV:  35    -0.812657954822E+03   -0.17929E-04   -0.26958E-06  3240   0.207E-03    0.150E-02
DAV:  36    -0.812657953979E+03    0.84319E-06   -0.78815E-07  2860   0.861E-04
   1 F= -.82003320E+03 E0= -.82003195E+03  d E =-.820033E+03  mag=     0.0001
