 vasp.6.4.2 20Jul23 (build Aug 26 2025 15:10:52) complex                        
  
 executed on             LinuxIFC date 2025.11.27  11:30:10
 running  100 mpi-ranks, on    2 nodes
 each image running on   20 cores
 distrk:  each k-point on   20 cores,    1 groups
 distr:  one band on NCORE=   1 cores,   20 groups


--------------------------------------------------------------------------------------------------------


 INCAR:
   ENCUT = 520
   EDIFF = 1E-6
   NELM = 200
   ALGO = Normal
   ISMEAR = 0
   SIGMA = 0.05
   LASPH = .TRUE.
   ADDGRID = .TRUE.
   LREAL = Auto
   ISYM = 0
   ISPIN = 2
   MAGMOM = 91*0
   IMIX = 4
   AMIX = 0.20
   BMIX = 1E-4
   AMIX_MAG = 0.80
   BMIX_MAG = 1E-4
   IBRION = 3
   POTIM = 0
   ICHAIN = 0
   IMAGES = 5
   SPRING = -5
   LCLIMB = .TRUE.
   IOPT = 1
   ISIF = 2
   EDIFFG = -0.03
   NSW = 300
   IVDW = 12
   ISTART = 0
   ICHARG = 2
   LWAVE = .FALSE.
   LCHARG = .FALSE.

 POTCAR:    PAW_PBE C 08Apr2002                   
 POTCAR:    PAW_PBE N 08Apr2002                   
 POTCAR:    PAW_PBE H 15Jun2001                   
 POTCAR:    PAW_PBE O 08Apr2002                   
 -----------------------------------------------------------------------------
|                                                                             |
|           W    W    AA    RRRRR   N    N  II  N    N   GGGG   !!!           |
|           W    W   A  A   R    R  NN   N  II  NN   N  G    G  !!!           |
|           W    W  A    A  R    R  N N  N  II  N N  N  G       !!!           |
|           W WW W  AAAAAA  RRRRR   N  N N  II  N  N N  G  GGG   !            |
|           WW  WW  A    A  R   R   N   NN  II  N   NN  G    G                |
|           W    W  A    A  R    R  N    N  II  N    N   GGGG   !!!           |
|                                                                             |
|     For optimal performance we recommend to set                             |
|       NCORE = 2 up to number-of-cores-per-socket                            |
|     NCORE specifies how many cores store one orbital (NPAR=cpu/NCORE).      |
|     This setting can greatly improve the performance of VASP for DFT.       |
|     The default, NCORE=1 might be grossly inefficient on modern             |
|     multi-core architectures or massively parallel machines. Do your        |
|     own testing! More info at https://www.vasp.at/wiki/index.php/NCORE      |
|     Unfortunately you need to use the default for GW and RPA                |
|     calculations (for HF NCORE is supported but not extensively tested      |
|     yet).                                                                   |
|                                                                             |
 -----------------------------------------------------------------------------

 POTCAR:    PAW_PBE C 08Apr2002                   
   SHA256 =  253f7b50bb8d59471dbedb8285d89021f4a42ed1a2c5d38a03a736e69125dd95 C/POTCAR              
   COPYR  = (c) Copyright 08Apr2002 Georg Kresse                                                    
   COPYR  = This file is part of the software VASP. Any use, copying, and all other rights are regul
   COPYR  = If you do not have a valid VASP license, you may not use, copy or distribute this file. 
   VRHFIN =C: s2p2                                                                                  
   LEXCH  = PE                                                                                      
   EATOM  =   147.1560 eV,   10.8157 Ry                                                             
                                                                                                    
   TITEL  = PAW_PBE C 08Apr2002                                                                     
   LULTRA =        F    use ultrasoft PP ?                                                          
   IUNSCR =        1    unscreen: 0-lin 1-nonlin 2-no                                               
   RPACOR =    1.200    partial core radius                                                         
   POMASS =   12.011; ZVAL   =    4.000    mass and valenz                                          
   RCORE  =    1.500    outmost cutoff radius                                                       
   RWIGS  =    1.630; RWIGS  =    0.863    wigner-seitz radius (au A)                               
   ENMAX  =  400.000; ENMIN  =  300.000 eV                                                          
   ICORE  =        2    local potential                                                             
   LCOR   =        T    correct aug charges                                                         
   LPAW   =        T    paw PP                                                                      
   EAUG   =  644.873                                                                                
   DEXC   =    0.000                                                                                
   RMAX   =    1.529    core radius for proj-oper                                                   
   RAUG   =    1.300    factor for augmentation sphere                                              
   RDEP   =    1.501    radius for radial grids                                                     
   RDEPT  =    1.300    core radius for aug-charge                                                  
                                                                                                    
   Atomic configuration                                                                             
    4 entries                                                                                       
     n  l   j            E        occ.                                                              
     1  0  0.50      -273.3789   2.0000                                                             
     2  0  0.50       -13.7508   2.0000                                                             
     2  1  0.50        -5.2854   2.0000                                                             
     3  2  1.50        -5.4423   0.0000                                                             
   Description                                                                                      
     l       E           TYP  RCUT    TYP  RCUT                                                     
     0    -13.7508458     23  1.200                                                                 
     0     -8.2022199     23  1.200                                                                 
     1     -5.2854383     23  1.500                                                                 
     1     34.0145650     23  1.500                                                                 
     2     -5.4423304      7  1.500                                                                 
  local pseudopotential read in
  partial core-charges read in
  partial kinetic energy density read in
  atomic valenz-charges read in
  non local Contribution for L=           0  read in
    real space projection operators read in
  non local Contribution for L=           0  read in
    real space projection operators read in
  non local Contribution for L=           1  read in
    real space projection operators read in
  non local Contribution for L=           1  read in
    real space projection operators read in
    PAW grid and wavefunctions read in
 
   number of l-projection  operators is LMAX  =           4
   number of lm-projection operators is LMMAX =           8
 
 POTCAR:    PAW_PBE N 08Apr2002                   
   SHA256 =  e053789ff3a61a86a1b75d8a110fcc91f86041011e7b0817c7c99e4e8a6349d7 N/POTCAR              
   COPYR  = (c) Copyright 08Apr2002 Georg Kresse                                                    
   COPYR  = This file is part of the software VASP. Any use, copying, and all other rights are regul
   COPYR  = If you do not have a valid VASP license, you may not use, copy or distribute this file. 
   VRHFIN =N: s2p3                                                                                  
   LEXCH  = PE                                                                                      
   EATOM  =   264.5486 eV,   19.4438 Ry                                                             
                                                                                                    
   TITEL  = PAW_PBE N 08Apr2002                                                                     
   LULTRA =        F    use ultrasoft PP ?                                                          
   IUNSCR =        1    unscreen: 0-lin 1-nonlin 2-no                                               
   RPACOR =    1.200    partial core radius                                                         
   POMASS =   14.001; ZVAL   =    5.000    mass and valenz                                          
   RCORE  =    1.500    outmost cutoff radius                                                       
   RWIGS  =    1.400; RWIGS  =    0.741    wigner-seitz radius (au A)                               
   ENMAX  =  400.000; ENMIN  =  300.000 eV                                                          
   ICORE  =        2    local potential                                                             
   LCOR   =        T    correct aug charges                                                         
   LPAW   =        T    paw PP                                                                      
   EAUG   =  627.112                                                                                
   DEXC   =    0.000                                                                                
   RMAX   =    1.529    core radius for proj-oper                                                   
   RAUG   =    1.300    factor for augmentation sphere                                              
   RDEP   =    1.514    radius for radial grids                                                     
   RDEPT  =    1.338    core radius for aug-charge                                                  
                                                                                                    
   Atomic configuration                                                                             
    4 entries                                                                                       
     n  l   j            E        occ.                                                              
     1  0  0.50      -384.7179   2.0000                                                             
     2  0  0.50       -18.5828   2.0000                                                             
     2  1  0.50        -7.0898   3.0000                                                             
     3  2  1.50        -6.8029   0.0000                                                             
   Description                                                                                      
     l       E           TYP  RCUT    TYP  RCUT                                                     
     0    -18.5828119     23  1.200                                                                 
     0    -13.5018863     23  1.200                                                                 
     1     -7.0897853     23  1.500                                                                 
     1      9.5240782     23  1.500                                                                 
     2     -6.8029130      7  1.500                                                                 
  local pseudopotential read in
  partial core-charges read in
  partial kinetic energy density read in
  atomic valenz-charges read in
  non local Contribution for L=           0  read in
    real space projection operators read in
  non local Contribution for L=           0  read in
    real space projection operators read in
  non local Contribution for L=           1  read in
    real space projection operators read in
  non local Contribution for L=           1  read in
    real space projection operators read in
    PAW grid and wavefunctions read in
 
   number of l-projection  operators is LMAX  =           4
   number of lm-projection operators is LMMAX =           8
 
 POTCAR:    PAW_PBE H 15Jun2001                   
   SHA256 =  030f79b5d3ab3cf0e668861823c8fb652ff669f3e15e46930bd03bfd63a607b6 H/POTCAR              
   COPYR  = (c) Copyright 15Jun2001 Georg Kresse                                                    
   COPYR  = This file is part of the software VASP. Any use, copying, and all other rights are regul
   COPYR  = If you do not have a valid VASP license, you may not use, copy or distribute this file. 
   VRHFIN =H: ultrasoft test                                                                        
   LEXCH  = PE                                                                                      
   EATOM  =    12.4884 eV,    0.9179 Ry                                                             
                                                                                                    
   TITEL  = PAW_PBE H 15Jun2001                                                                     
   LULTRA =        F    use ultrasoft PP ?                                                          
   IUNSCR =        0    unscreen: 0-lin 1-nonlin 2-no                                               
   RPACOR =    0.000    partial core radius                                                         
   POMASS =    1.000; ZVAL   =    1.000    mass and valenz                                          
   RCORE  =    1.100    outmost cutoff radius                                                       
   RWIGS  =    0.700; RWIGS  =    0.370    wigner-seitz radius (au A)                               
   ENMAX  =  250.000; ENMIN  =  200.000 eV                                                          
   RCLOC  =    0.701    cutoff for local pot                                                        
   LCOR   =        T    correct aug charges                                                         
   LPAW   =        T    paw PP                                                                      
   EAUG   =  400.000                                                                                
   RMAX   =    1.123    core radius for proj-oper                                                   
   RAUG   =    1.200    factor for augmentation sphere                                              
   RDEP   =    1.112    radius for radial grids                                                     
   RDEPT  =    0.926    core radius for aug-charge                                                  
                                                                                                    
   Atomic configuration                                                                             
    2 entries                                                                                       
     n  l   j            E        occ.                                                              
     1  0  0.50        -6.4927   1.0000                                                             
     2  1  0.50        -3.4015   0.0000                                                             
   Description                                                                                      
     l       E           TYP  RCUT    TYP  RCUT                                                     
     0     -6.4927494     23  1.100                                                                 
     0      6.8029130     23  1.100                                                                 
     1     -4.0817478     23  1.100                                                                 
  local pseudopotential read in
  atomic valenz-charges read in
  non local Contribution for L=           0  read in
    real space projection operators read in
  non local Contribution for L=           0  read in
    real space projection operators read in
  non local Contribution for L=           1  read in
    real space projection operators read in
    PAW grid and wavefunctions read in
 
   number of l-projection  operators is LMAX  =           3
   number of lm-projection operators is LMMAX =           5
 
 POTCAR:    PAW_PBE O 08Apr2002                   
   SHA256 =  818f92134a0a090dccd8ba1447fa70422a3b330e708bb4f08108d8ae51209ddf O/POTCAR              
   COPYR  = (c) Copyright 08Apr2002 Georg Kresse                                                    
   COPYR  = This file is part of the software VASP. Any use, copying, and all other rights are regul
   COPYR  = If you do not have a valid VASP license, you may not use, copy or distribute this file. 
   VRHFIN =O: s2p4                                                                                  
   LEXCH  = PE                                                                                      
   EATOM  =   432.3788 eV,   31.7789 Ry                                                             
                                                                                                    
   TITEL  = PAW_PBE O 08Apr2002                                                                     
   LULTRA =        F    use ultrasoft PP ?                                                          
   IUNSCR =        1    unscreen: 0-lin 1-nonlin 2-no                                               
   RPACOR =    1.200    partial core radius                                                         
   POMASS =   16.000; ZVAL   =    6.000    mass and valenz                                          
   RCORE  =    1.520    outmost cutoff radius                                                       
   RWIGS  =    1.550; RWIGS  =    0.820    wigner-seitz radius (au A)                               
   ENMAX  =  400.000; ENMIN  =  300.000 eV                                                          
   ICORE  =        2    local potential                                                             
   LCOR   =        T    correct aug charges                                                         
   LPAW   =        T    paw PP                                                                      
   EAUG   =  605.392                                                                                
   DEXC   =    0.000                                                                                
   RMAX   =    1.553    core radius for proj-oper                                                   
   RAUG   =    1.300    factor for augmentation sphere                                              
   RDEP   =    1.550    radius for radial grids                                                     
   RDEPT  =    1.329    core radius for aug-charge                                                  
                                                                                                    
   Atomic configuration                                                                             
    4 entries                                                                                       
     n  l   j            E        occ.                                                              
     1  0  0.50      -514.6923   2.0000                                                             
     2  0  0.50       -23.9615   2.0000                                                             
     2  1  0.50        -9.0305   4.0000                                                             
     3  2  1.50        -9.5241   0.0000                                                             
   Description                                                                                      
     l       E           TYP  RCUT    TYP  RCUT                                                     
     0    -23.9615318     23  1.200                                                                 
     0     -9.5240782     23  1.200                                                                 
     1     -9.0304911     23  1.520                                                                 
     1      8.1634956     23  1.520                                                                 
     2     -9.5240782      7  1.500                                                                 
  local pseudopotential read in
  partial core-charges read in
  partial kinetic energy density read in
  kinetic energy density of atom read in
  atomic valenz-charges read in
  non local Contribution for L=           0  read in
    real space projection operators read in
  non local Contribution for L=           0  read in
    real space projection operators read in
  non local Contribution for L=           1  read in
    real space projection operators read in
  non local Contribution for L=           1  read in
    real space projection operators read in
    PAW grid and wavefunctions read in
 
   number of l-projection  operators is LMAX  =           4
   number of lm-projection operators is LMMAX =           8
 
 Optimization of the real space projectors (new method)

 maximal supplied QI-value         = 25.13
 optimisation between [QCUT,QGAM] = [ 11.56, 23.12] = [ 37.43,149.72] Ry 
 Optimized for a Real-space Cutoff    1.04 Angstroem

   l    n(q)    QCUT    max X(q) W(low)/X(q) W(high)/X(q)  e(spline) 
   0      7    11.561   115.676    0.20E-03    0.60E-03    0.21E-06
   0      7    11.561    87.132    0.20E-03    0.59E-03    0.21E-06
   1      7    11.561     4.429    0.23E-03    0.35E-03    0.15E-06
   1      7    11.561     2.733    0.18E-03    0.25E-03    0.12E-06
 Optimization of the real space projectors (new method)

 maximal supplied QI-value         = 25.13
 optimisation between [QCUT,QGAM] = [ 11.56, 23.12] = [ 37.43,149.72] Ry 
 Optimized for a Real-space Cutoff    1.25 Angstroem

   l    n(q)    QCUT    max X(q) W(low)/X(q) W(high)/X(q)  e(spline) 
   0      9    11.561    79.467    0.52E-04    0.16E-03    0.37E-06
   0      9    11.561    66.151    0.51E-04    0.16E-03    0.37E-06
   1      8    11.561    18.886    0.46E-03    0.28E-03    0.80E-06
   1      8    11.561    13.488    0.47E-03    0.29E-03    0.82E-06
 Optimization of the real space projectors (new method)

 maximal supplied QI-value         = 34.20
 optimisation between [QCUT,QGAM] = [ 11.63, 23.26] = [ 37.87,151.49] Ry 
 Optimized for a Real-space Cutoff    1.14 Angstroem

   l    n(q)    QCUT    max X(q) W(low)/X(q) W(high)/X(q)  e(spline) 
   0      8    11.629    19.460    0.27E-03    0.65E-03    0.17E-06
   0      8    11.629    12.209    0.25E-03    0.62E-03    0.16E-06
   1      7    11.629     4.655    0.29E-03    0.85E-04    0.19E-06
 Optimization of the real space projectors (new method)

 maximal supplied QI-value         = 24.76
 optimisation between [QCUT,QGAM] = [ 11.64, 23.27] = [ 37.91,151.63] Ry 
 Optimized for a Real-space Cutoff    1.04 Angstroem

   l    n(q)    QCUT    max X(q) W(low)/X(q) W(high)/X(q)  e(spline) 
   0      7    11.635    20.381    0.14E-03    0.49E-03    0.18E-06
   0      7    11.635    15.268    0.16E-03    0.52E-03    0.19E-06
   1      7    11.635     5.964    0.30E-03    0.44E-03    0.22E-06
   1      7    11.635     5.382    0.27E-03    0.34E-03    0.19E-06
  PAW_PBE C 08Apr2002                   :
 energy of atom  1       EATOM= -147.1560
 kinetic energy error for atom=    0.0071 (will be added to EATOM!!)
  PAW_PBE N 08Apr2002                   :
 energy of atom  2       EATOM= -264.5486
 kinetic energy error for atom=    0.0125 (will be added to EATOM!!)
  PAW_PBE H 15Jun2001                   :
 energy of atom  3       EATOM=  -12.4884
 kinetic energy error for atom=    0.0014 (will be added to EATOM!!)
  PAW_PBE O 08Apr2002                   :
 energy of atom  4       EATOM= -432.3788
 kinetic energy error for atom=    0.0208 (will be added to EATOM!!)
 
 
 POSCAR: C    N    H    O
  positions in direct lattice
  velocities in cartesian coordinates
 exchange correlation table for  LEXCH =        8
   RHO(1)=    0.500       N(1)  =     2000
   RHO(2)=  100.500       N(2)  =     4000

 VTST: version 4.1, (05/19/21)

 CHAIN: initializing optimizer
 
 OPT: Using LBFGS optimizer
 OPT: LBFGS, Init
 OPT: LBFGS, MEMORY             20
 OPT: LBFGS, IMAGES              5
 OPT: LBFGS, MAXMOVE      0.200000
 OPT: LBFGS, LGLOBAL      T
 OPT: LBFGS, INVCURV      0.010000
 OPT: LBFGS, LLINEOPT      F
 OPT: LBFGS, FDSTEP       0.005000
 OPT: LBFGS, LAUTOSCALE      T
 OPT: LBFGS, DAMPING      2.000000
 
 CHAIN: Read ICHAIN            0
 CHAIN: Running the NEB
 NEB:          SPRING     -5.000000
 NEB:          LCLIMB      T
 NEB:     LTANGENTOLD      F
 NEB:           LDNEB      F
 NEB:        LDNEBORG      F
 NEB:        LNEBCELL      F
 NEB:          EFIRST      0.000000
 NEB:           ELAST      0.000000
 
 POSCAR: C    N    H    O
  positions in direct lattice
  No initial velocities read in
 
 POSCAR: C    N    H    O
  positions in direct lattice
  No initial velocities read in
 
 POSCAR: C    N    H    O
  positions in direct lattice
  No initial velocities read in
 
 POSCAR: C    N    H    O
  positions in direct lattice
  No initial velocities read in
 


--------------------------------------------------------------------------------------------------------


 ion  position               nearest neighbor table
   1  0.001  0.001  0.503-  47 1.43  41 1.43  80 1.43
   2  1.000  0.143  0.503-  42 1.42  41 1.43  74 1.43
   3  0.999  0.286  0.503-  42 1.43  43 1.43  75 1.43
   4  1.000  0.430  0.503-  43 1.42  44 1.43  76 1.43
   5  0.001  0.573  0.503-  45 1.43  44 1.43  77 1.43
   6  0.002  0.716  0.503-  45 1.42  46 1.43  78 1.43
   7  0.002  0.859  0.503-  47 1.42  46 1.43  79 1.43
   8  0.145  0.003  0.502-  48 1.43  47 1.43  54 1.43
   9  0.144  0.145  0.502-  48 1.43  49 1.43  41 1.43
  10  0.142  0.286  0.502-  50 1.42  49 1.42  42 1.43
  11  0.142  0.429  0.502-  50 1.42  51 1.42  43 1.43
  12  0.144  0.572  0.502-  52 1.43  51 1.43  44 1.43
  13  0.145  0.715  0.502-  52 1.43  45 1.43  53 1.43
  14  0.145  0.859  0.502-  46 1.43  54 1.43  53 1.43
  15  0.287  0.002  0.502-  54 1.42  59 1.43  55 1.44
  16  0.288  0.147  0.502-  55 1.43  48 1.43  56 1.45
  17  0.289  0.294  0.501-  85 1.34  49 1.45  56 1.51
  18  0.285  0.429  0.501-  85 1.37  86 1.37  50 1.43
  19  0.289  0.568  0.502-  86 1.34  51 1.45  57 1.51
  20  0.288  0.714  0.502-  58 1.43  52 1.43  57 1.45
  21  0.288  0.858  0.502-  53 1.42  59 1.43  58 1.44
  22  0.430  0.002  0.503-  59 1.43  63 1.43  60 1.43
  23  0.430  0.147  0.503-  55 1.42  60 1.44  61 1.44
  24  0.430  0.857  0.503-  58 1.42  63 1.44  62 1.44
  25  0.572  0.000  0.504-  63 1.42  64 1.43  66 1.44
  26  0.572  0.145  0.504-  60 1.42  64 1.43  65 1.44
  27  0.574  0.293  0.504-  87 1.35  65 1.44  61 1.49
  28  0.574  0.855  0.504-  88 1.35  66 1.44  62 1.49
  29  0.714  0.999  0.504-  66 1.42  73 1.43  67 1.44
  30  0.714  0.144  0.505-  64 1.43  68 1.43  67 1.43
  31  0.714  0.288  0.504-  65 1.42  69 1.43  68 1.44
  32  0.710  0.429  0.505-  87 1.34  69 1.45  70 1.51
  33  0.710  0.854  0.505-  88 1.34  73 1.45  72 1.51
  34  0.857  0.999  0.504-  74 1.43  80 1.43  73 1.43
  35  0.857  0.143  0.504-  67 1.42  75 1.43  74 1.43
  36  0.857  0.287  0.504-  68 1.42  75 1.43  76 1.43
  37  0.857  0.430  0.504-  76 1.43  77 1.43  69 1.43
  38  0.857  0.573  0.504-  78 1.42  77 1.43  70 1.45
  39  0.859  0.716  0.504-  78 1.42  79 1.42  71 1.43
  40  0.857  0.857  0.504-  79 1.42  80 1.43  72 1.45
  41  0.048  0.097  0.503-   2 1.43   1 1.43   9 1.43
  42  0.047  0.238  0.502-   2 1.42   3 1.43  10 1.43
  43  0.047  0.382  0.502-   4 1.42   3 1.43  11 1.43
  44  0.049  0.525  0.503-   4 1.43   5 1.43  12 1.43
  45  0.049  0.668  0.503-   6 1.42   5 1.43  13 1.43
  46  0.050  0.811  0.503-   6 1.43   7 1.43  14 1.43
  47  0.049  0.954  0.503-   7 1.42   1 1.43   8 1.43
  48  0.192  0.098  0.502-   8 1.43   9 1.43  16 1.43
  49  0.192  0.241  0.502-  10 1.42   9 1.43  17 1.45
  50  0.189  0.381  0.501-  11 1.42  10 1.42  18 1.43
  51  0.192  0.524  0.502-  11 1.42  12 1.43  19 1.45
  52  0.193  0.667  0.502-  13 1.43  12 1.43  20 1.43
  53  0.192  0.811  0.502-  21 1.42  14 1.43  13 1.43
  54  0.192  0.955  0.502-  15 1.42  14 1.43   8 1.43
  55  0.335  0.099  0.502-  23 1.42  16 1.43  15 1.44
  56  0.339  0.244  0.502-  81 1.34  16 1.45  17 1.51
  57  0.339  0.669  0.502-  82 1.34  20 1.45  19 1.51
  58  0.335  0.810  0.502-  24 1.42  20 1.43  21 1.44
  59  0.335  0.954  0.502-  22 1.43  15 1.43  21 1.43
  60  0.477  0.097  0.503-  26 1.42  22 1.43  23 1.44
  61  0.475  0.243  0.503-  81 1.35  23 1.44  27 1.49
  62  0.475  0.805  0.503-  82 1.35  24 1.44  28 1.49
  63  0.477  0.953  0.503-  25 1.42  22 1.43  24 1.44
  64  0.619  0.096  0.504-  30 1.43  25 1.43  26 1.43
  65  0.619  0.241  0.504-  31 1.42  26 1.44  27 1.44
  66  0.619  0.951  0.504-  29 1.42  25 1.44  28 1.44
  67  0.761  0.095  0.504-  35 1.42  30 1.43  29 1.44
  68  0.761  0.239  0.504-  36 1.42  30 1.43  31 1.44
  69  0.761  0.383  0.504-  31 1.43  37 1.43  32 1.45
  70  0.760  0.530  0.505-  83 1.34  38 1.45  32 1.51
  71  0.764  0.668  0.505-  84 1.37  83 1.38  39 1.43
  72  0.760  0.803  0.505-  84 1.34  40 1.45  33 1.51
  73  0.761  0.951  0.504-  29 1.43  34 1.43  33 1.45
  74  0.904  0.095  0.504-  34 1.43   2 1.43  35 1.43
  75  0.904  0.239  0.504-   3 1.43  35 1.43  36 1.43
  76  0.904  0.382  0.504-  37 1.43   4 1.43  36 1.43
  77  0.905  0.526  0.504-  37 1.43  38 1.43   5 1.43
  78  0.906  0.668  0.504-  39 1.42  38 1.42   6 1.43
  79  0.906  0.811  0.504-  39 1.42  40 1.42   7 1.43
  80  0.905  0.952  0.504-  34 1.43  40 1.43   1 1.43
  81  0.429  0.288  0.502-  56 1.34  61 1.35
  82  0.429  0.715  0.502-  57 1.34  62 1.35
  83  0.717  0.576  0.505-  70 1.34  71 1.38
  84  0.717  0.714  0.505-  72 1.34  71 1.37
  85  0.331  0.384  0.501-  17 1.34  18 1.37
  86  0.332  0.521  0.501-  19 1.34  18 1.37
  87  0.620  0.383  0.504-  32 1.34  27 1.35
  88  0.620  0.810  0.504-  33 1.34  28 1.35
  89  0.464  0.522  0.501-  91 0.98
  90  0.533  0.490  0.502-  91 0.97
  91  0.529  0.544  0.500-  90 0.97  89 0.98
 

IMPORTANT INFORMATION: All symmetrisations will be switched off!
NOSYMM: (Re-)initialisation of all symmetry stuff for point group C_1.


----------------------------------------------------------------------------------------

                                     Primitive cell                                     

  volume of cell :    3874.8846

  direct lattice vectors                    reciprocal lattice vectors
    17.271038055  0.000000000  0.000000000     0.057900399  0.033428811  0.000000000
    -8.635519028 14.957157706  0.000000000     0.000000000  0.066857622  0.000000000
     0.000000000  0.000000000 15.000000000     0.000000000  0.000000000  0.066666667

  length of vectors
    17.271038055 17.271038055 15.000000000     0.066857622  0.066857622  0.066666667

  position of ions in fractional coordinates (direct lattice)
     0.000535047  0.000988246  0.503241327
     0.999579828  0.143200910  0.502855473
     0.999342314  0.286260215  0.502716315
     0.999677259  0.429567532  0.503017404
     0.000658565  0.572697533  0.503347132
     0.002128243  0.716021568  0.503346676
     0.002070627  0.859171774  0.503307526
     0.144898854  0.002746875  0.502386498
     0.144140745  0.145256727  0.502097962
     0.142288797  0.286264182  0.501636389
     0.142406758  0.429175189  0.501756267
     0.144355672  0.572027610  0.502232819
     0.144976031  0.715276371  0.502454644
     0.144964118  0.859033381  0.502412024
     0.287489966  0.002293042  0.502203526
     0.288044439  0.147050504  0.501979030
     0.288767279  0.294168766  0.501428684
     0.284632090  0.428766885  0.501156265
     0.289176841  0.567736365  0.501519349
     0.288146985  0.714143668  0.502063776
     0.287524628  0.858350549  0.502228934
     0.430038241  0.001642642  0.503103179
     0.430078181  0.146506636  0.502925008
     0.430126607  0.856830267  0.502985734
     0.571911569  0.000362552  0.504232958
     0.571880583  0.144836531  0.504177695
     0.574131585  0.292586306  0.503895747
     0.574260697  0.854899944  0.504025580
     0.713959293  0.999201918  0.504420929
     0.714278681  0.143778085  0.504615923
     0.713937688  0.288002126  0.504391984
     0.709704938  0.429053181  0.504512323
     0.709607486  0.853832976  0.504638582
     0.856519012  0.999463405  0.503946395
     0.856510241  0.143051944  0.503931230
     0.856527639  0.286697405  0.504017786
     0.856576351  0.430263375  0.504029959
     0.857190735  0.573471294  0.504250346
     0.859454745  0.716256358  0.504371089
     0.857111567  0.856789180  0.504229478
     0.048356462  0.096568251  0.502708870
     0.046718031  0.238313825  0.502300242
     0.046803589  0.381584170  0.502418259
     0.048526312  0.524961510  0.502839286
     0.049336107  0.668106674  0.503022317
     0.049580184  0.811344691  0.503023343
     0.049255510  0.954285603  0.502960181
     0.192387456  0.098114847  0.502079427
     0.191808804  0.240747639  0.501615749
     0.188983884  0.381016718  0.501402789
     0.192110660  0.524218072  0.501778473
     0.192504321  0.667416876  0.502176097
     0.192463182  0.810989105  0.502241825
     0.192426419  0.954565194  0.502206449
     0.335023404  0.098527012  0.502307822
     0.339219941  0.243762691  0.501883875
     0.339468311  0.668703954  0.501966576
     0.335081433  0.809661398  0.502359177
     0.334702772  0.953928186  0.502417622
     0.477079303  0.097429916  0.503443790
     0.474842986  0.242939817  0.503041561
     0.474926150  0.805191859  0.503144413
     0.477096453  0.952927338  0.503469767
     0.618943809  0.096130410  0.504472983
     0.618890634  0.240938238  0.504212858
     0.618931611  0.951288186  0.504303229
     0.761470144  0.095397325  0.504483971
     0.761465896  0.239326498  0.504492807
     0.760852248  0.383488299  0.504365040
     0.760159476  0.530042859  0.504753662
     0.763520871  0.668399358  0.504948768
     0.760043536  0.803151051  0.504814048
     0.760833667  0.950576947  0.504383192
     0.903967829  0.094808406  0.503570648
     0.903967689  0.238593918  0.503639063
     0.904040164  0.382374357  0.503716777
     0.904863863  0.525642901  0.503863850
     0.906465930  0.668440583  0.504065980
     0.906410588  0.811106102  0.504042947
     0.904762886  0.952280691  0.503781038
     0.429125680  0.287738496  0.502403727
     0.429267095  0.714741820  0.502490360
     0.716968563  0.576394296  0.505134218
     0.717031964  0.713696730  0.505225681
     0.331499758  0.383850342  0.501156252
     0.331880443  0.520619286  0.501163831
     0.619813215  0.383119515  0.504167155
     0.619856537  0.810090734  0.504332078
     0.464467658  0.522434789  0.500670826
     0.533168326  0.489957804  0.502075799
     0.528521182  0.543885514  0.500000000

  ion indices of the primitive-cell ions
   primitive index   ion index
                 1           1
                 2           2
                 3           3
                 4           4
                 5           5
                 6           6
                 7           7
                 8           8
                 9           9
                10          10
                11          11
                12          12
                13          13
                14          14
                15          15
                16          16
                17          17
                18          18
                19          19
                20          20
                21          21
                22          22
                23          23
                24          24
                25          25
                26          26
                27          27
                28          28
                29          29
                30          30
                31          31
                32          32
                33          33
                34          34
                35          35
                36          36
                37          37
                38          38
                39          39
                40          40
                41          41
                42          42
                43          43
                44          44
                45          45
                46          46
                47          47
                48          48
                49          49
                50          50
                51          51
                52          52
                53          53
                54          54
                55          55
                56          56
                57          57
                58          58
                59          59
                60          60
                61          61
                62          62
                63          63
                64          64
                65          65
                66          66
                67          67
                68          68
                69          69
                70          70
                71          71
                72          72
                73          73
                74          74
                75          75
                76          76
                77          77
                78          78
                79          79
                80          80
                81          81
                82          82
                83          83
                84          84
                85          85
                86          86
                87          87
                88          88
                89          89
                90          90
                91          91

----------------------------------------------------------------------------------------

 
 
 KPOINTS: Automatic mesh                          

Automatic generation of k-mesh.
 Grid dimensions read from file:
 generate k-points for:    2    2    1

 Generating k-lattice:

  Cartesian coordinates                     Fractional coordinates (reciprocal lattice)
     0.028950200  0.016714406  0.000000000     0.500000000  0.000000000  0.000000000
     0.000000000  0.033428811  0.000000000     0.000000000  0.500000000  0.000000000
     0.000000000  0.000000000  0.066666667     0.000000000  0.000000000  1.000000000

  Length of vectors
     0.033428811  0.033428811  0.066666667

  Shift w.r.t. Gamma in fractional coordinates (k-lattice)
     0.000000000  0.000000000  0.000000000

 
 Subroutine IBZKPT returns following result:
 ===========================================
 
 Found      4 irreducible k-points:
 
 Following reciprocal coordinates:
            Coordinates               Weight
  0.000000  0.000000  0.000000      1.000000
  0.500000  0.000000  0.000000      1.000000
  0.000000  0.500000  0.000000      1.000000
  0.500000  0.500000  0.000000      1.000000
 
 Following cartesian coordinates:
            Coordinates               Weight
  0.000000  0.000000  0.000000      1.000000
  0.028950  0.016714  0.000000      1.000000
  0.000000  0.033429  0.000000      1.000000
  0.028950  0.050143  0.000000      1.000000
 


--------------------------------------------------------------------------------------------------------




 Dimension of arrays:
   k-points           NKPTS =      4   k-points in BZ     NKDIM =      4   number of bands    NBANDS=    240
   number of dos      NEDOS =    301   number of ions     NIONS =     91
   non local maximal  LDIM  =      4   non local SUM 2l+1 LMDIM =      8
   total plane-waves  NPLWV = 774144
   max r-space proj   IRMAX =   1673   max aug-charges    IRDMAX=  20933
   dimension x,y,z NGX =    96 NGY =   96 NGZ =   84
   dimension x,y,z NGXF=   192 NGYF=  192 NGZF=  168
   support grid    NGXF=   384 NGYF=  384 NGZF=  336
   ions per type =              80   8   2   1
   NGX,Y,Z   is equivalent  to a cutoff of   9.24,  9.24,  9.31 a.u.
   NGXF,Y,Z  is equivalent  to a cutoff of  18.48, 18.48, 18.62 a.u.

 SYSTEM =  unknown system                          
 POSCAR =  C    N    H    O                        

 Startparameter for this run:
   NWRITE =      2    write-flag & timer
   PREC   = normal    normal or accurate (medium, high low for compatibility)
   ISTART =      0    job   : 0-new  1-cont  2-samecut
   ICHARG =      2    charge: 1-file 2-atom 10-const
   ISPIN  =      2    spin polarized calculation?
   LNONCOLLINEAR =      F non collinear calculations
   LSORBIT =      F    spin-orbit coupling
   INIWAV =      1    electr: 0-lowe 1-rand  2-diag
   LASPH  =      T    aspherical Exc in radial PAW
 Electronic Relaxation 1
   ENCUT  =  520.0 eV  38.22 Ry    6.18 a.u.  32.11 32.11 27.89*2*pi/ulx,y,z
   ENINI  =  520.0     initial cutoff
   ENAUG  =  644.9 eV  augmentation charge cutoff
   NELM   =    200;   NELMIN=  2; NELMDL= -5     # of ELM steps 
   EDIFF  = 0.1E-05   stopping-criterion for ELM
   LREAL  =      T    real-space projection
   NLSPLINE    = F    spline interpolate recip. space projectors
   LCOMPAT=      F    compatible to vasp.4.4
   GGA_COMPAT  = T    GGA compatible to vasp.4.4-vasp.4.6
   LMAXPAW     = -100 max onsite density
   LMAXMIX     =    2 max onsite mixed and CHGCAR
   VOSKOWN=      0    Vosko Wilk Nusair interpolation
   ROPT   =   -0.00050  -0.00050  -0.00050  -0.00050
 Ionic relaxation
   EDIFFG = -.3E-01   stopping-criterion for IOM
   NSW    =    300    number of steps for IOM
   NBLOCK =      1;   KBLOCK =    300    inner block; outer block 
   IBRION =      3    ionic relax: 0-MD 1-quasi-New 2-CG
   NFREE  =      0    steps in history (QN), initial steepest desc. (CG)
   ISIF   =      2    stress and relaxation
   IWAVPR =     11    prediction:  0-non 1-charg 2-wave 3-comb
   ISYM   =      0    0-nonsym 1-usesym 2-fastsym
   LCORR  =      T    Harris-Foulkes like correction to forces

   POTIM  = 0.0000    time-step for ionic-motion
   TEIN   =    0.0    initial temperature
   TEBEG  =    0.0;   TEEND  =   0.0 temperature during run
   SMASS  =  -3.00    Nose mass-parameter (am)
   estimated Nose-frequenzy (Omega)   =  0.10E-29 period in steps = 0.00E+00 mass=  -0.682E-26a.u.
   SCALEE = 1.0000    scale energy and forces
   NPACO  =    256;   APACO  = 10.0  distance and # of slots for P.C.
   PSTRESS=    0.0 pullay stress

  Mass of Ions in am
   POMASS =  12.01 14.00  1.00 16.00
  Ionic Valenz
   ZVAL   =   4.00  5.00  1.00  6.00
  Atomic Wigner-Seitz radii
   RWIGS  =  -1.00 -1.00 -1.00 -1.00
  virtual crystal weights 
   VCA    =   1.00  1.00  1.00  1.00
   NELECT =     368.0000    total number of electrons
   NUPDOWN=      -1.0000    fix difference up-down

 DOS related values:
   EMIN   =  10.00;   EMAX   =-10.00  energy-range for DOS
   EFERMI =   0.00;   METHOD = LEGACY      
   ISMEAR =     0;   SIGMA  =   0.05  broadening in eV -4-tet -1-fermi 0-gaus

 Electronic relaxation 2 (details)
   IALGO  =     38    algorithm
   LDIAG  =      T    sub-space diagonalisation (order eigenvalues)
   LSUBROT=      F    optimize rotation matrix (better conditioning)
   TURBO    =      0    0=normal 1=particle mesh
   IRESTART =      0    0=no restart 2=restart with 2 vectors
   NREBOOT  =      0    no. of reboots
   NMIN     =      0    reboot dimension
   EREF     =   0.00    reference energy to select bands
   IMIX   =      4    mixing-type and parameters
     AMIX     =   0.20;   BMIX     =  0.00
     AMIX_MAG =   0.80;   BMIX_MAG =  0.00
     AMIN     =   0.10
     WC   =   100.;   INIMIX=   1;  MIXPRE=   1;  MAXMIX= -45

 Intra band minimization:
   WEIMIN = 0.0010     energy-eigenvalue tresh-hold
   EBREAK =  0.10E-08  absolut break condition
   DEPER  =   0.30     relativ break condition  

   TIME   =   0.40     timestep for ELM

  volume/ion in A,a.u.               =      42.58       287.35
  Fermi-wavevector in a.u.,A,eV,Ry     =   0.746915  1.411465  7.590446  0.557882
  Thomas-Fermi vector in A             =   1.842848
 
 Write flags
   LWAVE        =      F    write WAVECAR
   LDOWNSAMPLE  =      F    k-point downsampling of WAVECAR
   LCHARG       =      F    write CHGCAR
   LVTOT        =      F    write LOCPOT, total local potential
   LVHAR        =      F    write LOCPOT, Hartree potential only
   LELF         =      F    write electronic localiz. function (ELF)
   LORBIT       =      0    0 simple, 1 ext, 2 COOP (PROOUT), +10 PAW based schemes


 Dipole corrections
   LMONO  =      F    monopole corrections only (constant potential shift)
   LDIPOL =      F    correct potential (dipole corrections)
   IDIPOL =      0    1-x, 2-y, 3-z, 4-all directions 
   EPSILON=  1.0000000 bulk dielectric constant

 Exchange correlation treatment:
   GGA     =    --    GGA type
   LEXCH   =     8    internal setting for exchange type
   LIBXC   =     F    Libxc                    
   VOSKOWN =     0    Vosko Wilk Nusair interpolation
   LHFCALC =     F    Hartree Fock is set to
   LHFONE  =     F    Hartree Fock one center treatment
   AEXX    =    0.0000 exact exchange contribution

 Linear response parameters
   LEPSILON=     F    determine dielectric tensor
   LRPA    =     F    only Hartree local field effects (RPA)
   LNABLA  =     F    use nabla operator in PAW spheres
   LVEL    =     F    velocity operator in full k-point grid
   CSHIFT  =0.1000    complex shift for real part using Kramers Kronig
   OMEGAMAX=  -1.0    maximum frequency
   DEG_THRESHOLD= 0.2000000E-02 threshold for treating states as degnerate
   RTIME   =   -0.100 relaxation time in fs
  (WPLASMAI=    0.000 imaginary part of plasma frequency in eV, 0.658/RTIME)
   DFIELD  = 0.0000000 0.0000000 0.0000000 field for delta impulse in time
 
  Optional k-point grid parameters
   LKPOINTS_OPT  =     F    use optional k-point grid
   KPOINTS_OPT_MODE=     1    mode for optional k-point grid
 
 Orbital magnetization related:
   ORBITALMAG=     F  switch on orbital magnetization
   LCHIMAG   =     F  perturbation theory with respect to B field
   DQ        =  0.001000  dq finite difference perturbation B field
   LLRAUG    =     F  two centre corrections for induced B field
   LBONE     =     F  B-component reconstruction in AE one-centre
   LVGVCALC  =     T  calculate vGv susceptibility
   LVGVAPPL  =     F  apply vGv susceptibility instead of pGv for G=0

 Random number generation:
   RANDOM_GENERATOR = DEFAULT
   PCG_SEED         = not used


--------------------------------------------------------------------------------------------------------


 quickmin algorithm: (dynamic with friction)
   using selective dynamics as specified on POSCAR
 charge density and potential will be updated during run
 spin polarized calculation
 Variant of blocked Davidson
 Davidson routine will perform the subspace rotation
 perform sub-space diagonalisation
    after iterative eigenvector-optimisation
 modified Broyden-mixing scheme, WC =      100.0
 initial mixing is a Kerker type mixing with AMIX =  0.2000 and BMIX =      0.0001
 Hartree-type preconditioning will be used
 using additional bands           56
 real space projection scheme for non local part
 use partial core corrections
 calculate Harris-corrections to forces 
   (improved forces if not selfconsistent)
 use gradient corrections 
 use of overlap-Matrix (Vanderbilt PP)
 Gauss-broadening in eV      SIGMA  =   0.05


--------------------------------------------------------------------------------------------------------


  energy-cutoff  :      520.00
  volume of cell :     3874.88
      direct lattice vectors                 reciprocal lattice vectors
    17.271038055  0.000000000  0.000000000     0.057900399  0.033428811  0.000000000
    -8.635519028 14.957157706  0.000000000     0.000000000  0.066857622  0.000000000
     0.000000000  0.000000000 15.000000000     0.000000000  0.000000000  0.066666667

  length of vectors
    17.271038055 17.271038055 15.000000000     0.066857622  0.066857622  0.066666667


 
 k-points in units of 2pi/SCALE and weight: Automatic mesh                          
   0.00000000  0.00000000  0.00000000       0.250
   0.02895020  0.01671441  0.00000000       0.250
   0.00000000  0.03342881  0.00000000       0.250
   0.02895020  0.05014322  0.00000000       0.250
 
 k-points in reciprocal lattice and weights: Automatic mesh                          
   0.00000000  0.00000000  0.00000000       0.250
   0.50000000  0.00000000  0.00000000       0.250
   0.00000000  0.50000000  0.00000000       0.250
   0.50000000  0.50000000  0.00000000       0.250
 
 position of ions in fractional coordinates (direct lattice) 
   0.00053505  0.00098825  0.50324133
   0.99957983  0.14320091  0.50285547
   0.99934231  0.28626022  0.50271632
   0.99967726  0.42956753  0.50301740
   0.00065857  0.57269753  0.50334713
   0.00212824  0.71602157  0.50334668
   0.00207063  0.85917177  0.50330753
   0.14489885  0.00274688  0.50238650
   0.14414075  0.14525673  0.50209796
   0.14228880  0.28626418  0.50163639
   0.14240676  0.42917519  0.50175627
   0.14435567  0.57202761  0.50223282
   0.14497603  0.71527637  0.50245464
   0.14496412  0.85903338  0.50241202
   0.28748997  0.00229304  0.50220353
   0.28804444  0.14705050  0.50197903
   0.28876728  0.29416877  0.50142868
   0.28463209  0.42876688  0.50115626
   0.28917684  0.56773636  0.50151935
   0.28814698  0.71414367  0.50206378
   0.28752463  0.85835055  0.50222893
   0.43003824  0.00164264  0.50310318
   0.43007818  0.14650664  0.50292501
   0.43012661  0.85683027  0.50298573
   0.57191157  0.00036255  0.50423296
   0.57188058  0.14483653  0.50417769
   0.57413159  0.29258631  0.50389575
   0.57426070  0.85489994  0.50402558
   0.71395929  0.99920192  0.50442093
   0.71427868  0.14377809  0.50461592
   0.71393769  0.28800213  0.50439198
   0.70970494  0.42905318  0.50451232
   0.70960749  0.85383298  0.50463858
   0.85651901  0.99946341  0.50394639
   0.85651024  0.14305194  0.50393123
   0.85652764  0.28669740  0.50401779
   0.85657635  0.43026337  0.50402996
   0.85719074  0.57347129  0.50425035
   0.85945475  0.71625636  0.50437109
   0.85711157  0.85678918  0.50422948
   0.04835646  0.09656825  0.50270887
   0.04671803  0.23831382  0.50230024
   0.04680359  0.38158417  0.50241826
   0.04852631  0.52496151  0.50283929
   0.04933611  0.66810667  0.50302232
   0.04958018  0.81134469  0.50302334
   0.04925551  0.95428560  0.50296018
   0.19238746  0.09811485  0.50207943
   0.19180880  0.24074764  0.50161575
   0.18898388  0.38101672  0.50140279
   0.19211066  0.52421807  0.50177847
   0.19250432  0.66741688  0.50217610
   0.19246318  0.81098910  0.50224182
   0.19242642  0.95456519  0.50220645
   0.33502340  0.09852701  0.50230782
   0.33921994  0.24376269  0.50188388
   0.33946831  0.66870395  0.50196658
   0.33508143  0.80966140  0.50235918
   0.33470277  0.95392819  0.50241762
   0.47707930  0.09742992  0.50344379
   0.47484299  0.24293982  0.50304156
   0.47492615  0.80519186  0.50314441
   0.47709645  0.95292734  0.50346977
   0.61894381  0.09613041  0.50447298
   0.61889063  0.24093824  0.50421286
   0.61893161  0.95128819  0.50430323
   0.76147014  0.09539733  0.50448397
   0.76146590  0.23932650  0.50449281
   0.76085225  0.38348830  0.50436504
   0.76015948  0.53004286  0.50475366
   0.76352087  0.66839936  0.50494877
   0.76004354  0.80315105  0.50481405
   0.76083367  0.95057695  0.50438319
   0.90396783  0.09480841  0.50357065
   0.90396769  0.23859392  0.50363906
   0.90404016  0.38237436  0.50371678
   0.90486386  0.52564290  0.50386385
   0.90646593  0.66844058  0.50406598
   0.90641059  0.81110610  0.50404295
   0.90476289  0.95228069  0.50378104
   0.42912568  0.28773850  0.50240373
   0.42926710  0.71474182  0.50249036
   0.71696856  0.57639430  0.50513422
   0.71703196  0.71369673  0.50522568
   0.33149976  0.38385034  0.50115625
   0.33188044  0.52061929  0.50116383
   0.61981321  0.38311952  0.50416716
   0.61985654  0.81009073  0.50433208
   0.46446766  0.52243479  0.50067083
   0.53316833  0.48995780  0.50207580
   0.52852118  0.54388551  0.50000000
 
 position of ions in cartesian coordinates  (Angst):
   0.00070680  0.01478135  7.54861991
  16.02716706  2.14187859  7.54283209
  14.78767359  4.28163918  7.54074473
  13.55592538  6.42510932  7.54526105
  -4.93416634  8.56592732  7.55020699
  -6.14646092 10.70964752  7.55020014
  -7.38363233 12.85076772  7.54961289
   2.47883292  0.04108545  7.53579747
   1.23509307  2.17262777  7.53146943
  -0.01456457  4.28169852  7.52454583
  -1.24663798  6.41924099  7.52634401
  -2.44658300  8.55590717  7.53349228
  -3.67289617 10.69850148  7.53681966
  -4.91451831 12.84869776  7.53618036
   4.94544853  0.03429740  7.53305289
   3.70496905  2.19945757  7.52968545
   2.44701069  4.39992862  7.52143026
   1.21326707  6.41313392  7.51734397
   0.09168605  8.49172234  7.52279023
  -1.19040369 10.68155946  7.53095663
  -2.44645370 12.83848452  7.53343401
   7.41302175  0.02456925  7.54654768
   6.16273579  2.19132286  7.54387513
   0.02955892 12.81574543  7.54478601
   9.87437564  0.00542275  7.56349437
   8.62623269  2.16634284  7.56266542
   7.38921385  4.37625952  7.55843620
   2.53557361 12.78687329  7.56038370
   3.70219094 14.94522067  7.56631394
  11.09473589  2.15051150  7.56923884
   9.84339714  4.30769322  7.56587976
   8.55224408  6.41741609  7.56768485
   4.88236699 12.77091448  7.56957873
   6.16208719 14.94913177  7.55919592
  13.55749319  2.13965048  7.55896846
  12.31734056  4.28817830  7.56026678
  11.07841520  6.43551715  7.56044938
   9.85235154  8.57750059  7.56375519
   8.65843020 10.71315931  7.56556634
   7.40438723 12.81513088  7.56344217
   0.00124934  1.44438655  7.54063305
  -1.25109467  3.56449746  7.53450364
  -2.48683080  5.70741460  7.53627388
  -3.69521531  7.85193209  7.54258929
  -4.91736212  9.99297689  7.54533475
  -6.15008127 12.13541050  7.54535014
  -7.39005770 14.27340027  7.54440272
   2.47545845  1.46751924  7.53119141
   1.23375634  3.60090040  7.52423624
  -0.02632927  5.69892714  7.52104183
  -1.20894462  7.84081238  7.52667710
  -2.43874168  9.98265947  7.53264146
  -3.67927290 12.13009194  7.53362737
  -4.91976188 14.27758214  7.53309673
   4.93537007  1.47368406  7.53461733
   3.75366316  3.64599702  7.52825813
   0.08836440 10.00191050  7.52949864
  -1.20464223 12.11023323  7.53538766
  -2.45700069 14.26805431  7.53626434
   7.39829690  1.45727462  7.55165685
   6.10311987  3.63368916  7.54562342
   1.24921799 12.04338162  7.54716619
   0.01092885 14.25308447  7.55204651
   9.85966609  1.43783771  7.56709474
   8.60825695  3.60375123  7.56319287
   2.47472418 14.22856742  7.56454844
  12.32757442  1.42687284  7.56725957
  11.08459795  3.57964417  7.56739211
   9.82908763  5.73589496  7.56547561
   8.55154804  7.92793463  7.57130494
   7.41482265  9.99735461  7.57423152
   6.19111466 12.01285693  7.57221072
   4.93166190 14.21792931  7.56574788
  14.79374298  1.41806428  7.55355972
  13.55207803  3.56868686  7.55458594
  12.31171105  5.71923355  7.55575165
  11.08873894  7.86212377  7.55795775
   9.88327621  9.99797122  7.56098970
   8.65032958 12.13184188  7.56064421
   7.40275621 14.24341247  7.55671558
   4.92667469  4.30375006  7.53605591
   1.24172175 10.69050611  7.53735540
   7.40532742  8.62122038  7.57701327
   6.22074464 10.67487455  7.57838521
   2.41059800  5.74131009  7.51734378
   1.23610201  7.78698476  7.51745747
   7.39638175  5.73037901  7.56250733
   3.71001189 12.11665486  7.56498117
   3.51034302  7.81413953  7.51006238
   4.97733051  7.32837615  7.53113698
   4.43137574  8.13498141  7.50000000
 


--------------------------------------------------------------------------------------------------------


 k-point   1 :   0.0000 0.0000 0.0000  plane waves:  104449
 k-point   2 :   0.5000 0.0000 0.0000  plane waves:  104264
 k-point   3 :   0.0000 0.5000 0.0000  plane waves:  104264
 k-point   4 :   0.5000 0.5000 0.0000  plane waves:  104264

 maximum and minimum number of plane-waves per node :    104449   104264

 maximum number of plane-waves:    104449
 maximum index in each direction: 
   IXMAX=   32   IYMAX=   32   IZMAX=   27
   IXMIN=  -32   IYMIN=  -32   IZMIN=  -27


 serial   3D FFT for wavefunctions
 parallel 3D FFT for charge:
    minimum data exchange during FFTs selected (reduces bandwidth)


 total amount of memory used by VASP MPI-rank0   344421. kBytes
=======================================================================

   base      :      30000. kBytes
   nonlr-proj:       8829. kBytes
   fftplans  :      49947. kBytes
   grid      :      93499. kBytes
   one-center:        559. kBytes
   wavefun   :     161587. kBytes
 
     INWAV:  cpu time      0.0000: real time      0.0000
 Broyden mixing: mesh for mixing (old mesh)
   NGX = 65   NGY = 65   NGZ = 55
  (NGX  =192   NGY  =192   NGZ  =168)
  gives a total of 232375 points

 initial charge density was supplied:
 charge density of overlapping atoms calculated
 number of electron     368.0000000 magnetization       0.0000000
 keeping initial charge density in first step


--------------------------------------------------------------------------------------------------------


 Maximum index for non-local projection operator         1592
 Maximum index for augmentation-charges         1497 (set IRDMAX)


--------------------------------------------------------------------------------------------------------


 First call to EWALD:  gamma=   0.113
 Maximum number of real-space cells 3x 3x 3
 Maximum number of reciprocal cells 3x 3x 3

    FEWALD:  cpu time      0.0040: real time      0.0040


--------------------------------------- Ionic step        1  -------------------------------------------




--------------------------------------- Iteration      1(   1)  ---------------------------------------


    POTLOK:  cpu time      0.6373: real time      0.7312
    SETDIJ:  cpu time      1.2660: real time      1.3350
     EDDAV:  cpu time     39.9131: real time     40.6174
       DOS:  cpu time      0.0022: real time      0.0217
    --------------------------------------------
      LOOP:  cpu time     41.8187: real time     42.7054

 eigenvalue-minimisations  :  4080
 total energy-change (2. order) : 0.3484686E+04  (-0.1379099E+05)
 number of electron     368.0000000 magnetization       0.0000000
 augmentation part      368.0000000 magnetization       0.0000000

 Free energy of the ion-electron system (eV)
  ---------------------------------------------------
  alpha Z        PSCENC =       175.06488379
  Ewald energy   TEWEN  =     36509.75132859
  -Hartree energ DENC   =    -47332.86609982
  -exchange      EXHF   =         0.00000000
  -V(xc)+E(xc)   XCENC  =      1240.56333387
  PAW double counting   =     10672.04303313   -10728.93979680
  entropy T*S    EENTRO =        -0.03791420
  eigenvalues    EBANDS =     -1396.42501528
  atomic energy  EATOM  =     14345.53195627
  Solvation  Ediel_sol  =         0.00000000
  ---------------------------------------------------
  free energy    TOTEN  =      3484.68570956 eV

  energy without entropy =     3484.72362376  energy(sigma->0) =     3484.70466666


--------------------------------------------------------------------------------------------------------




--------------------------------------- Iteration      1(   2)  ---------------------------------------


     EDDAV:  cpu time     49.9030: real time     51.7992
       DOS:  cpu time      0.0018: real time      0.0266
    --------------------------------------------
      LOOP:  cpu time     49.9048: real time     51.8258

 eigenvalue-minimisations  :  5720
 total energy-change (2. order) :-0.3652691E+04  (-0.3476684E+04)
 number of electron     368.0000000 magnetization       0.0000000
 augmentation part      368.0000000 magnetization       0.0000000

 Free energy of the ion-electron system (eV)
  ---------------------------------------------------
  alpha Z        PSCENC =       175.06488379
  Ewald energy   TEWEN  =     36509.75132859
  -Hartree energ DENC   =    -47332.86609982
  -exchange      EXHF   =         0.00000000
  -V(xc)+E(xc)   XCENC  =      1240.56333387
  PAW double counting   =     10672.04303313   -10728.93979680
  entropy T*S    EENTRO =        -0.00000037
  eigenvalues    EBANDS =     -5049.15419662
  atomic energy  EATOM  =     14345.53195627
  Solvation  Ediel_sol  =         0.00000000
  ---------------------------------------------------
  free energy    TOTEN  =      -168.00555796 eV

  energy without entropy =     -168.00555759  energy(sigma->0) =     -168.00555777


--------------------------------------------------------------------------------------------------------




--------------------------------------- Iteration      1(   3)  ---------------------------------------


     EDDAV:  cpu time     43.0377: real time     43.8630
       DOS:  cpu time      0.0016: real time      0.0464
    --------------------------------------------
      LOOP:  cpu time     43.0392: real time     43.9094

 eigenvalue-minimisations  :  4640
 total energy-change (2. order) :-0.6736940E+03  (-0.6707656E+03)
 number of electron     368.0000000 magnetization       0.0000000
 augmentation part      368.0000000 magnetization       0.0000000

 Free energy of the ion-electron system (eV)
  ---------------------------------------------------
  alpha Z        PSCENC =       175.06488379
  Ewald energy   TEWEN  =     36509.75132859
  -Hartree energ DENC   =    -47332.86609982
  -exchange      EXHF   =         0.00000000
  -V(xc)+E(xc)   XCENC  =      1240.56333387
  PAW double counting   =     10672.04303313   -10728.93979680
  entropy T*S    EENTRO =        -0.00000034
  eigenvalues    EBANDS =     -5722.84820617
  atomic energy  EATOM  =     14345.53195627
  Solvation  Ediel_sol  =         0.00000000
  ---------------------------------------------------
  free energy    TOTEN  =      -841.69956747 eV

  energy without entropy =     -841.69956713  energy(sigma->0) =     -841.69956730


--------------------------------------------------------------------------------------------------------




--------------------------------------- Iteration      1(   4)  ---------------------------------------


     EDDAV:  cpu time     43.4158: real time     44.2573
       DOS:  cpu time      0.0015: real time      0.0289
    --------------------------------------------
      LOOP:  cpu time     43.4174: real time     44.2863

 eigenvalue-minimisations  :  4660
 total energy-change (2. order) :-0.2395770E+02  (-0.2383694E+02)
 number of electron     368.0000000 magnetization       0.0000000
 augmentation part      368.0000000 magnetization       0.0000000

 Free energy of the ion-electron system (eV)
  ---------------------------------------------------
  alpha Z        PSCENC =       175.06488379
  Ewald energy   TEWEN  =     36509.75132859
  -Hartree energ DENC   =    -47332.86609982
  -exchange      EXHF   =         0.00000000
  -V(xc)+E(xc)   XCENC  =      1240.56333387
  PAW double counting   =     10672.04303313   -10728.93979680
  entropy T*S    EENTRO =        -0.00000035
  eigenvalues    EBANDS =     -5746.80590920
  atomic energy  EATOM  =     14345.53195627
  Solvation  Ediel_sol  =         0.00000000
  ---------------------------------------------------
  free energy    TOTEN  =      -865.65727051 eV

  energy without entropy =     -865.65727017  energy(sigma->0) =     -865.65727034


--------------------------------------------------------------------------------------------------------




--------------------------------------- Iteration      1(   5)  ---------------------------------------


     EDDAV:  cpu time     49.8017: real time     50.8154
       DOS:  cpu time      0.0023: real time      0.0182
    CHARGE:  cpu time      2.7580: real time      2.7883
    MIXING:  cpu time      0.0228: real time      0.0229
    --------------------------------------------
      LOOP:  cpu time     52.5847: real time     53.6448

 eigenvalue-minimisations  :  5580
 total energy-change (2. order) :-0.7348557E+00  (-0.7337037E+00)
 number of electron     368.0000002 magnetization       0.0000000
 augmentation part       11.1415082 magnetization       0.0005549

 Broyden mixing:
  rms(total) = 0.42786E+01    rms(broyden)= 0.42778E+01
  rms(prec ) = 0.47808E+01
  weight for this iteration     100.00

 Free energy of the ion-electron system (eV)
  ---------------------------------------------------
  alpha Z        PSCENC =       175.06488379
  Ewald energy   TEWEN  =     36509.75132859
  -Hartree energ DENC   =    -47332.86609982
  -exchange      EXHF   =         0.00000000
  -V(xc)+E(xc)   XCENC  =      1240.56333387
  PAW double counting   =     10672.04303313   -10728.93979680
  entropy T*S    EENTRO =        -0.00000036
  eigenvalues    EBANDS =     -5747.54076487
  atomic energy  EATOM  =     14345.53195627
  Solvation  Ediel_sol  =         0.00000000
  ---------------------------------------------------
  free energy    TOTEN  =      -866.39212619 eV

  energy without entropy =     -866.39212584  energy(sigma->0) =     -866.39212601


--------------------------------------------------------------------------------------------------------




--------------------------------------- Iteration      1(   6)  ---------------------------------------


    POTLOK:  cpu time      0.8295: real time      0.8747
    SETDIJ:  cpu time      1.4111: real time      1.4325
     EDDAV:  cpu time     40.3777: real time     40.9519
       DOS:  cpu time      0.0018: real time      0.0443
    CHARGE:  cpu time      2.8560: real time      2.8978
    MIXING:  cpu time      0.0168: real time      0.0174
    --------------------------------------------
      LOOP:  cpu time     45.4930: real time     46.2185

 eigenvalue-minimisations  :  4440
 total energy-change (2. order) : 0.2883036E+02  (-0.2027349E+01)
 number of electron     368.0000002 magnetization      -0.0000000
 augmentation part       10.6796359 magnetization      -0.0000270

 Broyden mixing:
  rms(total) = 0.32329E+01    rms(broyden)= 0.32329E+01
  rms(prec ) = 0.35506E+01
  weight for this iteration     100.00

 eigenvalues of (default mixing * dielectric matrix)
  average eigenvalue GAMMA=   3.1260
  3.1260

 Free energy of the ion-electron system (eV)
  ---------------------------------------------------
  alpha Z        PSCENC =       175.06488379
  Ewald energy   TEWEN  =     36509.75132859
  -Hartree energ DENC   =    -47756.58193242
  -exchange      EXHF   =         0.00000000
  -V(xc)+E(xc)   XCENC  =      1255.92376621
  PAW double counting   =     14351.80074257   -14412.15673008
  entropy T*S    EENTRO =        -0.00000006
  eigenvalues    EBANDS =     -5306.89578053
  atomic energy  EATOM  =     14345.53195627
  Solvation  Ediel_sol  =         0.00000000
  ---------------------------------------------------
  free energy    TOTEN  =      -837.56176566 eV

  energy without entropy =     -837.56176560  energy(sigma->0) =     -837.56176563


--------------------------------------------------------------------------------------------------------




--------------------------------------- Iteration      1(   7)  ---------------------------------------


    POTLOK:  cpu time      1.0560: real time      1.1295
    SETDIJ:  cpu time      1.3561: real time      1.3663
     EDDAV:  cpu time     42.8163: real time     43.7889
       DOS:  cpu time      0.0025: real time      0.0447
    CHARGE:  cpu time      2.7241: real time      2.7603
    MIXING:  cpu time      0.0374: real time      0.0376
    --------------------------------------------
      LOOP:  cpu time     47.9925: real time     49.1273

 eigenvalue-minimisations  :  4460
 total energy-change (2. order) : 0.2366598E+02  (-0.7974828E+01)
 number of electron     368.0000001 magnetization       0.0004635
 augmentation part        9.7116706 magnetization      -0.0009456

 Broyden mixing:
  rms(total) = 0.19286E+01    rms(broyden)= 0.19264E+01
  rms(prec ) = 0.22058E+01
  weight for this iteration     100.00

 eigenvalues of (default mixing * dielectric matrix)
  average eigenvalue GAMMA=   1.7893
  3.0909  0.4876

 Free energy of the ion-electron system (eV)
  ---------------------------------------------------
  alpha Z        PSCENC =       175.06488379
  Ewald energy   TEWEN  =     36509.75132859
  -Hartree energ DENC   =    -48678.80031240
  -exchange      EXHF   =         0.00000000
  -V(xc)+E(xc)   XCENC  =      1290.21096834
  PAW double counting   =     26132.77270252   -26200.15282219
  entropy T*S    EENTRO =        -0.02291120
  eigenvalues    EBANDS =     -4388.25158017
  atomic energy  EATOM  =     14345.53195627
  Solvation  Ediel_sol  =         0.00000000
  ---------------------------------------------------
  free energy    TOTEN  =      -813.89578645 eV

  energy without entropy =     -813.87287525  energy(sigma->0) =     -813.88433085


--------------------------------------------------------------------------------------------------------




--------------------------------------- Iteration      1(   8)  ---------------------------------------


    POTLOK:  cpu time      0.7462: real time      0.8536
    SETDIJ:  cpu time      1.3233: real time      1.3375
     EDDAV:  cpu time     43.7320: real time     44.5338
       DOS:  cpu time      0.0017: real time      0.0360
    CHARGE:  cpu time      2.7686: real time      2.8195
    MIXING:  cpu time      0.0230: real time      0.0232
    --------------------------------------------
      LOOP:  cpu time     48.5948: real time     49.6037

 eigenvalue-minimisations  :  4580
 total energy-change (2. order) : 0.7215032E+00  (-0.3085814E+01)
 number of electron     368.0000001 magnetization       0.0004541
 augmentation part        9.9210702 magnetization       0.0004390

 Broyden mixing:
  rms(total) = 0.12926E+01    rms(broyden)= 0.12907E+01
  rms(prec ) = 0.13291E+01
  weight for this iteration     100.00

 eigenvalues of (default mixing * dielectric matrix)
  average eigenvalue GAMMA=   2.0540
  4.0989  1.7847  0.2784

 Free energy of the ion-electron system (eV)
  ---------------------------------------------------
  alpha Z        PSCENC =       175.06488379
  Ewald energy   TEWEN  =     36509.75132859
  -Hartree energ DENC   =    -48680.00224077
  -exchange      EXHF   =         0.00000000
  -V(xc)+E(xc)   XCENC  =      1289.91048523
  PAW double counting   =     26722.28781297   -26789.54687367
  entropy T*S    EENTRO =        -0.00000014
  eigenvalues    EBANDS =     -4386.17163554
  atomic energy  EATOM  =     14345.53195627
  Solvation  Ediel_sol  =         0.00000000
  ---------------------------------------------------
  free energy    TOTEN  =      -813.17428326 eV

  energy without entropy =     -813.17428312  energy(sigma->0) =     -813.17428319


--------------------------------------------------------------------------------------------------------




--------------------------------------- Iteration      1(   9)  ---------------------------------------


    POTLOK:  cpu time      0.8199: real time      0.9296
    SETDIJ:  cpu time      1.2845: real time      1.4010
     EDDAV:  cpu time     42.6723: real time     43.7333
       DOS:  cpu time      0.0018: real time      0.0195
    CHARGE:  cpu time      2.7564: real time      2.8199
    MIXING:  cpu time      0.0171: real time      0.0173
    --------------------------------------------
      LOOP:  cpu time     47.5520: real time     48.9206

 eigenvalue-minimisations  :  4440
 total energy-change (2. order) :-0.3861185E+00  (-0.6187569E+00)
 number of electron     368.0000001 magnetization       0.0003828
 augmentation part        9.9449423 magnetization       0.0005197

 Broyden mixing:
  rms(total) = 0.67789E+00    rms(broyden)= 0.67763E+00
  rms(prec ) = 0.74319E+00
  weight for this iteration     100.00

 eigenvalues of (default mixing * dielectric matrix)
  average eigenvalue GAMMA=   2.0291
  4.4267  2.0230  1.3743  0.2926

 Free energy of the ion-electron system (eV)
  ---------------------------------------------------
  alpha Z        PSCENC =       175.06488379
  Ewald energy   TEWEN  =     36509.75132859
  -Hartree energ DENC   =    -48820.00934892
  -exchange      EXHF   =         0.00000000
  -V(xc)+E(xc)   XCENC  =      1295.25732454
  PAW double counting   =     32977.32139424   -33045.48496280
  entropy T*S    EENTRO =        -0.00000017
  eigenvalues    EBANDS =     -4250.99297734
  atomic energy  EATOM  =     14345.53195627
  Solvation  Ediel_sol  =         0.00000000
  ---------------------------------------------------
  free energy    TOTEN  =      -813.56040178 eV

  energy without entropy =     -813.56040162  energy(sigma->0) =     -813.56040170


--------------------------------------------------------------------------------------------------------




--------------------------------------- Iteration      1(  10)  ---------------------------------------


    POTLOK:  cpu time      1.1696: real time      1.2610
    SETDIJ:  cpu time      1.2987: real time      1.4090
     EDDAV:  cpu time     39.9414: real time     40.5131
       DOS:  cpu time      0.0015: real time      0.0217
    CHARGE:  cpu time      2.8901: real time      2.9582
    MIXING:  cpu time      0.0264: real time      0.0266
    --------------------------------------------
      LOOP:  cpu time     45.3278: real time     46.1896

 eigenvalue-minimisations  :  4200
 total energy-change (2. order) : 0.2362366E+00  (-0.6339013E-01)
 number of electron     368.0000001 magnetization       0.0002847
 augmentation part        9.9190621 magnetization       0.0003490

 Broyden mixing:
  rms(total) = 0.42313E+00    rms(broyden)= 0.42312E+00
  rms(prec ) = 0.49147E+00
  weight for this iteration     100.00

 eigenvalues of (default mixing * dielectric matrix)
  average eigenvalue GAMMA=   2.2021
  4.8483  3.1993  1.4817  1.1913  0.2899

 Free energy of the ion-electron system (eV)
  ---------------------------------------------------
  alpha Z        PSCENC =       175.06488379
  Ewald energy   TEWEN  =     36509.75132859
  -Hartree energ DENC   =    -48797.57334487
  -exchange      EXHF   =         0.00000000
  -V(xc)+E(xc)   XCENC  =      1294.93798458
  PAW double counting   =     35320.98060207   -35389.01339063
  entropy T*S    EENTRO =        -0.00000010
  eigenvalues    EBANDS =     -4273.00418484
  atomic energy  EATOM  =     14345.53195627
  Solvation  Ediel_sol  =         0.00000000
  ---------------------------------------------------
  free energy    TOTEN  =      -813.32416515 eV

  energy without entropy =     -813.32416504  energy(sigma->0) =     -813.32416509


--------------------------------------------------------------------------------------------------------




--------------------------------------- Iteration      1(  11)  ---------------------------------------


    POTLOK:  cpu time      0.9899: real time      1.0629
    SETDIJ:  cpu time      1.3717: real time      1.3911
     EDDAV:  cpu time     39.4389: real time     40.7414
       DOS:  cpu time      0.0016: real time      0.0170
    CHARGE:  cpu time      2.7970: real time      2.8479
    MIXING:  cpu time      0.0232: real time      0.0234
    --------------------------------------------
      LOOP:  cpu time     44.6222: real time     46.0837

 eigenvalue-minimisations  :  4240
 total energy-change (2. order) : 0.3321759E+00  (-0.7720853E-01)
 number of electron     368.0000001 magnetization       0.0002433
 augmentation part        9.9246551 magnetization       0.0003038

 Broyden mixing:
  rms(total) = 0.20614E+00    rms(broyden)= 0.20612E+00
  rms(prec ) = 0.26437E+00
  weight for this iteration     100.00

 eigenvalues of (default mixing * dielectric matrix)
  average eigenvalue GAMMA=   2.0257
  4.7707  3.1284  0.2901  1.4840  1.4840  0.9971

 Free energy of the ion-electron system (eV)
  ---------------------------------------------------
  alpha Z        PSCENC =       175.06488379
  Ewald energy   TEWEN  =     36509.75132859
  -Hartree energ DENC   =    -48730.82436454
  -exchange      EXHF   =         0.00000000
  -V(xc)+E(xc)   XCENC  =      1292.97701656
  PAW double counting   =     37076.29215471   -37143.81961746
  entropy T*S    EENTRO =        -0.00000009
  eigenvalues    EBANDS =     -4337.96534709
  atomic energy  EATOM  =     14345.53195627
  Solvation  Ediel_sol  =         0.00000000
  ---------------------------------------------------
  free energy    TOTEN  =      -812.99198926 eV

  energy without entropy =     -812.99198916  energy(sigma->0) =     -812.99198921


--------------------------------------------------------------------------------------------------------




--------------------------------------- Iteration      1(  12)  ---------------------------------------


    POTLOK:  cpu time      1.0861: real time      1.1296
    SETDIJ:  cpu time      1.4272: real time      1.4387
     EDDAV:  cpu time     42.6979: real time     43.3674
       DOS:  cpu time      0.0016: real time      0.0379
    CHARGE:  cpu time      2.8035: real time      2.9220
    MIXING:  cpu time      0.0365: real time      0.0394
    --------------------------------------------
      LOOP:  cpu time     48.0528: real time     48.9350

 eigenvalue-minimisations  :  4460
 total energy-change (2. order) : 0.5263032E-01  (-0.5324524E-02)
 number of electron     368.0000001 magnetization       0.0002011
 augmentation part        9.9282652 magnetization       0.0002327

 Broyden mixing:
  rms(total) = 0.18817E+00    rms(broyden)= 0.18817E+00
  rms(prec ) = 0.24214E+00
  weight for this iteration     100.00

 eigenvalues of (default mixing * dielectric matrix)
  average eigenvalue GAMMA=   2.0078
  4.6993  3.0262  1.9513  1.9513  0.2901  1.0681  1.0681

 Free energy of the ion-electron system (eV)
  ---------------------------------------------------
  alpha Z        PSCENC =       175.06488379
  Ewald energy   TEWEN  =     36509.75132859
  -Hartree energ DENC   =    -48731.23921972
  -exchange      EXHF   =         0.00000000
  -V(xc)+E(xc)   XCENC  =      1293.00666104
  PAW double counting   =     37054.85615064   -37122.36836355
  entropy T*S    EENTRO =        -0.00000009
  eigenvalues    EBANDS =     -4337.54275591
  atomic energy  EATOM  =     14345.53195627
  Solvation  Ediel_sol  =         0.00000000
  ---------------------------------------------------
  free energy    TOTEN  =      -812.93935894 eV

  energy without entropy =     -812.93935884  energy(sigma->0) =     -812.93935889


--------------------------------------------------------------------------------------------------------




--------------------------------------- Iteration      1(  13)  ---------------------------------------


    POTLOK:  cpu time      1.0000: real time      1.1904
    SETDIJ:  cpu time      1.3380: real time      1.3542
     EDDAV:  cpu time     43.6655: real time     44.4368
       DOS:  cpu time      0.0015: real time      0.0272
    CHARGE:  cpu time      2.7373: real time      2.8893
    MIXING:  cpu time      0.0302: real time      0.0308
    --------------------------------------------
      LOOP:  cpu time     48.7725: real time     49.9287

 eigenvalue-minimisations  :  4700
 total energy-change (2. order) : 0.8741670E-01  (-0.4034892E-02)
 number of electron     368.0000001 magnetization       0.0001841
 augmentation part        9.9235711 magnetization       0.0002046

 Broyden mixing:
  rms(total) = 0.15568E+00    rms(broyden)= 0.15568E+00
  rms(prec ) = 0.20096E+00
  weight for this iteration     100.00

 eigenvalues of (default mixing * dielectric matrix)
  average eigenvalue GAMMA=   1.8656
  4.6862  2.5682  2.5682  2.0728  0.2901  1.0563  1.0563  0.6266

[...]
   -.298E+02 -.181E+02 0.199E+01   0.303E+02 0.187E+02 -.199E+01   -.462E+00 -.603E+00 0.525E-02   -.201E-02 0.270E-03 0.162E-04
   -.188E+02 0.297E+01 0.166E+01   0.189E+02 -.295E+01 -.167E+01   -.780E-01 -.129E-01 0.998E-02   -.105E-02 -.351E-03 0.103E-04
   -.396E+01 0.323E+01 0.212E+01   0.397E+01 -.324E+01 -.212E+01   -.110E-01 0.121E-01 0.961E-02   -.295E-03 -.293E-03 0.991E-05
   0.775E+00 -.448E+01 0.217E+01   -.781E+00 0.448E+01 -.218E+01   0.560E-02 -.692E-02 0.972E-02   -.388E-03 -.179E-03 0.102E-04
   0.656E+00 -.137E+02 0.158E+01   -.695E+00 0.138E+02 -.158E+01   0.374E-01 -.116E+00 0.484E-02   -.348E-03 -.121E-02 0.125E-04
   0.227E+02 -.599E+02 0.215E+01   -.251E+02 0.591E+02 -.217E+01   0.239E+01 0.769E+00 0.214E-01   -.990E-03 -.343E-02 0.367E-04
   -.435E+02 0.506E+02 0.212E+01   0.417E+02 -.522E+02 -.214E+01   0.180E+01 0.160E+01 0.215E-01   -.309E-02 0.798E-03 0.212E-04
   -.127E+02 0.826E+01 0.159E+01   0.128E+02 -.837E+01 -.159E+01   -.121E+00 0.108E+00 0.446E-02   -.108E-02 0.208E-03 0.985E-05
   -.403E+01 -.174E+01 0.175E+01   0.407E+01 0.175E+01 -.175E+01   -.317E-01 -.121E-01 0.464E-02   -.511E-03 -.368E-03 0.718E-05
   0.740E+01 -.107E+02 -.690E+00   -.738E+01 0.107E+02 0.693E+00   -.216E-01 0.620E-02 0.138E-02   0.228E-03 -.624E-03 0.764E-05
   -.144E+02 -.557E+02 -.176E+00   0.168E+02 0.549E+02 0.205E+00   -.237E+01 0.723E+00 -.252E-01   0.636E-03 -.269E-02 0.323E-04
   -.580E+02 0.177E+02 -.335E+00   0.586E+02 -.153E+02 0.367E+00   -.652E+00 -.238E+01 -.273E-01   -.172E-02 0.160E-02 0.174E-04
   -.644E+01 0.130E+02 -.650E+00   0.646E+01 -.130E+02 0.652E+00   -.257E-01 0.212E-01 0.234E-02   -.328E-03 0.371E-03 0.653E-05
   0.453E+01 0.325E+01 -.283E+01   -.465E+01 -.334E+01 0.283E+01   0.120E+00 0.935E-01 0.271E-02   0.305E-03 0.955E-04 0.233E-05
   0.244E+02 -.961E+01 -.180E+01   -.251E+02 0.970E+01 0.180E+01   0.700E+00 -.849E-01 0.829E-02   0.103E-02 -.790E-03 0.124E-04
   0.358E+01 0.276E+02 -.204E+01   -.384E+01 -.284E+02 0.204E+01   0.259E+00 0.753E+00 0.977E-02   -.130E-03 0.105E-02 0.936E-05
   0.379E+01 0.122E+02 -.275E+01   -.381E+01 -.122E+02 0.276E+01   0.272E-01 0.427E-01 -.436E-02   0.329E-03 0.583E-03 0.422E-06
   0.118E+02 -.240E+01 -.275E+01   -.118E+02 0.237E+01 0.275E+01   0.131E-01 0.303E-01 -.378E-02   0.747E-03 -.511E-04 0.131E-05
   0.249E+02 -.167E+02 -.183E+01   -.254E+02 0.173E+02 0.184E+01   0.485E+00 -.592E+00 -.467E-02   0.197E-02 0.918E-04 0.136E-04
   0.430E+02 0.428E+02 -.278E+01   -.414E+02 -.442E+02 0.277E+01   -.157E+01 0.136E+01 0.171E-01   0.442E-02 0.297E-03 0.646E-04
   0.637E+02 0.352E+02 -.310E+01   -.615E+02 -.338E+02 0.308E+01   -.215E+01 -.137E+01 0.232E-01   0.496E-02 0.305E-02 0.106E-03
   0.625E+02 0.172E+02 -.286E+01   -.630E+02 -.152E+02 0.284E+01   0.498E+00 -.202E+01 0.187E-01   0.209E-02 0.353E-02 0.520E-04
   -.144E+01 0.317E+02 -.183E+01   0.169E+01 -.325E+02 0.184E+01   -.256E+00 0.828E+00 -.426E-02   0.937E-03 0.147E-02 0.985E-05
   0.120E+01 0.720E+01 -.441E+00   -.118E+01 -.739E+01 0.439E+00   -.213E-01 0.187E+00 0.655E-02   0.410E-03 -.780E-05 0.357E-05
   0.841E+00 0.630E+00 -.111E+01   -.846E+00 -.640E+00 0.112E+01   0.467E-02 0.834E-02 -.305E-02   0.355E-03 0.216E-03 -.173E-05
   0.609E+01 -.269E+01 -.958E+00   -.622E+01 0.279E+01 0.956E+00   0.131E+00 -.106E+00 0.647E-02   0.262E-03 0.392E-03 0.319E-05
   0.169E+02 0.122E+01 -.887E+00   -.170E+02 -.116E+01 0.881E+00   0.113E+00 -.503E-01 0.945E-02   0.921E-03 -.383E-03 0.133E-04
   0.163E+02 0.870E+01 -.145E+01   -.164E+02 -.884E+01 0.145E+01   0.113E+00 0.138E+00 -.188E-02   0.204E-02 0.404E-03 0.131E-04
   0.166E+02 0.955E+01 -.138E+01   -.168E+02 -.956E+01 0.139E+01   0.214E+00 0.109E-01 -.222E-02   0.127E-02 0.156E-02 0.133E-04
   0.106E+02 0.147E+02 -.662E+00   -.106E+02 -.148E+02 0.656E+00   0.328E-01 0.156E+00 0.109E-01   0.571E-04 0.912E-03 0.125E-04
   0.174E+01 -.222E+03 0.123E+01   -.135E+01 0.257E+03 -.123E+01   -.395E+00 -.345E+02 0.799E-02   0.439E-03 -.698E-02 0.838E-04
   -.199E+03 0.116E+03 0.121E+01   0.229E+03 -.133E+03 -.121E+01   -.307E+02 0.171E+02 0.910E-02   -.504E-02 0.344E-02 0.380E-04
   0.207E+03 0.890E+02 -.575E+01   -.238E+03 -.105E+03 0.594E+01   0.314E+02 0.155E+02 -.178E+00   0.117E-01 0.234E-02 0.220E-03
   0.190E+03 0.135E+03 -.603E+01   -.221E+03 -.154E+03 0.626E+01   0.300E+02 0.197E+02 -.226E+00   0.676E-02 0.885E-02 0.188E-03
   -.182E+03 -.130E+03 0.353E+01   0.211E+03 0.149E+03 -.359E+01   -.283E+02 -.186E+02 0.626E-01   -.744E-02 -.845E-02 0.938E-04
   -.207E+03 -.998E+02 0.372E+01   0.237E+03 0.115E+03 -.380E+01   -.301E+02 -.151E+02 0.895E-01   -.107E-01 -.132E-02 0.657E-04
   0.191E+03 -.113E+03 -.196E+01   -.221E+03 0.129E+03 0.190E+01   0.300E+02 -.169E+02 0.614E-01   0.592E-02 -.404E-02 0.101E-03
   -.178E+01 0.231E+03 -.238E+01   0.137E+01 -.266E+03 0.234E+01   0.404E+00 0.354E+02 0.454E-01   -.610E-03 0.618E-02 0.652E-04
   0.549E+02 0.102E+02 0.251E+00   -.628E+02 -.127E+02 -.176E+00   0.790E+01 0.247E+01 -.782E-01   -.878E-02 -.289E-02 0.862E-04
   -.389E+02 0.571E+02 -.206E+01   0.438E+02 -.638E+02 0.232E+01   -.487E+01 0.671E+01 -.261E+00   0.525E-02 -.739E-02 0.278E-03
   -.348E+01 -.632E+02 0.120E+02   0.183E+02 0.109E+03 -.135E+02   -.148E+02 -.454E+02 0.150E+01   0.132E-02 0.444E-02 -.604E-03
 -----------------------------------------------------------------------------------------------
   0.854E+01 0.322E+02 -.998E+00   0.334E-12 -.441E-12 -.178E-14   -.858E+01 -.323E+02 0.136E+01   0.101E-02 -.754E-02 0.182E-02
 
 
 POSITION                                       TOTAL-FORCE (eV/Angst)
 -----------------------------------------------------------------------------------
      0.00071      0.01478      7.54862        -0.000211     -0.000640      0.000352
     16.02717      2.14188      7.54283         0.000960      0.004136     -0.000694
     14.78767      4.28164      7.54074        -0.000138      0.000450     -0.000019
     13.55593      6.42511      7.54526        -0.000102     -0.000595      0.000186
     -4.93417      8.56593      7.55021        -0.000932      0.002378     -0.000301
     -6.14646     10.70965      7.55020        -0.002335      0.001946     -0.000806
     -7.38363     12.85077      7.54961        -0.000397      0.000038     -0.000448
      2.47883      0.04109      7.53580         0.000180     -0.000211     -0.000107
      1.23509      2.17263      7.53147        -0.000449      0.001092      0.000454
     -0.01456      4.28170      7.52455         0.001116      0.001160      0.000469
     -1.24664      6.41924      7.52634         0.000391      0.000010      0.000620
     -2.44658      8.55591      7.53349         0.000319     -0.000552      0.000431
     -3.67290     10.69850      7.53682        -0.001165      0.001475      0.000125
     -4.91452     12.84870      7.53618        -0.000589      0.000208      0.000052
      4.94545      0.03430      7.53305        -0.000848      0.000624      0.000530
      3.70497      2.19946      7.52969         0.000104     -0.000997      0.000497
      2.44701      4.39993      7.52143         0.000309      0.000863      0.001066
      1.21327      6.41313      7.51734        -0.000164     -0.000177      0.001021
      0.09169      8.49172      7.52279         0.001968      0.000549     -0.000104
     -1.19040     10.68156      7.53096        -0.000108      0.000399      0.000387
     -2.44645     12.83848      7.53343        -0.000555      0.000703      0.000536
      7.41302      0.02457      7.54655        -0.000631      0.003051      0.001271
      6.16274      2.19132      7.54388         0.000111     -0.000445      0.000373
      0.02956     12.81575      7.54479        -0.000016      0.000545      0.000478
      9.87438      0.00542      7.56349        -0.002649     -0.001513      0.001089
      8.62623      2.16634      7.56267         0.000322     -0.000437     -0.000247
      7.38921      4.37626      7.55844         0.000871     -0.000743      0.000023
      2.53557     12.78687      7.56038        -0.000546     -0.000097      0.000789
      3.70219     14.94522      7.56631        -0.000274     -0.000003      0.000170
     11.09474      2.15051      7.56924        -0.000477      0.000213     -0.000676
      9.84340      4.30769      7.56588         0.001202      0.000087     -0.001167
      8.55224      6.41742      7.56768        -0.000436     -0.000152      0.000555
      4.88237     12.77091      7.56958        -0.000516     -0.000201      0.001051
      6.16209     14.94913      7.55920        -0.000218     -0.000785      0.000499
     13.55749      2.13965      7.55897         0.000419      0.002612     -0.000768
     12.31734      4.28818      7.56027        -0.000136     -0.000334     -0.000821
     11.07842      6.43552      7.56045        -0.000590     -0.001071      0.000239
      9.85235      8.57750      7.56376        -0.002640      0.001262      0.000775
      8.65843     10.71316      7.56557        -0.004123      0.001592      0.000182
      7.40439     12.81513      7.56344         0.000244     -0.001349      0.000407
      0.00125      1.44439      7.54063        -0.000598     -0.000368      0.000369
     -1.25109      3.56450      7.53450        -0.001274     -0.005969      0.001621
     -2.48683      5.70741      7.53627        -0.000636      0.000738      0.000311
     -3.69522      7.85193      7.54259        -0.000110      0.000519      0.000654
     -4.91736      9.99298      7.54533         0.005666     -0.007764     -0.000506
     -6.15008     12.13541      7.54535         0.000214      0.000254     -0.000531
     -7.39006     14.27340      7.54440        -0.000604      0.000289      0.000071
      2.47546      1.46752      7.53119         0.001359      0.000552     -0.000371
      1.23376      3.60090      7.52424        -0.001426     -0.001487     -0.000074
     -0.02633      5.69893      7.52104        -0.000111      0.000320      0.000746
     -1.20894      7.84081      7.52668        -0.001110     -0.000203      0.000708
     -2.43874      9.98266      7.53264         0.000043      0.000124      0.000306
     -3.67927     12.13009      7.53363         0.000688     -0.000417      0.000230
     -4.91976     14.27758      7.53310        -0.000248      0.000105      0.000328
      4.93537      1.47368      7.53462        -0.000545      0.001144      0.001329
      3.75366      3.64600      7.52826        -0.000529      0.002115      0.001108
      0.08836     10.00191      7.52950         0.000172      0.000345      0.000591
     -1.20464     12.11023      7.53539        -0.000262      0.000041      0.000521
     -2.45700     14.26805      7.53626         0.001765     -0.001996      0.000528
      7.39830      1.45727      7.55166        -0.000068     -0.000303      0.000138
      6.10312      3.63369      7.54562         0.000426      0.000316      0.000435
      1.24922     12.04338      7.54717         0.000053      0.000526      0.000692
      0.01093     14.25308      7.55205         0.000998     -0.000191      0.000427
      9.85967      1.43784      7.56709         0.000708      0.000326     -0.000285
      8.60826      3.60375      7.56319        -0.003514      0.000793     -0.001272
      2.47472     14.22857      7.56455         0.000510      0.000440      0.000336
     12.32757      1.42687      7.56726        -0.000103     -0.000784     -0.000169
     11.08460      3.57964      7.56739        -0.000001      0.000196     -0.001234
      9.82909      5.73589      7.56548        -0.000446      0.000541     -0.000480
      8.55155      7.92793      7.57130        -0.000396      0.000519     -0.000062
      7.41482      9.99735      7.57423         0.000649     -0.000089      0.000710
      6.19111     12.01286      7.57221        -0.000395     -0.000235      0.001130
      4.93166     14.21793      7.56575        -0.000084      0.000658      0.000531
     14.79374      1.41806      7.55356        -0.000509     -0.000550      0.000646
     13.55208      3.56869      7.55459        -0.000082     -0.001044     -0.000329
     12.31171      5.71923      7.55575         0.000020      0.000220      0.000398
     11.08874      7.86212      7.55796         0.000772      0.000674     -0.000543
      9.88328      9.99797      7.56099         0.000977     -0.001260     -0.001046
      8.65033     12.13184      7.56064         0.000229     -0.000367     -0.000295
      7.40276     14.24341      7.55672         0.000676      0.004538      0.001003
      4.92667      4.30375      7.53606        -0.000489      0.000098      0.000784
      1.24172     10.69051      7.53736        -0.000204     -0.000350      0.000664
      7.40533      8.62122      7.57701        -0.000524     -0.000079      0.000780
      6.22074     10.67487      7.57839        -0.000603      0.000635      0.001546
      2.41060      5.74131      7.51734         0.000405     -0.000446      0.001269
      1.23610      7.78698      7.51746        -0.000552      0.000947      0.000915
      7.39638      5.73038      7.56251        -0.000293      0.000221      0.000408
      3.71001     12.11665      7.56498         0.000257      0.000072      0.001167
      3.51034      7.81414      7.51006         0.014170     -0.001954     -0.007056
      4.97733      7.32838      7.53114        -0.000922      0.009665     -0.007547
      4.43138      8.13498      7.50000        -0.001387     -0.017165     -0.010069
 -----------------------------------------------------------------------------------
    total drift:                               -0.044517     -0.028504      0.360831


--------------------------------------------------------------------------------------------------------



  FREE ENERGIE OF THE ION-ELECTRON SYSTEM (eV)
  ---------------------------------------------------
  free  energy   TOTEN  =      -820.03319520 eV

  energy  without entropy=     -820.03069657  energy(sigma->0) =     -820.03194588
 


--------------------------------------------------------------------------------------------------------


    POTLOK:  cpu time      2.0703: real time      2.1802


--------------------------------------------------------------------------------------------------------


 NEB: the previous image is higher in energy: F
 NEB: the next image is higher in energy    : F
 NEB: image is at an extrema
 NEB: diff energy (min, max):     0.032523    0.145224

 NEB: Tangent
 ----------------------------------------------
     -0.00700      0.00854      0.01091
     -0.00732      0.00804      0.00809
     -0.00714      0.00818      0.00665
     -0.00725      0.00858      0.00807
     -0.00667      0.00876      0.01207
     -0.00654      0.00848      0.01078
     -0.00710      0.00845      0.01004
     -0.00681      0.00876      0.00974
     -0.00699      0.00877      0.01317
     -0.00778      0.00757      0.01478
     -0.00810      0.00844      0.01515
     -0.00677      0.00872      0.01425
     -0.00641      0.00896      0.01095
     -0.00675      0.00865      0.00680
     -0.00691      0.00910      0.01557
     -0.00703      0.00907      0.02278
     -0.00700      0.00928      0.03439
     -0.01120      0.00835      0.03844
     -0.00555      0.00738      0.03147
     -0.00604      0.00883      0.02254
     -0.00654      0.00906      0.01604
     -0.00697      0.00955      0.02662
     -0.00708      0.00939      0.03109
     -0.00687      0.00955      0.02998
     -0.00687      0.00968      0.03147
     -0.00727      0.00995      0.03189
     -0.00831      0.00971      0.03980
     -0.00735      0.00923      0.04194
     -0.00689      0.00900      0.02611
     -0.00699      0.00956      0.02312
     -0.00738      0.00955      0.02646
     -0.00661      0.00928      0.04276
     -0.00750      0.00848      0.04712
     -0.00723      0.00836      0.01779
     -0.00689      0.00857      0.01203
     -0.00712      0.00889      0.01310
     -0.00692      0.00873      0.01791
     -0.00656      0.00851      0.02755
     -0.00622      0.00842      0.02990
     -0.00709      0.00828      0.02699
     -0.00707      0.00856      0.00961
     -0.00738      0.00783      0.00811
     -0.00771      0.00843      0.00797
     -0.00685      0.00866      0.00987
     -0.00634      0.00866      0.01006
     -0.00688      0.00862      0.00747
     -0.00691      0.00869      0.00909
     -0.00689      0.00894      0.01490
     -0.00708      0.00876      0.01873
     -0.00945      0.00720      0.02110
     -0.00716      0.00858      0.01973
     -0.00636      0.00889      0.01556
     -0.00658      0.00896      0.01002
     -0.00676      0.00890      0.00902
     -0.00695      0.00901      0.02284
     -0.00716      0.00945      0.03335
     -0.00546      0.00874      0.03110
     -0.00651      0.00890      0.02279
     -0.00680      0.00901      0.01866
     -0.00698      0.00965      0.03066
     -0.00752      0.00940      0.03705
     -0.00717      0.00953      0.03708
     -0.00691      0.00951      0.03003
     -0.00717      0.00980      0.02929
     -0.00783      0.00998      0.03250
     -0.00709      0.00932      0.03281
     -0.00714      0.00898      0.01961
     -0.00741      0.00936      0.02062
     -0.00710      0.00937      0.02790
     -0.00562      0.00848      0.04912
     -0.00673      0.00948      0.05952
     -0.00688      0.00823      0.05195
     -0.00715      0.00857      0.02865
     -0.00726      0.00821      0.01035
     -0.00721      0.00875      0.00909
     -0.00711      0.00879      0.01140
     -0.00656      0.00843      0.01770
     -0.00631      0.00843      0.02136
     -0.00685      0.00855      0.02111
     -0.00714      0.00828      0.01683
     -0.00724      0.00935      0.03967
     -0.00665      0.00984      0.03820
     -0.00606      0.00867      0.07296
     -0.00637      0.00831      0.07799
     -0.00993      0.00955      0.05006
     -0.00740      0.00646      0.04317
     -0.00778      0.01037      0.04766
     -0.00742      0.00902      0.05267
      0.25138     -0.47855     -0.23875
      0.48197      0.13410     -0.22049
      0.15995     -0.07820     -0.48428

 NEB: forces: par spring, perp REAL, dneb     1.333392    0.030685    0.000000
 NEB: distance to prev, next image, angle between     1.062114    1.328792  147.423640
 NEB: projections on to tangent (spring, REAL)     1.333392    0.010941

 stress matrix after NEB project (eV)
    -28.84027     10.90086     -0.00809
     10.90086    -40.62518      0.00172
     -0.00809      0.00172     -0.58460
  FORCES: max atom, RMS     0.016208    0.003229
  FORCE total and by dimension    0.030806    0.015454
  Stress total and by dimension   52.155211   40.625185
 OPT: skip step - force has converged


--------------------------------------------------------------------------------------------------------


  
 reached required accuracy - stopping structural energy minimisation
     LOOP+:  cpu time   1646.3465: real time   1678.0726
    4ORBIT:  cpu time      0.0000: real time      0.0000

 total amount of memory used by VASP MPI-rank0   344421. kBytes
=======================================================================

   base      :      30000. kBytes
   nonlr-proj:       8829. kBytes
   fftplans  :      49947. kBytes
   grid      :      93499. kBytes
   one-center:        559. kBytes
   wavefun   :     161587. kBytes
 
  
  
 General timing and accounting informations for this job:
 ========================================================
  
                  Total CPU time used (sec):     1675.726
                            User time (sec):     1417.336
                          System time (sec):      258.390
                         Elapsed time (sec):     1709.870
  
                   Maximum memory used (kb):      653084.
                   Average memory used (kb):          N/A
  
                          Minor page faults:       175207
                          Major page faults:            0
                 Voluntary context switches:         2161
