<?xml version="1.0" encoding="ISO-8859-1"?>
<modeling>
 <generator>
  <i name="program" type="string">vasp </i>
  <i name="version" type="string">6.4.2  </i>
  <i name="subversion" type="string">20Jul23 (build Aug 26 2025 15:10:52) complex                          parallel </i>
  <i name="platform" type="string">LinuxIFC </i>
  <i name="date" type="string">2025 11 27 </i>
  <i name="time" type="string">11:30:10 </i>
 </generator>
 <incar>
  <i type="int" name="ISTART">     0</i>
  <i type="string" name="ALGO">Normal</i>
  <i type="logical" name="ADDGRID"> T  </i>
  <i type="int" name="ISPIN">     2</i>
  <i type="int" name="IMIX">     4</i>
  <i name="AMIX">      0.20000000</i>
  <i name="BMIX">      0.00010000</i>
  <i name="AMIX_MAG">      0.80000000</i>
  <i name="BMIX_MAG">      0.00010000</i>
  <i type="int" name="ICHARG">     2</i>
  <i type="int" name="NELM">   200</i>
  <i type="int" name="IBRION">     3</i>
  <i name="EDIFF">      0.00000100</i>
  <i name="EDIFFG">     -0.03000000</i>
  <i type="int" name="NSW">   300</i>
  <i type="int" name="ISIF">     2</i>
  <i type="int" name="ISYM">     0</i>
  <i name="ENCUT">    520.00000000</i>
  <i name="POTIM">      0.00000000</i>
  <v name="MAGMOM">      0.00000000      0.00000000      0.00000000      0.00000000      0.00000000      0.00000000      0.00000000      0.00000000      0.00000000      0.00000000      0.00000000      0.00000000      0.00000000      0.00000000      0.00000000      0.00000000      0.00000000      0.00000000      0.00000000      0.00000000
      0.00000000      0.00000000      0.00000000      0.00000000      0.00000000      0.00000000      0.00000000      0.00000000      0.00000000      0.00000000      0.00000000      0.00000000      0.00000000      0.00000000      0.00000000      0.00000000      0.00000000      0.00000000      0.00000000      0.00000000
      0.00000000      0.00000000      0.00000000      0.00000000      0.00000000      0.00000000      0.00000000      0.00000000      0.00000000      0.00000000      0.00000000      0.00000000      0.00000000      0.00000000      0.00000000      0.00000000      0.00000000      0.00000000      0.00000000      0.00000000
      0.00000000      0.00000000      0.00000000      0.00000000      0.00000000      0.00000000      0.00000000      0.00000000      0.00000000      0.00000000      0.00000000      0.00000000      0.00000000      0.00000000      0.00000000      0.00000000      0.00000000      0.00000000      0.00000000      0.00000000
      0.00000000      0.00000000      0.00000000      0.00000000      0.00000000      0.00000000      0.00000000      0.00000000      0.00000000      0.00000000      0.00000000</v>
  <i type="string" name="LREAL">Auto</i>
  <i type="int" name="ISMEAR">     0</i>
  <i name="SIGMA">      0.05000000</i>
  <i type="logical" name="LWAVE"> F  </i>
  <i type="logical" name="LCHARG"> F  </i>
  <i type="logical" name="LASPH"> T  </i>
  <i type="int" name="IVDW">    12</i>
  <i name="SPRING">     -5.00000000</i>
 </incar>
 <primitive_cell>
  <structure name="primitive_cell" >
   <crystal>
    <varray name="basis" >
     <v>      17.27103806       0.00000000       0.00000000 </v>
     <v>      -8.63551903      14.95715771       0.00000000 </v>
     <v>       0.00000000       0.00000000      15.00000000 </v>
    </varray>
    <i name="volume">   3874.88459904 </i>
    <varray name="rec_basis" >
     <v>       0.05790040       0.03342881       0.00000000 </v>
     <v>       0.00000000       0.06685762       0.00000000 </v>
     <v>       0.00000000       0.00000000       0.06666667 </v>
    </varray>
   </crystal>
   <varray name="positions" >
    <v>       0.00053505       0.00098825       0.50324133 </v>
    <v>       0.99957983       0.14320091       0.50285547 </v>
    <v>       0.99934231       0.28626022       0.50271632 </v>
    <v>       0.99967726       0.42956753       0.50301740 </v>
    <v>       0.00065857       0.57269753       0.50334713 </v>
    <v>       0.00212824       0.71602157       0.50334668 </v>
    <v>       0.00207063       0.85917177       0.50330753 </v>
    <v>       0.14489885       0.00274688       0.50238650 </v>
    <v>       0.14414075       0.14525673       0.50209796 </v>
    <v>       0.14228880       0.28626418       0.50163639 </v>
    <v>       0.14240676       0.42917519       0.50175627 </v>
    <v>       0.14435567       0.57202761       0.50223282 </v>
    <v>       0.14497603       0.71527637       0.50245464 </v>
    <v>       0.14496412       0.85903338       0.50241202 </v>
    <v>       0.28748997       0.00229304       0.50220353 </v>
    <v>       0.28804444       0.14705050       0.50197903 </v>
    <v>       0.28876728       0.29416877       0.50142868 </v>
    <v>       0.28463209       0.42876688       0.50115626 </v>
    <v>       0.28917684       0.56773636       0.50151935 </v>
    <v>       0.28814698       0.71414367       0.50206378 </v>
    <v>       0.28752463       0.85835055       0.50222893 </v>
    <v>       0.43003824       0.00164264       0.50310318 </v>
    <v>       0.43007818       0.14650664       0.50292501 </v>
    <v>       0.43012661       0.85683027       0.50298573 </v>
    <v>       0.57191157       0.00036255       0.50423296 </v>
    <v>       0.57188058       0.14483653       0.50417769 </v>
    <v>       0.57413159       0.29258631       0.50389575 </v>
    <v>       0.57426070       0.85489994       0.50402558 </v>
    <v>       0.71395929       0.99920192       0.50442093 </v>
    <v>       0.71427868       0.14377809       0.50461592 </v>
    <v>       0.71393769       0.28800213       0.50439198 </v>
    <v>       0.70970494       0.42905318       0.50451232 </v>
    <v>       0.70960749       0.85383298       0.50463858 </v>
    <v>       0.85651901       0.99946341       0.50394639 </v>
    <v>       0.85651024       0.14305194       0.50393123 </v>
    <v>       0.85652764       0.28669740       0.50401779 </v>
    <v>       0.85657635       0.43026337       0.50402996 </v>
    <v>       0.85719074       0.57347129       0.50425035 </v>
    <v>       0.85945475       0.71625636       0.50437109 </v>
    <v>       0.85711157       0.85678918       0.50422948 </v>
    <v>       0.04835646       0.09656825       0.50270887 </v>
    <v>       0.04671803       0.23831382       0.50230024 </v>
    <v>       0.04680359       0.38158417       0.50241826 </v>
    <v>       0.04852631       0.52496151       0.50283929 </v>
    <v>       0.04933611       0.66810667       0.50302232 </v>
    <v>       0.04958018       0.81134469       0.50302334 </v>
    <v>       0.04925551       0.95428560       0.50296018 </v>
    <v>       0.19238746       0.09811485       0.50207943 </v>
    <v>       0.19180880       0.24074764       0.50161575 </v>
    <v>       0.18898388       0.38101672       0.50140279 </v>
    <v>       0.19211066       0.52421807       0.50177847 </v>
    <v>       0.19250432       0.66741688       0.50217610 </v>
    <v>       0.19246318       0.81098910       0.50224182 </v>
    <v>       0.19242642       0.95456519       0.50220645 </v>
    <v>       0.33502340       0.09852701       0.50230782 </v>
    <v>       0.33921994       0.24376269       0.50188388 </v>
    <v>       0.33946831       0.66870395       0.50196658 </v>
    <v>       0.33508143       0.80966140       0.50235918 </v>
    <v>       0.33470277       0.95392819       0.50241762 </v>
    <v>       0.47707930       0.09742992       0.50344379 </v>
    <v>       0.47484299       0.24293982       0.50304156 </v>
    <v>       0.47492615       0.80519186       0.50314441 </v>
    <v>       0.47709645       0.95292734       0.50346977 </v>
    <v>       0.61894381       0.09613041       0.50447298 </v>
    <v>       0.61889063       0.24093824       0.50421286 </v>
    <v>       0.61893161       0.95128819       0.50430323 </v>
    <v>       0.76147014       0.09539733       0.50448397 </v>
    <v>       0.76146590       0.23932650       0.50449281 </v>
    <v>       0.76085225       0.38348830       0.50436504 </v>
    <v>       0.76015948       0.53004286       0.50475366 </v>
    <v>       0.76352087       0.66839936       0.50494877 </v>
    <v>       0.76004354       0.80315105       0.50481405 </v>
    <v>       0.76083367       0.95057695       0.50438319 </v>
    <v>       0.90396783       0.09480841       0.50357065 </v>
    <v>       0.90396769       0.23859392       0.50363906 </v>
    <v>       0.90404016       0.38237436       0.50371678 </v>
    <v>       0.90486386       0.52564290       0.50386385 </v>
    <v>       0.90646593       0.66844058       0.50406598 </v>
    <v>       0.90641059       0.81110610       0.50404295 </v>
    <v>       0.90476289       0.95228069       0.50378104 </v>
    <v>       0.42912568       0.28773850       0.50240373 </v>
    <v>       0.42926710       0.71474182       0.50249036 </v>
    <v>       0.71696856       0.57639430       0.50513422 </v>
    <v>       0.71703196       0.71369673       0.50522568 </v>
    <v>       0.33149976       0.38385034       0.50115625 </v>
    <v>       0.33188044       0.52061929       0.50116383 </v>
    <v>       0.61981321       0.38311952       0.50416716 </v>
    <v>       0.61985654       0.81009073       0.50433208 </v>
    <v>       0.46446766       0.52243479       0.50067083 </v>
    <v>       0.53316833       0.48995780       0.50207580 </v>
    <v>       0.52852118       0.54388551       0.50000000 </v>
   </varray>
  </structure>
  <varray name="primitive_index" >
   <v type="int" >        1 </v>
   <v type="int" >        2 </v>
   <v type="int" >        3 </v>
   <v type="int" >        4 </v>
   <v type="int" >        5 </v>
   <v type="int" >        6 </v>
   <v type="int" >        7 </v>
   <v type="int" >        8 </v>
   <v type="int" >        9 </v>
   <v type="int" >       10 </v>
   <v type="int" >       11 </v>
   <v type="int" >       12 </v>
   <v type="int" >       13 </v>
   <v type="int" >       14 </v>
   <v type="int" >       15 </v>
   <v type="int" >       16 </v>
   <v type="int" >       17 </v>
   <v type="int" >       18 </v>
   <v type="int" >       19 </v>
   <v type="int" >       20 </v>
   <v type="int" >       21 </v>
   <v type="int" >       22 </v>
   <v type="int" >       23 </v>
   <v type="int" >       24 </v>
   <v type="int" >       25 </v>
   <v type="int" >       26 </v>
   <v type="int" >       27 </v>
   <v type="int" >       28 </v>
   <v type="int" >       29 </v>
   <v type="int" >       30 </v>
   <v type="int" >       31 </v>
   <v type="int" >       32 </v>
   <v type="int" >       33 </v>
   <v type="int" >       34 </v>
   <v type="int" >       35 </v>
   <v type="int" >       36 </v>
   <v type="int" >       37 </v>
   <v type="int" >       38 </v>
   <v type="int" >       39 </v>
   <v type="int" >       40 </v>
   <v type="int" >       41 </v>
   <v type="int" >       42 </v>
   <v type="int" >       43 </v>
   <v type="int" >       44 </v>
   <v type="int" >       45 </v>
   <v type="int" >       46 </v>
   <v type="int" >       47 </v>
   <v type="int" >       48 </v>
   <v type="int" >       49 </v>
   <v type="int" >       50 </v>
   <v type="int" >       51 </v>
   <v type="int" >       52 </v>
   <v type="int" >       53 </v>
   <v type="int" >       54 </v>
   <v type="int" >       55 </v>
   <v type="int" >       56 </v>
   <v type="int" >       57 </v>
   <v type="int" >       58 </v>
   <v type="int" >       59 </v>
   <v type="int" >       60 </v>
   <v type="int" >       61 </v>
   <v type="int" >       62 </v>
   <v type="int" >       63 </v>
   <v type="int" >       64 </v>
   <v type="int" >       65 </v>
   <v type="int" >       66 </v>
   <v type="int" >       67 </v>
   <v type="int" >       68 </v>
   <v type="int" >       69 </v>
   <v type="int" >       70 </v>
   <v type="int" >       71 </v>
   <v type="int" >       72 </v>
   <v type="int" >       73 </v>
   <v type="int" >       74 </v>
   <v type="int" >       75 </v>
   <v type="int" >       76 </v>
   <v type="int" >       77 </v>
   <v type="int" >       78 </v>
   <v type="int" >       79 </v>
   <v type="int" >       80 </v>
   <v type="int" >       81 </v>
   <v type="int" >       82 </v>
   <v type="int" >       83 </v>
   <v type="int" >       84 </v>
   <v type="int" >       85 </v>
   <v type="int" >       86 </v>
   <v type="int" >       87 </v>
   <v type="int" >       88 </v>
   <v type="int" >       89 </v>
   <v type="int" >       90 </v>
   <v type="int" >       91 </v>
  </varray>
 </primitive_cell>
 <kpoints>
  <generation param="Gamma">
   <v type="int" name="divisions">       2        2        1 </v>
   <v name="usershift">      0.00000000       0.00000000       0.00000000 </v>
   <v name="genvec1">      0.50000000       0.00000000       0.00000000 </v>
   <v name="genvec2">      0.00000000       0.50000000       0.00000000 </v>
   <v name="genvec3">      0.00000000       0.00000000       1.00000000 </v>
   <v name="shift">      0.00000000       0.00000000       0.00000000 </v>
  </generation>
  <varray name="kpointlist" >
   <v>       0.00000000       0.00000000       0.00000000 </v>
   <v>       0.50000000       0.00000000       0.00000000 </v>
   <v>       0.00000000       0.50000000       0.00000000 </v>
   <v>       0.50000000       0.50000000       0.00000000 </v>
  </varray>
  <varray name="weights" >
   <v>       0.25000000 </v>
   <v>       0.25000000 </v>
   <v>       0.25000000 </v>
   <v>       0.25000000 </v>
  </varray>
 </kpoints>
 <parameters>
  <separator name="general" >
   <i type="string" name="SYSTEM">unknown system</i>
   <i type="logical" name="LCOMPAT"> F  </i>
  </separator>
  <separator name="electronic" >
   <i type="string" name="PREC">normal</i>
   <i name="ENMAX">    520.00000000</i>
   <i name="ENAUG">    644.87300000</i>
   <i name="EDIFF">      0.00000100</i>
   <i type="int" name="IALGO">    38</i>
   <i type="int" name="IWAVPR">    11</i>
   <i type="int" name="NBANDS">   240</i>
   <i type="int" name="NBANDSLOW">    -1</i>
   <i type="int" name="NBANDSHIGH">    -1</i>
   <i name="NELECT">    368.00000000</i>
   <i type="int" name="TURBO">     0</i>
   <i type="int" name="IRESTART">     0</i>
   <i type="int" name="NREBOOT">     0</i>
   <i type="int" name="NMIN">     0</i>
   <i name="EREF">      0.00000000</i>
   <separator name="electronic smearing" >
    <i type="int" name="ISMEAR">     0</i>
    <i name="SIGMA">      0.05000000</i>
    <i name="KSPACING">      0.50000000</i>
    <i type="logical" name="KGAMMA"> T  </i>
    <i type="logical" name="KBLOWUP"> T  </i>
   </separator>
   <separator name="electronic projectors" >
    <i type="logical" name="LREAL"> T  </i>
    <v name="ROPT">     -0.00050000     -0.00050000     -0.00050000     -0.00050000</v>
    <i type="int" name="LMAXPAW">  -100</i>
    <i type="int" name="LMAXMIX">     2</i>
    <i type="logical" name="NLSPLINE"> F  </i>
   </separator>
   <separator name="electronic startup" >
    <i type="int" name="ISTART">     0</i>
    <i type="int" name="ICHARG">     2</i>
    <i type="int" name="INIWAV">     1</i>
   </separator>
   <separator name="electronic spin" >
    <i type="int" name="ISPIN">     2</i>
    <i type="logical" name="LNONCOLLINEAR"> F  </i>
    <v name="MAGMOM">      0.00000000      0.00000000      0.00000000      0.00000000      0.00000000      0.00000000      0.00000000      0.00000000      0.00000000      0.00000000      0.00000000      0.00000000      0.00000000      0.00000000      0.00000000      0.00000000      0.00000000      0.00000000      0.00000000      0.00000000
      0.00000000      0.00000000      0.00000000      0.00000000      0.00000000      0.00000000      0.00000000      0.00000000      0.00000000      0.00000000      0.00000000      0.00000000      0.00000000      0.00000000      0.00000000      0.00000000      0.00000000      0.00000000      0.00000000      0.00000000
      0.00000000      0.00000000      0.00000000      0.00000000      0.00000000      0.00000000      0.00000000      0.00000000      0.00000000      0.00000000      0.00000000      0.00000000      0.00000000      0.00000000      0.00000000      0.00000000      0.00000000      0.00000000      0.00000000      0.00000000
      0.00000000      0.00000000      0.00000000      0.00000000      0.00000000      0.00000000      0.00000000      0.00000000      0.00000000      0.00000000      0.00000000      0.00000000      0.00000000      0.00000000      0.00000000      0.00000000      0.00000000      0.00000000      0.00000000      0.00000000
      0.00000000      0.00000000      0.00000000      0.00000000      0.00000000      0.00000000      0.00000000      0.00000000      0.00000000      0.00000000      0.00000000</v>
    <i name="NUPDOWN">     -1.00000000</i>
    <i type="logical" name="LSORBIT"> F  </i>
    <v name="SAXIS">      0.00000000      0.00000000      1.00000000</v>
    <i type="logical" name="LSPIRAL"> F  </i>
    <v name="QSPIRAL">      0.00000000      0.00000000      0.00000000</v>
    <i type="logical" name="LZEROZ"> F  </i>
   </separator>
   <separator name="electronic exchange-correlation" >
    <i type="logical" name="LASPH"> T  </i>
    <i type="logical" name="LMETAGGA"> F  </i>
   </separator>
   <separator name="electronic convergence" >
    <i type="int" name="NELM">   200</i>
    <i type="int" name="NELMDL">    -5</i>
    <i type="int" name="NELMIN">     2</i>
    <i name="ENINI">    520.00000000</i>
    <separator name="electronic convergence detail" >
     <i type="logical" name="LDIAG"> T  </i>
     <i type="logical" name="LSUBROT"> F  </i>
     <i name="WEIMIN">      0.00100000</i>
     <i name="EBREAK">      0.00000000</i>
     <i name="DEPER">      0.30000000</i>
     <i type="int" name="NRMM">     4</i>
     <i name="TIME">      0.40000000</i>
    </separator>
   </separator>
   <separator name="electronic mixer" >
    <i name="AMIX">      0.20000000</i>
    <i name="BMIX">      0.00010000</i>
    <i name="AMIN">      0.10000000</i>
    <i name="AMIX_MAG">      0.80000000</i>
    <i name="BMIX_MAG">      0.00010000</i>
    <separator name="electronic mixer details" >
     <i type="int" name="IMIX">     4</i>
     <i type="logical" name="MIXFIRST"> F  </i>
     <i type="int" name="MAXMIX">   -45</i>
     <i name="WC">    100.00000000</i>
     <i type="int" name="INIMIX">     1</i>
     <i type="int" name="MIXPRE">     1</i>
     <i type="int" name="MREMOVE">     5</i>
    </separator>
   </separator>
   <separator name="electronic dipolcorrection" >
    <i type="logical" name="LDIPOL"> F  </i>
    <i type="logical" name="LMONO"> F  </i>
    <i type="int" name="IDIPOL">     0</i>
    <i name="EPSILON">      1.00000000</i>
    <v name="DIPOL">   -100.00000000   -100.00000000   -100.00000000</v>
    <i name="EFIELD">      0.00000000</i>
   </separator>
  </separator>
  <separator name="grids" >
   <i type="int" name="NGX">    96</i>
   <i type="int" name="NGY">    96</i>
   <i type="int" name="NGZ">    84</i>
   <i type="int" name="NGXF">   192</i>
   <i type="int" name="NGYF">   192</i>
   <i type="int" name="NGZF">   168</i>
   <i type="logical" name="ADDGRID"> T  </i>
  </separator>
  <separator name="ionic" >
   <i type="int" name="NSW">   300</i>
   <i type="int" name="IBRION">     3</i>
   <i type="int" name="MDALGO">     0</i>
   <i type="int" name="ISIF">     2</i>
   <i name="PSTRESS">      0.00000000</i>
   <i name="EDIFFG">     -0.03000000</i>
   <i type="int" name="NFREE">     0</i>
   <i name="POTIM">      0.00000000</i>
   <i name="SMASS">     -3.00000000</i>
   <i name="SCALEE">      1.00000000</i>
  </separator>
  <separator name="ionic md" >
   <i name="TEBEG">      0.00010000</i>
   <i name="TEEND">      0.00010000</i>
   <i type="int" name="NBLOCK">     1</i>
   <i type="int" name="KBLOCK">   300</i>
   <i type="int" name="NPACO">   256</i>
   <i name="APACO">     10.00000000</i>
  </separator>
  <separator name="symmetry" >
   <i type="int" name="ISYM">     0</i>
   <i name="SYMPREC">      0.00001000</i>
  </separator>
  <separator name="dos" >
   <i type="int" name="LORBIT">     0</i>
   <v name="RWIGS">     -1.00000000     -1.00000000     -1.00000000     -1.00000000</v>
   <i type="int" name="NEDOS">   301</i>
   <i name="EMIN">     10.00000000</i>
   <i name="EMAX">    -10.00000000</i>
   <i name="EFERMI">      0.00000000</i>
  </separator>
  <separator name="writing" >
   <i type="int" name="NWRITE">     2</i>
   <i type="logical" name="LWAVE"> F  </i>
   <i type="logical" name="LDOWNSAMPLE"> F  </i>
   <i type="logical" name="LCHARG"> F  </i>
   <i type="logical" name="LPARD"> F  </i>
   <i type="logical" name="LVTOT"> F  </i>
   <i type="logical" name="LVHAR"> F  </i>
   <i type="logical" name="LELF"> F  </i>
   <i type="logical" name="LOPTICS"> F  </i>
   <v name="STM">      0.00000000      0.00000000      0.00000000      0.00000000      0.00000000      0.00000000      0.00000000</v>
  </separator>
  <separator name="performance" >
   <i type="int" name="NPAR">    20</i>
   <i type="int" name="NSIM">     4</i>
   <i type="int" name="NBLK">    -1</i>
   <i type="logical" name="LPLANE"> T  </i>
   <i type="logical" name="LSCALAPACK"> T  </i>
   <i type="logical" name="LSCAAWARE"> F  </i>
   <i type="logical" name="LSCALU"> F  </i>
   <i type="logical" name="LASYNC"> F  </i>
   <i type="logical" name="LORBITALREAL"> F  </i>
  </separator>
  <separator name="miscellaneous" >
   <i type="int" name="IDIOT">     3</i>
   <i type="int" name="PHON_NSTRUCT">    -1</i>
   <i type="logical" name="LMUSIC"> F  </i>
   <v name="POMASS">     12.01100000     14.00100000      1.00000000     16.00000000</v>
   <v name="DARWINR">      0.00000000      0.00000000      0.00000000      0.00000000</v>
   <v name="DARWINV">      1.00000000      1.00000000      1.00000000      1.00000000</v>
   <i type="logical" name="LCORR"> T  </i>
  </separator>
  <i type="logical" name="GGA_COMPAT"> T  </i>
  <i type="logical" name="LBERRY"> F  </i>
  <i type="int" name="ICORELEVEL">     0</i>
  <i type="logical" name="LDAU"> F  </i>
  <i type="int" name="I_CONSTRAINED_M">     0</i>
  <separator name="electronic exchange-correlation" >
   <i type="string" name="GGA">--</i>
   <i type="int" name="VOSKOWN">     0</i>
   <i type="logical" name="LHFCALC"> F  </i>
   <i type="string" name="PRECFOCK"></i>
   <i type="logical" name="LSYMGRAD"> F  </i>
   <i type="logical" name="LHFONE"> F  </i>
   <i type="logical" name="LRHFCALC"> F  </i>
   <i type="logical" name="LTHOMAS"> F  </i>
   <i type="logical" name="LMODELHF"> F  </i>
   <i type="logical" name="LFOCKACE"> F  </i>
   <i name="ENCUT4O">     -1.00000000</i>
   <i type="int" name="EXXOEP">     0</i>
   <i type="int" name="FOURORBIT">     0</i>
   <i name="AEXX">      0.00000000</i>
   <i name="HFALPHA">      0.00000000</i>
   <i name="MCALPHA">      0.00000000</i>
   <i name="ALDAX">      1.00000000</i>
   <i name="AGGAX">      1.00000000</i>
   <i name="ALDAC">      1.00000000</i>
   <i name="AGGAC">      1.00000000</i>
   <i type="int" name="NKREDX">     1</i>
   <i type="int" name="NKREDY">     1</i>
   <i type="int" name="NKREDZ">     1</i>
   <i type="logical" name="SHIFTRED"> F  </i>
   <i type="logical" name="ODDONLY"> F  </i>
   <i type="logical" name="EVENONLY"> F  </i>
   <i type="int" name="LMAXFOCK">     0</i>
   <i type="int" name="NMAXFOCKAE">     0</i>
   <i type="logical" name="LFOCKAEDFT"> F  </i>
   <i name="HFSCREEN">      0.00000000</i>
   <i name="HFSCREENC">      0.00000000</i>
   <i type="int" name="NBANDSGWLOW">     0</i>
  </separator>
  <separator name="vdW DFT" >
   <i type="logical" name="LUSE_VDW"> F  </i>
   <i type="int" name="IVDW_NL">     1</i>
   <i type="logical" name="LSPIN_VDW"> F  </i>
   <i name="Zab_VDW">     -0.84910000</i>
   <i name="PARAM1">      0.12340000</i>
   <i name="PARAM2">      1.00000000</i>
   <i name="PARAM3">      0.00000000</i>
  </separator>
  <separator name="model GW" >
   <i type="int" name="MODEL_GW">     0</i>
   <i name="MODEL_EPS0">     25.54868966</i>
   <i name="MODEL_ALPHA">      1.00000000</i>
  </separator>
  <separator name="linear response parameters" >
   <i type="logical" name="LEPSILON"> F  </i>
   <i type="logical" name="LRPA"> F  </i>
   <i type="logical" name="LNABLA"> F  </i>
   <i type="logical" name="LVEL"> F  </i>
   <i name="CSHIFT">      0.10000000</i>
   <i name="OMEGAMAX">     -1.00000000</i>
   <i name="DEG_THRESHOLD">      0.00200000</i>
   <i name="RTIME">     -0.10000000</i>
   <i name="WPLASMAI">      0.00000000</i>
   <v name="DFIELD">      0.00000000      0.00000000      0.00000000</v>
   <v name="WPLASMA">      0.00000000      0.00000000      0.00000000      0.00000000      0.00000000      0.00000000      0.00000000      0.00000000      0.00000000</v>
  </separator>
  <separator name="orbital magnetization" >
   <i type="logical" name="NUCIND"> F  </i>
   <v name="MAGPOS">      0.00000000      0.00000000      0.00000000</v>
   <i type="logical" name="LNICSALL"> T  </i>
   <i type="logical" name="ORBITALMAG"> F  </i>
   <i type="logical" name="LMAGBLOCH"> F  </i>
   <i type="logical" name="LCHIMAG"> F  </i>
   <i type="logical" name="LGAUGE"> T  </i>
   <i type="int" name="MAGATOM">     0</i>
   <v name="MAGDIPOL">      0.00000000      0.00000000      0.00000000</v>
   <v name="AVECCONST">      0.00000000      0.00000000      0.00000000</v>
  </separator>
  <separator name="response functions" >
   <i type="logical" name="LALL_IN_ONE"> F  </i>
   <i type="int" name="IALL_IN_ONE">    -1</i>
   <i type="int" name="NBANDS_WAVE">    -1</i>
   <i type="logical" name="LFINITE_TEMPERATURE"> F  </i>
   <i type="logical" name="LADDER"> F  </i>
   <i type="logical" name="LRPAFORCE"> F  </i>
   <i type="logical" name="LFXC"> F  </i>
   <i type="logical" name="LHARTREE"> T  </i>
   <i type="int" name="IBSE">     0</i>
   <v type="int" name="KPOINT">    -1     0     0     0</v>
   <i type="logical" name="LTCTC"> F  </i>
   <i type="logical" name="LTCTE"> F  </i>
   <i type="logical" name="LTETE"> F  </i>
   <i type="logical" name="LTRIPLET"> F  </i>
   <i type="logical" name="LFXCEPS"> F  </i>
   <i type="logical" name="LFXHEG"> F  </i>
   <i type="int" name="NATURALO">     2</i>
   <i type="logical" name="LHOLEGF"> F  </i>
   <i type="logical" name="L2ORDER"> F  </i>
   <i type="logical" name="LDMP1"> F  </i>
   <i type="logical" name="LMP2LT"> F  </i>
   <i type="logical" name="LSMP2LT"> F  </i>
   <i type="logical" name="LGWLF"> F  </i>
   <i name="ENCUTGW">     -1.60000002</i>
   <i name="ENCUTGWSOFT">     -1.60000002</i>
   <i name="ENCUTLF">     -1.00000000</i>
   <i type="logical" name="LESF_SPLINES"> F  </i>
   <i type="int" name="LMAXMP2">    -1</i>
   <i name="SCISSOR">      0.00000000</i>
   <i type="int" name="NOMEGA">     0</i>
   <i type="int" name="NOMEGAR">     0</i>
   <i type="int" name="NBANDSGW">    -1</i>
   <i type="int" name="NBANDSO">    -1</i>
   <i type="int" name="NBANDSV">    -1</i>
   <i type="int" name="NELMGW">     1</i>
   <i type="int" name="NELMHF">     1</i>
   <i type="int" name="DIM">     3</i>
   <i type="int" name="IESPILON">     4</i>
   <i type="int" name="ANTIRES">     0</i>
   <i name="OMEGAMAX">    -30.00000000</i>
   <i name="OMEGAMIN">    -30.00000000</i>
   <i name="OMEGATL">   -200.00000000</i>
   <i type="int" name="OMEGAGRID">     0</i>
   <i name="CSHIFT">     -0.10000000</i>
   <i type="logical" name="LSELFENERGY"> F  </i>
   <i type="logical" name="LSPECTRAL"> F  </i>
   <i type="logical" name="LSPECTRALGW"> F  </i>
   <i type="logical" name="LSINGLES"> F  </i>
   <i type="logical" name="LFERMIGW"> F  </i>
   <i type="logical" name="ODDONLYGW"> F  </i>
   <i type="logical" name="EVENONLYGW"> F  </i>
   <i type="int" name="NKREDLFX">     1</i>
   <i type="int" name="NKREDLFY">     1</i>
   <i type="int" name="NKREDLFZ">     1</i>
   <i type="int" name="MAXMEM">  2800</i>
   <i type="int" name="TELESCOPE">     0</i>
   <i type="int" name="NTAUPAR">    -1</i>
   <i type="int" name="NOMEGAPAR">    -1</i>
   <i name="DAMP_NEWTON">      0.80000001</i>
   <i name="LAMBDA">      1.00000000</i>
  </separator>
  <separator name="External order field" >
   <i name="OFIELD_KAPPA">      0.00000000</i>
   <v name="OFIELD_K">      0.00000000      0.00000000      0.00000000</v>
   <i name="OFIELD_Q6_NEAR">      0.00000000</i>
   <i name="OFIELD_Q6_FAR">      0.00000000</i>
   <i name="OFIELD_A">      0.00000000</i>
  </separator>
  <separator name="optional k-points parameters" >
   <i type="int" name="KPOINTS_OPT_MODE">     1</i>
   <i type="logical" name="LKPOINTS_OPT"> F  </i>
  </separator>
 </parameters>
 <atominfo>
  <atoms>      91 </atoms>
  <types>       4 </types>
  <array name="atoms" >
   <dimension dim="1">ion</dimension>
   <field type="string">element</field>
   <field type="int">atomtype</field>
   <set>
    <rc><c>C </c><c>   1</c></rc>
    <rc><c>C </c><c>   1</c></rc>
    <rc><c>C </c><c>   1</c></rc>
    <rc><c>C </c><c>   1</c></rc>
    <rc><c>C </c><c>   1</c></rc>
    <rc><c>C </c><c>   1</c></rc>
    <rc><c>C </c><c>   1</c></rc>
    <rc><c>C </c><c>   1</c></rc>
    <rc><c>C </c><c>   1</c></rc>
    <rc><c>C </c><c>   1</c></rc>
    <rc><c>C </c><c>   1</c></rc>
    <rc><c>C </c><c>   1</c></rc>
    <rc><c>C </c><c>   1</c></rc>
    <rc><c>C </c><c>   1</c></rc>
    <rc><c>C </c><c>   1</c></rc>
    <rc><c>C </c><c>   1</c></rc>
    <rc><c>C </c><c>   1</c></rc>
    <rc><c>C </c><c>   1</c></rc>
    <rc><c>C </c><c>   1</c></rc>
    <rc><c>C </c><c>   1</c></rc>
    <rc><c>C </c><c>   1</c></rc>
    <rc><c>C </c><c>   1</c></rc>
    <rc><c>C </c><c>   1</c></rc>
    <rc><c>C </c><c>   1</c></rc>
    <rc><c>C </c><c>   1</c></rc>
    <rc><c>C </c><c>   1</c></rc>
    <rc><c>C </c><c>   1</c></rc>
    <rc><c>C </c><c>   1</c></rc>
    <rc><c>C </c><c>   1</c></rc>
    <rc><c>C </c><c>   1</c></rc>
    <rc><c>C </c><c>   1</c></rc>
    <rc><c>C </c><c>   1</c></rc>
    <rc><c>C </c><c>   1</c></rc>
    <rc><c>C </c><c>   1</c></rc>
    <rc><c>C </c><c>   1</c></rc>
    <rc><c>C </c><c>   1</c></rc>
    <rc><c>C </c><c>   1</c></rc>
    <rc><c>C </c><c>   1</c></rc>
    <rc><c>C </c><c>   1</c></rc>
    <rc><c>C </c><c>   1</c></rc>
    <rc><c>C </c><c>   1</c></rc>
    <rc><c>C </c><c>   1</c></rc>
    <rc><c>C </c><c>   1</c></rc>
    <rc><c>C </c><c>   1</c></rc>
    <rc><c>C </c><c>   1</c></rc>
    <rc><c>C </c><c>   1</c></rc>
    <rc><c>C </c><c>   1</c></rc>
    <rc><c>C </c><c>   1</c></rc>
    <rc><c>C </c><c>   1</c></rc>
    <rc><c>C </c><c>   1</c></rc>
    <rc><c>C </c><c>   1</c></rc>
    <rc><c>C </c><c>   1</c></rc>
    <rc><c>C </c><c>   1</c></rc>
    <rc><c>C </c><c>   1</c></rc>
    <rc><c>C </c><c>   1</c></rc>
    <rc><c>C </c><c>   1</c></rc>
    <rc><c>C </c><c>   1</c></rc>
    <rc><c>C </c><c>   1</c></rc>
    <rc><c>C </c><c>   1</c></rc>
    <rc><c>C </c><c>   1</c></rc>
    <rc><c>C </c><c>   1</c></rc>
    <rc><c>C </c><c>   1</c></rc>
    <rc><c>C </c><c>   1</c></rc>
    <rc><c>C </c><c>   1</c></rc>
    <rc><c>C </c><c>   1</c></rc>
    <rc><c>C </c><c>   1</c></rc>
    <rc><c>C </c><c>   1</c></rc>
    <rc><c>C </c><c>   1</c></rc>
    <rc><c>C </c><c>   1</c></rc>
    <rc><c>C </c><c>   1</c></rc>
    <rc><c>C </c><c>   1</c></rc>
    <rc><c>C </c><c>   1</c></rc>
    <rc><c>C </c><c>   1</c></rc>
    <rc><c>C </c><c>   1</c></rc>
    <rc><c>C </c><c>   1</c></rc>
    <rc><c>C </c><c>   1</c></rc>
    <rc><c>C </c><c>   1</c></rc>
    <rc><c>C </c><c>   1</c></rc>
    <rc><c>C </c><c>   1</c></rc>
    <rc><c>C </c><c>   1</c></rc>
    <rc><c>N </c><c>   2</c></rc>
    <rc><c>N </c><c>   2</c></rc>
    <rc><c>N </c><c>   2</c></rc>
    <rc><c>N </c><c>   2</c></rc>
    <rc><c>N </c><c>   2</c></rc>
    <rc><c>N </c><c>   2</c></rc>
    <rc><c>N </c><c>   2</c></rc>
    <rc><c>N </c><c>   2</c></rc>
    <rc><c>H </c><c>   3</c></rc>
    <rc><c>H </c><c>   3</c></rc>
    <rc><c>O </c><c>   4</c></rc>
   </set>
  </array>
  <array name="atomtypes" >
   <dimension dim="1">type</dimension>
   <field type="int">atomspertype</field>
   <field type="string">element</field>
   <field>mass</field>
   <field>valence</field>
   <field type="string">pseudopotential</field>
   <set>
    <rc><c>  80</c><c>C </c><c>     12.01100000</c><c>      4.00000000</c><c>  PAW_PBE C 08Apr2002                   </c></rc>
    <rc><c>   8</c><c>N </c><c>     14.00100000</c><c>      5.00000000</c><c>  PAW_PBE N 08Apr2002                   </c></rc>
    <rc><c>   2</c><c>H </c><c>      1.00000000</c><c>      1.00000000</c><c>  PAW_PBE H 15Jun2001                   </c></rc>
    <rc><c>   1</c><c>O </c><c>     16.00000000</c><c>      6.00000000</c><c>  PAW_PBE O 08Apr2002                   </c></rc>
   </set>
  </array>
 </atominfo>
 <structure name="initialpos" >
  <crystal>
   <varray name="basis" >
    <v>      17.27103806       0.00000000       0.00000000 </v>
    <v>      -8.63551903      14.95715771       0.00000000 </v>
    <v>       0.00000000       0.00000000      15.00000000 </v>
   </varray>
   <i name="volume">   3874.88459904 </i>
   <varray name="rec_basis" >
    <v>       0.05790040       0.03342881       0.00000000 </v>
    <v>       0.00000000       0.06685762       0.00000000 </v>
    <v>       0.00000000       0.00000000       0.06666667 </v>
   </varray>
  </crystal>
  <varray name="positions" >
   <v>       0.00053505       0.00098825       0.50324133 </v>
   <v>       0.99957983       0.14320091       0.50285547 </v>
   <v>       0.99934231       0.28626022       0.50271632 </v>
   <v>       0.99967726       0.42956753       0.50301740 </v>
   <v>       0.00065857       0.57269753       0.50334713 </v>
   <v>       0.00212824       0.71602157       0.50334668 </v>
   <v>       0.00207063       0.85917177       0.50330753 </v>
   <v>       0.14489885       0.00274688       0.50238650 </v>
   <v>       0.14414075       0.14525673       0.50209796 </v>
   <v>       0.14228880       0.28626418       0.50163639 </v>
   <v>       0.14240676       0.42917519       0.50175627 </v>
   <v>       0.14435567       0.57202761       0.50223282 </v>
   <v>       0.14497603       0.71527637       0.50245464 </v>
   <v>       0.14496412       0.85903338       0.50241202 </v>
   <v>       0.28748997       0.00229304       0.50220353 </v>
   <v>       0.28804444       0.14705050       0.50197903 </v>
   <v>       0.28876728       0.29416877       0.50142868 </v>
   <v>       0.28463209       0.42876688       0.50115626 </v>
   <v>       0.28917684       0.56773636       0.50151935 </v>
   <v>       0.28814698       0.71414367       0.50206378 </v>
   <v>       0.28752463       0.85835055       0.50222893 </v>
   <v>       0.43003824       0.00164264       0.50310318 </v>
   <v>       0.43007818       0.14650664       0.50292501 </v>
   <v>       0.43012661       0.85683027       0.50298573 </v>
   <v>       0.57191157       0.00036255       0.50423296 </v>
   <v>       0.57188058       0.14483653       0.50417769 </v>
   <v>       0.57413159       0.29258631       0.50389575 </v>
   <v>       0.57426070       0.85489994       0.50402558 </v>
   <v>       0.71395929       0.99920192       0.50442093 </v>
   <v>       0.71427868       0.14377809       0.50461592 </v>
   <v>       0.71393769       0.28800213       0.50439198 </v>
   <v>       0.70970494       0.42905318       0.50451232 </v>
   <v>       0.70960749       0.85383298       0.50463858 </v>
   <v>       0.85651901       0.99946341       0.50394639 </v>
   <v>       0.85651024       0.14305194       0.50393123 </v>
   <v>       0.85652764       0.28669740       0.50401779 </v>
   <v>       0.85657635       0.43026337       0.50402996 </v>
   <v>       0.85719074       0.57347129       0.50425035 </v>
   <v>       0.85945475       0.71625636       0.50437109 </v>
   <v>       0.85711157       0.85678918       0.50422948 </v>
   <v>       0.04835646       0.09656825       0.50270887 </v>
   <v>       0.04671803       0.23831382       0.50230024 </v>
   <v>       0.04680359       0.38158417       0.50241826 </v>
   <v>       0.04852631       0.52496151       0.50283929 </v>
   <v>       0.04933611       0.66810667       0.50302232 </v>
   <v>       0.04958018       0.81134469       0.50302334 </v>
   <v>       0.04925551       0.95428560       0.50296018 </v>
   <v>       0.19238746       0.09811485       0.50207943 </v>
   <v>       0.19180880       0.24074764       0.50161575 </v>
   <v>       0.18898388       0.38101672       0.50140279 </v>
   <v>       0.19211066       0.52421807       0.50177847 </v>
   <v>       0.19250432       0.66741688       0.50217610 </v>
   <v>       0.19246318       0.81098910       0.50224182 </v>
   <v>       0.19242642       0.95456519       0.50220645 </v>
   <v>       0.33502340       0.09852701       0.50230782 </v>
   <v>       0.33921994       0.24376269       0.50188388 </v>
   <v>       0.33946831       0.66870395       0.50196658 </v>
   <v>       0.33508143       0.80966140       0.50235918 </v>
   <v>       0.33470277       0.95392819       0.50241762 </v>
   <v>       0.47707930       0.09742992       0.50344379 </v>
   <v>       0.47484299       0.24293982       0.50304156 </v>
   <v>       0.47492615       0.80519186       0.50314441 </v>
   <v>       0.47709645       0.95292734       0.50346977 </v>
   <v>       0.61894381       0.09613041       0.50447298 </v>
   <v>       0.61889063       0.24093824       0.50421286 </v>
   <v>       0.61893161       0.95128819       0.50430323 </v>
   <v>       0.76147014       0.09539733       0.50448397 </v>
   <v>       0.76146590       0.23932650       0.50449281 </v>
   <v>       0.76085225       0.38348830       0.50436504 </v>
   <v>       0.76015948       0.53004286       0.50475366 </v>
   <v>       0.76352087       0.66839936       0.50494877 </v>
   <v>       0.76004354       0.80315105       0.50481405 </v>
   <v>       0.76083367       0.95057695       0.50438319 </v>
   <v>       0.90396783       0.09480841       0.50357065 </v>
   <v>       0.90396769       0.23859392       0.50363906 </v>
   <v>       0.90404016       0.38237436       0.50371678 </v>
   <v>       0.90486386       0.52564290       0.50386385 </v>
   <v>       0.90646593       0.66844058       0.50406598 </v>
   <v>       0.90641059       0.81110610       0.50404295 </v>
   <v>       0.90476289       0.95228069       0.50378104 </v>
   <v>       0.42912568       0.28773850       0.50240373 </v>
   <v>       0.42926710       0.71474182       0.50249036 </v>
   <v>       0.71696856       0.57639430       0.50513422 </v>
   <v>       0.71703196       0.71369673       0.50522568 </v>
   <v>       0.33149976       0.38385034       0.50115625 </v>
   <v>       0.33188044       0.52061929       0.50116383 </v>
   <v>       0.61981321       0.38311952       0.50416716 </v>
   <v>       0.61985654       0.81009073       0.50433208 </v>
   <v>       0.46446766       0.52243479       0.50067083 </v>
   <v>       0.53316833       0.48995780       0.50207580 </v>
   <v>       0.52852118       0.54388551       0.50000000 </v>
  </varray>
  <varray name="selective"  type="logical" >
   <v type="logical" >  T  T  T </v>
   <v type="logical" >  T  T  T </v>
   <v type="logical" >  T  T  T </v>
   <v type="logical" >  T  T  T </v>
   <v type="logical" >  T  T  T </v>
   <v type="logical" >  T  T  T </v>
   <v type="logical" >  T  T  T </v>
   <v type="logical" >  T  T  T </v>
   <v type="logical" >  T  T  T </v>
   <v type="logical" >  T  T  T </v>
   <v type="logical" >  T  T  T </v>
   <v type="logical" >  T  T  T </v>
   <v type="logical" >  T  T  T </v>
   <v type="logical" >  T  T  T </v>
   <v type="logical" >  T  T  T </v>
   <v type="logical" >  T  T  T </v>
   <v type="logical" >  T  T  T </v>
   <v type="logical" >  T  T  T </v>
   <v type="logical" >  T  T  T </v>
   <v type="logical" >  T  T  T </v>
   <v type="logical" >  T  T  T </v>
   <v type="logical" >  T  T  T </v>
   <v type="logical" >  T  T  T </v>
   <v type="logical" >  T  T  T </v>
   <v type="logical" >  T  T  T </v>
   <v type="logical" >  T  T  T </v>
   <v type="logical" >  T  T  T </v>
   <v type="logical" >  T  T  T </v>
   <v type="logical" >  T  T  T </v>
   <v type="logical" >  T  T  T </v>
   <v type="logical" >  T  T  T </v>
   <v type="logical" >  T  T  T </v>
   <v type="logical" >  T  T  T </v>
   <v type="logical" >  T  T  T </v>
   <v type="logical" >  T  T  T </v>
   <v type="logical" >  T  T  T </v>
   <v type="logical" >  T  T  T </v>
   <v type="logical" >  T  T  T </v>
   <v type="logical" >  T  T  T </v>
   <v type="logical" >  T  T  T </v>
   <v type="logical" >  T  T  T </v>
   <v type="logical" >  T  T  T </v>
   <v type="logical" >  T  T  T </v>
   <v type="logical" >  T  T  T </v>
   <v type="logical" >  T  T  T </v>
   <v type="logical" >  T  T  T </v>
   <v type="logical" >  T  T  T </v>
   <v type="logical" >  T  T  T </v>
   <v type="logical" >  T  T  T </v>
   <v type="logical" >  T  T  T </v>
   <v type="logical" >  T  T  T </v>
   <v type="logical" >  T  T  T </v>
   <v type="logical" >  T  T  T </v>
   <v type="logical" >  T  T  T </v>
   <v type="logical" >  T  T  T </v>
   <v type="logical" >  T  T  T </v>
   <v type="logical" >  T  T  T </v>
   <v type="logical" >  T  T  T </v>
   <v type="logical" >  T  T  T </v>
   <v type="logical" >  T  T  T </v>
   <v type="logical" >  T  T  T </v>
   <v type="logical" >  T  T  T </v>
   <v type="logical" >  T  T  T </v>
   <v type="logical" >  T  T  T </v>
   <v type="logical" >  T  T  T </v>
   <v type="logical" >  T  T  T </v>
   <v type="logical" >  T  T  T </v>
   <v type="logical" >  T  T  T </v>
   <v type="logical" >  T  T  T </v>
   <v type="logical" >  T  T  T </v>
   <v type="logical" >  T  T  T </v>
   <v type="logical" >  T  T  T </v>
   <v type="logical" >  T  T  T </v>
   <v type="logical" >  T  T  T </v>
   <v type="logical" >  T  T  T </v>
   <v type="logical" >  T  T  T </v>
   <v type="logical" >  T  T  T </v>
   <v type="logical" >  T  T  T </v>
   <v type="logical" >  T  T  T </v>
   <v type="logical" >  T  T  T </v>
   <v type="logical" >  T  T  T </v>
   <v type="logical" >  T  T  T </v>
   <v type="logical" >  T  T  T </v>
   <v type="logical" >  T  T  T </v>
   <v type="logical" >  T  T  T </v>
   <v type="logical" >  T  T  T </v>
   <v type="logical" >  T  T  T </v>
   <v type="logical" >  T  T  T </v>
   <v type="logical" >  T  T  T </v>
   <v type="logical" >  T  T  T </v>
   <v type="logical" >  T  T  F </v>
  </varray>
  <nose>
   <v>      -3.00000000       0.00000000       0.00010000       0.00010000 </v>
  </nose>
 </structure>
 <calculation>
  <scstep>
   <time name="dav">   39.91   40.62</time>
   <time name="total">   41.82   42.71</time>
   <energy>
    <i name="alphaZ">    175.06488379 </i>
    <i name="ewald">  36509.75132859 </i>
    <i name="hartreedc"> -47332.86609982 </i>
    <i name="XCdc">   1240.56333387 </i>
    <i name="pawpsdc">  10672.04303313 </i>
    <i name="pawaedc"> -10728.93979680 </i>
    <i name="eentropy">     -0.03791420 </i>
    <i name="bandstr">  -1396.42501528 </i>
    <i name="atom">  14345.53195627 </i>
    <i name="e_fr_energy">   3484.68570956 </i>
    <i name="e_wo_entrp">   3484.72362376 </i>
    <i name="e_0_energy">   3484.70466666 </i>
   </energy>
  </scstep>
  <scstep>
   <time name="dav">   49.90   51.80</time>
   <time name="total">   49.90   51.83</time>
   <energy>
    <i name="e_fr_energy">   -168.00555796 </i>
    <i name="e_wo_entrp">   -168.00555759 </i>
    <i name="e_0_energy">   -168.00555777 </i>
   </energy>
  </scstep>
  <scstep>
   <time name="dav">   43.04   43.86</time>
   <time name="total">   43.04   43.91</time>
   <energy>
    <i name="e_fr_energy">   -841.69956747 </i>
    <i name="e_wo_entrp">   -841.69956713 </i>
    <i name="e_0_energy">   -841.69956730 </i>
   </energy>
  </scstep>
  <scstep>
   <time name="dav">   43.42   44.26</time>
   <time name="total">   43.42   44.29</time>
   <energy>
    <i name="e_fr_energy">   -865.65727051 </i>
    <i name="e_wo_entrp">   -865.65727017 </i>
    <i name="e_0_energy">   -865.65727034 </i>
   </energy>
  </scstep>
  <scstep>
   <time name="dav">   49.80   50.82</time>
   <time name="total">   52.58   53.64</time>
   <energy>
    <i name="e_fr_energy">   -866.39212619 </i>
    <i name="e_wo_entrp">   -866.39212584 </i>
    <i name="e_0_energy">   -866.39212601 </i>
   </energy>
  </scstep>
  <scstep>
   <time name="dav">   40.38   40.95</time>
   <time name="total">   45.49   46.22</time>
   <energy>
    <i name="e_fr_energy">   -837.56176566 </i>
    <i name="e_wo_entrp">   -837.56176560 </i>
    <i name="e_0_energy">   -837.56176563 </i>
   </energy>
  </scstep>
  <scstep>
   <time name="dav">   42.82   43.79</time>
   <time name="total">   47.99   49.13</time>
   <energy>
    <i name="e_fr_energy">   -813.89578645 </i>
    <i name="e_wo_entrp">   -813.87287525 </i>
    <i name="e_0_energy">   -813.88433085 </i>
   </energy>
  </scstep>
  <scstep>
   <time name="dav">   43.73   44.53</time>
   <time name="total">   48.59   49.60</time>
   <energy>
    <i name="e_fr_energy">   -813.17428326 </i>
    <i name="e_wo_entrp">   -813.17428312 </i>
    <i name="e_0_energy">   -813.17428319 </i>
   </energy>
  </scstep>
  <scstep>
   <time name="dav">   42.67   43.73</time>
   <time name="total">   47.55   48.92</time>
   <energy>
    <i name="e_fr_energy">   -813.56040178 </i>
    <i name="e_wo_entrp">   -813.56040162 </i>
    <i name="e_0_energy">   -813.56040170 </i>
   </energy>
  </scstep>
  <scstep>
   <time name="dav">   39.94   40.51</time>
   <time name="total">   45.33   46.19</time>
   <energy>
    <i name="e_fr_energy">   -813.32416515 </i>
    <i name="e_wo_entrp">   -813.32416504 </i>
    <i name="e_0_energy">   -813.32416509 </i>
   </energy>
  </scstep>
  <scstep>
   <time name="dav">   39.44   40.74</time>
   <time name="total">   44.62   46.08</time>
   <energy>
    <i name="e_fr_energy">   -812.99198926 </i>
    <i name="e_wo_entrp">   -812.99198916 </i>
    <i name="e_0_energy">   -812.99198921 </i>
   </energy>
  </scstep>
  <scstep>
   <time name="dav">   42.70   43.37</time>
   <time name="total">   48.05   48.94</time>
   <energy>
    <i name="e_fr_energy">   -812.93935894 </i>
    <i name="e_wo_entrp">   -812.93935884 </i>
    <i name="e_0_energy">   -812.93935889 </i>
   </energy>
  </scstep>
  <scstep>
   <time name="dav">   43.67   44.44</time>
   <time name="total">   48.77   49.93</time>
   <energy>
    <i name="e_fr_energy">   -812.85194224 </i>
    <i name="e_wo_entrp">   -812.85194215 </i>
    <i name="e_0_energy">   -812.85194220 </i>
   </energy>
  </scstep>
  <scstep>
   <time name="dav">   41.09   41.86</time>
   <time name="total">   46.21   47.23</time>
   <energy>
    <i name="e_fr_energy">   -812.82016408 </i>
    <i name="e_wo_entrp">   -812.82016399 </i>
    <i name="e_0_energy">   -812.82016404 </i>
   </energy>
  </scstep>
  <scstep>
   <time name="dav">   45.32   46.14</time>
   <time name="total">   50.41   51.41</time>
   <energy>
    <i name="e_fr_energy">   -812.72506423 </i>
    <i name="e_wo_entrp">   -812.72506416 </i>
    <i name="e_0_energy">   -812.72506420 </i>
   </energy>
  </scstep>
  <scstep>
   <time name="dav">   44.42   44.98</time>
   <time name="total">   49.44   50.23</time>
   <energy>
    <i name="e_fr_energy">   -812.66942840 </i>
    <i name="e_wo_entrp">   -812.66942833 </i>
    <i name="e_0_energy">   -812.66942837 </i>
   </energy>
  </scstep>
  <scstep>
   <time name="dav">   43.94   44.57</time>
   <time name="total">   48.88   49.70</time>
   <energy>
    <i name="e_fr_energy">   -812.65977187 </i>
    <i name="e_wo_entrp">   -812.65974556 </i>
    <i name="e_0_energy">   -812.65975872 </i>
   </energy>
  </scstep>
  <scstep>
   <time name="dav">   41.28   41.93</time>
   <time name="total">   46.23   47.11</time>
   <energy>
    <i name="e_fr_energy">   -812.71153783 </i>
    <i name="e_wo_entrp">   -812.67690178 </i>
    <i name="e_0_energy">   -812.69421980 </i>
   </energy>
  </scstep>
  <scstep>
   <time name="dav">   43.09   43.53</time>
   <time name="total">   48.33   49.09</time>
   <energy>
    <i name="e_fr_energy">   -812.63650928 </i>
    <i name="e_wo_entrp">   -812.63650824 </i>
    <i name="e_0_energy">   -812.63650876 </i>
   </energy>
  </scstep>
  <scstep>
   <time name="dav">   38.58   39.08</time>
   <time name="total">   43.76   44.49</time>
   <energy>
    <i name="e_fr_energy">   -812.66403788 </i>
    <i name="e_wo_entrp">   -812.66403781 </i>
    <i name="e_0_energy">   -812.66403785 </i>
   </energy>
  </scstep>
  <scstep>
   <time name="dav">   38.63   39.43</time>
   <time name="total">   43.75   44.75</time>
   <energy>
    <i name="e_fr_energy">   -812.66542571 </i>
    <i name="e_wo_entrp">   -812.66542564 </i>
    <i name="e_0_energy">   -812.66542567 </i>
   </energy>
  </scstep>
  <scstep>
   <time name="dav">   41.04   41.53</time>
   <time name="total">   46.39   47.01</time>
   <energy>
    <i name="e_fr_energy">   -812.66241091 </i>
    <i name="e_wo_entrp">   -812.66241020 </i>
    <i name="e_0_energy">   -812.66241056 </i>
   </energy>
  </scstep>
  <scstep>
   <time name="dav">   40.97   41.38</time>
   <time name="total">   46.28   46.86</time>
   <energy>
    <i name="e_fr_energy">   -812.66096595 </i>
    <i name="e_wo_entrp">   -812.66096000 </i>
    <i name="e_0_energy">   -812.66096298 </i>
   </energy>
  </scstep>
  <scstep>
   <time name="dav">   38.64   39.41</time>
   <time name="total">   43.45   44.42</time>
   <energy>
    <i name="e_fr_energy">   -812.66069669 </i>
    <i name="e_wo_entrp">   -812.66068723 </i>
    <i name="e_0_energy">   -812.66069196 </i>
   </energy>
  </scstep>
  <scstep>
   <time name="dav">   35.36   36.07</time>
   <time name="total">   40.42   41.29</time>
   <energy>
    <i name="e_fr_energy">   -812.66049653 </i>
    <i name="e_wo_entrp">   -812.66048337 </i>
    <i name="e_0_energy">   -812.66048995 </i>
   </energy>
  </scstep>
  <scstep>
   <time name="dav">   42.73   43.36</time>
   <time name="total">   47.79   48.69</time>
   <energy>
    <i name="e_fr_energy">   -812.65986178 </i>
    <i name="e_wo_entrp">   -812.65982554 </i>
    <i name="e_0_energy">   -812.65984366 </i>
   </energy>
  </scstep>
  <scstep>
   <time name="dav">   40.35   41.02</time>
   <time name="total">   45.01   45.86</time>
   <energy>
    <i name="e_fr_energy">   -812.65946721 </i>
    <i name="e_wo_entrp">   -812.65939720 </i>
    <i name="e_0_energy">   -812.65943220 </i>
   </energy>
  </scstep>
  <scstep>
   <time name="dav">   43.29   44.16</time>
   <time name="total">   48.44   49.56</time>
   <energy>
    <i name="e_fr_energy">   -812.65883370 </i>
    <i name="e_wo_entrp">   -812.65863008 </i>
    <i name="e_0_energy">   -812.65873189 </i>
   </energy>
  </scstep>
  <scstep>
   <time name="dav">   39.07   39.57</time>
   <time name="total">   43.92   44.60</time>
   <energy>
    <i name="e_fr_energy">   -812.65822564 </i>
    <i name="e_wo_entrp">   -812.65758674 </i>
    <i name="e_0_energy">   -812.65790619 </i>
   </energy>
  </scstep>
  <scstep>
   <time name="dav">   38.60   39.18</time>
   <time name="total">   42.39   43.04</time>
   <energy>
    <i name="e_fr_energy">   -812.65801109 </i>
    <i name="e_wo_entrp">   -812.65687477 </i>
    <i name="e_0_energy">   -812.65744293 </i>
   </energy>
  </scstep>
  <scstep>
   <time name="dav">   32.93   33.29</time>
   <time name="total">   37.47   37.96</time>
   <energy>
    <i name="e_fr_energy">   -812.65797284 </i>
    <i name="e_wo_entrp">   -812.65654253 </i>
    <i name="e_0_energy">   -812.65725768 </i>
   </energy>
  </scstep>
  <scstep>
   <time name="dav">   35.50   35.77</time>
   <time name="total">   40.02   40.40</time>
   <energy>
    <i name="e_fr_energy">   -812.65792694 </i>
    <i name="e_wo_entrp">   -812.65587528 </i>
    <i name="e_0_energy">   -812.65690111 </i>
   </energy>
  </scstep>
  <scstep>
   <time name="dav">   30.15   30.48</time>
   <time name="total">   35.11   35.51</time>
   <energy>
    <i name="e_fr_energy">   -812.65798578 </i>
    <i name="e_wo_entrp">   -812.65620371 </i>
    <i name="e_0_energy">   -812.65709475 </i>
   </energy>
  </scstep>
  <scstep>
   <time name="dav">   34.24   34.52</time>
   <time name="total">   38.92   39.32</time>
   <energy>
    <i name="e_fr_energy">   -812.65793689 </i>
    <i name="e_wo_entrp">   -812.65546591 </i>
    <i name="e_0_energy">   -812.65670140 </i>
   </energy>
  </scstep>
  <scstep>
   <time name="dav">   30.79   31.09</time>
   <time name="total">   35.32   35.72</time>
   <energy>
    <i name="e_fr_energy">   -812.65795482 </i>
    <i name="e_wo_entrp">   -812.65552898 </i>
    <i name="e_0_energy">   -812.65674190 </i>
   </energy>
  </scstep>
  <scstep>
   <time name="dav">   18.08   18.20</time>
   <time name="total">   20.29   20.51</time>
   <energy>
    <i name="alphaZ">    175.06488379 </i>
    <i name="ewald">  36509.75132859 </i>
    <i name="hartreedc"> -48718.92198610 </i>
    <i name="XCdc">   1292.97351045 </i>
    <i name="pawpsdc">  37079.52538798 </i>
    <i name="pawaedc"> -37146.97945473 </i>
    <i name="eentropy">     -0.00249863 </i>
    <i name="bandstr">  -4349.60108160 </i>
    <i name="atom">  14345.53195627 </i>
    <i name="e_fr_energy">   -812.65795398 </i>
    <i name="e_wo_entrp">   -812.65545535 </i>
    <i name="e_0_energy">   -812.65670466 </i>
   </energy>
  </scstep>
  <structure>
   <crystal>
    <varray name="basis" >
     <v>      17.27103806       0.00000000       0.00000000 </v>
     <v>      -8.63551903      14.95715771       0.00000000 </v>
     <v>       0.00000000       0.00000000      15.00000000 </v>
    </varray>
    <i name="volume">   3874.88459904 </i>
    <varray name="rec_basis" >
     <v>       0.05790040       0.03342881       0.00000000 </v>
     <v>       0.00000000       0.06685762       0.00000000 </v>
     <v>       0.00000000       0.00000000       0.06666667 </v>
    </varray>
   </crystal>
   <varray name="positions" >
    <v>       0.00053505       0.00098825       0.50324133 </v>
    <v>       0.99957983       0.14320091       0.50285547 </v>
    <v>       0.99934231       0.28626022       0.50271632 </v>
    <v>       0.99967726       0.42956753       0.50301740 </v>
    <v>       0.00065857       0.57269753       0.50334713 </v>
    <v>       0.00212824       0.71602157       0.50334668 </v>
    <v>       0.00207063       0.85917177       0.50330753 </v>
    <v>       0.14489885       0.00274688       0.50238650 </v>
    <v>       0.14414075       0.14525673       0.50209796 </v>
    <v>       0.14228880       0.28626418       0.50163639 </v>
    <v>       0.14240676       0.42917519       0.50175627 </v>
    <v>       0.14435567       0.57202761       0.50223282 </v>
    <v>       0.14497603       0.71527637       0.50245464 </v>
    <v>       0.14496412       0.85903338       0.50241202 </v>
    <v>       0.28748997       0.00229304       0.50220353 </v>
    <v>       0.28804444       0.14705050       0.50197903 </v>
    <v>       0.28876728       0.29416877       0.50142868 </v>
    <v>       0.28463209       0.42876688       0.50115626 </v>
    <v>       0.28917684       0.56773636       0.50151935 </v>
    <v>       0.28814698       0.71414367       0.50206378 </v>
    <v>       0.28752463       0.85835055       0.50222893 </v>
    <v>       0.43003824       0.00164264       0.50310318 </v>
    <v>       0.43007818       0.14650664       0.50292501 </v>
    <v>       0.43012661       0.85683027       0.50298573 </v>
    <v>       0.57191157       0.00036255       0.50423296 </v>
    <v>       0.57188058       0.14483653       0.50417769 </v>
    <v>       0.57413159       0.29258631       0.50389575 </v>
    <v>       0.57426070       0.85489994       0.50402558 </v>
    <v>       0.71395929       0.99920192       0.50442093 </v>
    <v>       0.71427868       0.14377809       0.50461592 </v>
    <v>       0.71393769       0.28800213       0.50439198 </v>
    <v>       0.70970494       0.42905318       0.50451232 </v>
    <v>       0.70960749       0.85383298       0.50463858 </v>
    <v>       0.85651901       0.99946341       0.50394639 </v>
    <v>       0.85651024       0.14305194       0.50393123 </v>
    <v>       0.85652764       0.28669740       0.50401779 </v>
    <v>       0.85657635       0.43026337       0.50402996 </v>
    <v>       0.85719074       0.57347129       0.50425035 </v>
    <v>       0.85945475       0.71625636       0.50437109 </v>
    <v>       0.85711157       0.85678918       0.50422948 </v>
    <v>       0.04835646       0.09656825       0.50270887 </v>
    <v>       0.04671803       0.23831382       0.50230024 </v>
    <v>       0.04680359       0.38158417       0.50241826 </v>
    <v>       0.04852631       0.52496151       0.50283929 </v>
    <v>       0.04933611       0.66810667       0.50302232 </v>
    <v>       0.04958018       0.81134469       0.50302334 </v>
    <v>       0.04925551       0.95428560       0.50296018 </v>
    <v>       0.19238746       0.09811485       0.50207943 </v>
    <v>       0.19180880       0.24074764       0.50161575 </v>
    <v>       0.18898388       0.38101672       0.50140279 </v>
    <v>       0.19211066       0.52421807       0.50177847 </v>
    <v>       0.19250432       0.66741688       0.50217610 </v>
    <v>       0.19246318       0.81098910       0.50224182 </v>
    <v>       0.19242642       0.95456519       0.50220645 </v>
    <v>       0.33502340       0.09852701       0.50230782 </v>
    <v>       0.33921994       0.24376269       0.50188388 </v>
    <v>       0.33946831       0.66870395       0.50196658 </v>
    <v>       0.33508143       0.80966140       0.50235918 </v>
    <v>       0.33470277       0.95392819       0.50241762 </v>
    <v>       0.47707930       0.09742992       0.50344379 </v>
    <v>       0.47484299       0.24293982       0.50304156 </v>
    <v>       0.47492615       0.80519186       0.50314441 </v>
    <v>       0.47709645       0.95292734       0.50346977 </v>
    <v>       0.61894381       0.09613041       0.50447298 </v>
    <v>       0.61889063       0.24093824       0.50421286 </v>
    <v>       0.61893161       0.95128819       0.50430323 </v>
    <v>       0.76147014       0.09539733       0.50448397 </v>
    <v>       0.76146590       0.23932650       0.50449281 </v>
    <v>       0.76085225       0.38348830       0.50436504 </v>
    <v>       0.76015948       0.53004286       0.50475366 </v>
    <v>       0.76352087       0.66839936       0.50494877 </v>
    <v>       0.76004354       0.80315105       0.50481405 </v>
    <v>       0.76083367       0.95057695       0.50438319 </v>
    <v>       0.90396783       0.09480841       0.50357065 </v>
    <v>       0.90396769       0.23859392       0.50363906 </v>
    <v>       0.90404016       0.38237436       0.50371678 </v>
    <v>       0.90486386       0.52564290       0.50386385 </v>
    <v>       0.90646593       0.66844058       0.50406598 </v>
    <v>       0.90641059       0.81110610       0.50404295 </v>
    <v>       0.90476289       0.95228069       0.50378104 </v>
    <v>       0.42912568       0.28773850       0.50240373 </v>
    <v>       0.42926710       0.71474182       0.50249036 </v>
    <v>       0.71696856       0.57639430       0.50513422 </v>
    <v>       0.71703196       0.71369673       0.50522568 </v>
    <v>       0.33149976       0.38385034       0.50115625 </v>
    <v>       0.33188044       0.52061929       0.50116383 </v>
    <v>       0.61981321       0.38311952       0.50416716 </v>
    <v>       0.61985654       0.81009073       0.50433208 </v>
    <v>       0.46446766       0.52243479       0.50067083 </v>
    <v>       0.53316833       0.48995780       0.50207580 </v>
    <v>       0.52852118       0.54388551       0.50000000 </v>
   </varray>
  </structure>
  <varray name="forces" >
   <v>      -0.00021060      -0.00064047       0.00035188 </v>
   <v>       0.00095986       0.00413600      -0.00069382 </v>
   <v>      -0.00013796       0.00045020      -0.00001865 </v>
   <v>      -0.00010247      -0.00059522       0.00018553 </v>
   <v>      -0.00093152       0.00237833      -0.00030093 </v>
   <v>      -0.00233545       0.00194600      -0.00080631 </v>
   <v>      -0.00039654       0.00003810      -0.00044807 </v>
   <v>       0.00018018      -0.00021105      -0.00010742 </v>
   <v>      -0.00044892       0.00109155       0.00045373 </v>
   <v>       0.00111562       0.00116030       0.00046933 </v>
   <v>       0.00039051       0.00000993       0.00061981 </v>
   <v>       0.00031872      -0.00055168       0.00043114 </v>
   <v>      -0.00116538       0.00147484       0.00012475 </v>
   <v>      -0.00058868       0.00020832       0.00005198 </v>
   <v>      -0.00084815       0.00062374       0.00053004 </v>
   <v>       0.00010352      -0.00099739       0.00049746 </v>
   <v>       0.00030874       0.00086342       0.00106550 </v>
   <v>      -0.00016447      -0.00017683       0.00102125 </v>
   <v>       0.00196795       0.00054919      -0.00010398 </v>
   <v>      -0.00010752       0.00039896       0.00038677 </v>
   <v>      -0.00055488       0.00070264       0.00053627 </v>
   <v>      -0.00063135       0.00305094       0.00127120 </v>
   <v>       0.00011090      -0.00044472       0.00037287 </v>
   <v>      -0.00001561       0.00054461       0.00047829 </v>
   <v>      -0.00264912      -0.00151349       0.00108868 </v>
   <v>       0.00032211      -0.00043707      -0.00024690 </v>
   <v>       0.00087072      -0.00074308       0.00002264 </v>
   <v>      -0.00054574      -0.00009742       0.00078894 </v>
   <v>      -0.00027442      -0.00000309       0.00016967 </v>
   <v>      -0.00047670       0.00021287      -0.00067648 </v>
   <v>       0.00120181       0.00008709      -0.00116689 </v>
   <v>      -0.00043550      -0.00015190       0.00055464 </v>
   <v>      -0.00051630      -0.00020082       0.00105133 </v>
   <v>      -0.00021784      -0.00078547       0.00049880 </v>
   <v>       0.00041856       0.00261202      -0.00076786 </v>
   <v>      -0.00013590      -0.00033448      -0.00082091 </v>
   <v>      -0.00059028      -0.00107104       0.00023923 </v>
   <v>      -0.00263960       0.00126179       0.00077524 </v>
   <v>      -0.00412295       0.00159219       0.00018171 </v>
   <v>       0.00024368      -0.00134943       0.00040688 </v>
   <v>      -0.00059847      -0.00036819       0.00036908 </v>
   <v>      -0.00127370      -0.00596902       0.00162091 </v>
   <v>      -0.00063555       0.00073790       0.00031068 </v>
   <v>      -0.00011028       0.00051942       0.00065447 </v>
   <v>       0.00566634      -0.00776386      -0.00050590 </v>
   <v>       0.00021422       0.00025369      -0.00053100 </v>
   <v>      -0.00060410       0.00028891       0.00007118 </v>
   <v>       0.00135910       0.00055193      -0.00037098 </v>
   <v>      -0.00142610      -0.00148666      -0.00007417 </v>
   <v>      -0.00011083       0.00032044       0.00074577 </v>
   <v>      -0.00111031      -0.00020344       0.00070815 </v>
   <v>       0.00004287       0.00012437       0.00030638 </v>
   <v>       0.00068835      -0.00041734       0.00023024 </v>
   <v>      -0.00024777       0.00010500       0.00032822 </v>
   <v>      -0.00054508       0.00114357       0.00132947 </v>
   <v>      -0.00052922       0.00211467       0.00110806 </v>
   <v>       0.00017193       0.00034545       0.00059095 </v>
   <v>      -0.00026243       0.00004077       0.00052050 </v>
   <v>       0.00176464      -0.00199569       0.00052791 </v>
   <v>      -0.00006834      -0.00030253       0.00013778 </v>
   <v>       0.00042649       0.00031560       0.00043515 </v>
   <v>       0.00005313       0.00052618       0.00069159 </v>
   <v>       0.00099847      -0.00019085       0.00042705 </v>
   <v>       0.00070811       0.00032602      -0.00028486 </v>
   <v>      -0.00351406       0.00079329      -0.00127192 </v>
   <v>       0.00050982       0.00044029       0.00033563 </v>
   <v>      -0.00010329      -0.00078395      -0.00016855 </v>
   <v>      -0.00000109       0.00019573      -0.00123365 </v>
   <v>      -0.00044645       0.00054105      -0.00048018 </v>
   <v>      -0.00039642       0.00051943      -0.00006229 </v>
   <v>       0.00064939      -0.00008891       0.00070998 </v>
   <v>      -0.00039474      -0.00023534       0.00112965 </v>
   <v>      -0.00008420       0.00065783       0.00053052 </v>
   <v>      -0.00050882      -0.00055038       0.00064595 </v>
   <v>      -0.00008197      -0.00104409      -0.00032894 </v>
   <v>       0.00001962       0.00022049       0.00039843 </v>
   <v>       0.00077152       0.00067377      -0.00054313 </v>
   <v>       0.00097748      -0.00126028      -0.00104556 </v>
   <v>       0.00022871      -0.00036720      -0.00029505 </v>
   <v>       0.00067637       0.00453826       0.00100347 </v>
   <v>      -0.00048888       0.00009847       0.00078394 </v>
   <v>      -0.00020431      -0.00034950       0.00066414 </v>
   <v>      -0.00052364      -0.00007892       0.00078034 </v>
   <v>      -0.00060263       0.00063530       0.00154573 </v>
   <v>       0.00040486      -0.00044590       0.00126889 </v>
   <v>      -0.00055159       0.00094692       0.00091498 </v>
   <v>      -0.00029335       0.00022125       0.00040829 </v>
   <v>       0.00025677       0.00007203       0.00116730 </v>
   <v>       0.01416975      -0.00195385      -0.00705597 </v>
   <v>      -0.00092216       0.00966460      -0.00754703 </v>
   <v>      -0.00138721      -0.01716511      -0.01006892 </v>
  </varray>
  <varray name="stress" >
   <v>     -11.92479905       4.50726016      -0.00334405 </v>
   <v>       4.50726041     -16.79759706       0.00071024 </v>
   <v>      -0.00334433       0.00071044      -0.24171895 </v>
  </varray>
  <energy>
   <i name="e_fr_energy">   -820.03319520 </i>
   <i name="e_wo_entrp">   -820.03069657 </i>
   <i name="e_0_energy">   -820.03194588 </i>
  </energy>
  <time name="totalsc"> 1646.35 1678.07</time>
  <eigenvalues>
   <array>
    <dimension dim="1">band</dimension>
    <dimension dim="2">kpoint</dimension>
    <dimension dim="3">spin</dimension>
    <field>eigene</field>
    <field>occ</field>
    <set>
     <set comment="spin 1">
      <set comment="kpoint 1">
       <r>  -22.8521    1.0000 </r>
       <r>  -22.6998    1.0000 </r>
       <r>  -22.5646    1.0000 </r>
       <r>  -22.4247    1.0000 </r>
       <r>  -22.2172    1.0000 </r>
       <r>  -22.0761    1.0000 </r>
       <r>  -21.9450    1.0000 </r>
       <r>  -21.5962    1.0000 </r>
       <r>  -21.5567    1.0000 </r>
       <r>  -21.4645    1.0000 </r>
       <r>  -21.4001    1.0000 </r>
       <r>  -21.1258    1.0000 </r>
       <r>  -21.0490    1.0000 </r>
       <r>  -20.9603    1.0000 </r>
       <r>  -20.8792    1.0000 </r>
       <r>  -20.6676    1.0000 </r>
       <r>  -20.5502    1.0000 </r>
       <r>  -20.4230    1.0000 </r>
       <r>  -20.2437    1.0000 </r>
       <r>  -20.1142    1.0000 </r>
       <r>  -20.0594    1.0000 </r>
       <r>  -19.6193    1.0000 </r>
       <r>  -19.5821    1.0000 </r>
       <r>  -19.0849    1.0000 </r>
       <r>  -18.9689    1.0000 </r>
       <r>  -18.9418    1.0000 </r>
       <r>  -18.9319    1.0000 </r>
       <r>  -18.9224    1.0000 </r>
       <r>  -18.8516    1.0000 </r>
       <r>  -18.7016    1.0000 </r>
       <r>  -18.5414    1.0000 </r>
       <r>  -18.3382    1.0000 </r>
       <r>  -18.1923    1.0000 </r>
       <r>  -18.1665    1.0000 </r>
       <r>  -17.9306    1.0000 </r>
       <r>  -17.7453    1.0000 </r>
       <r>  -17.3870    1.0000 </r>
       <r>  -17.1848    1.0000 </r>
       <r>  -17.0620    1.0000 </r>
       <r>  -17.0362    1.0000 </r>
       <r>  -16.9126    1.0000 </r>
       <r>  -16.8575    1.0000 </r>
       <r>  -16.7873    1.0000 </r>
       <r>  -16.7728    1.0000 </r>
       <r>  -16.7664    1.0000 </r>
       <r>  -16.1777    1.0000 </r>
       <r>  -16.0289    1.0000 </r>
       <r>  -15.7902    1.0000 </r>
       <r>  -15.5431    1.0000 </r>
       <r>  -15.4867    1.0000 </r>
       <r>  -15.4200    1.0000 </r>
       <r>  -15.1393    1.0000 </r>
       <r>  -15.1139    1.0000 </r>
       <r>  -14.9737    1.0000 </r>
       <r>  -14.9493    1.0000 </r>
       <r>  -14.8681    1.0000 </r>
       <r>  -14.7927    1.0000 </r>
       <r>  -14.6682    1.0000 </r>
       <r>  -14.5497    1.0000 </r>
       <r>  -14.2317    1.0000 </r>
       <r>  -13.9765    1.0000 </r>
       <r>  -13.7596    1.0000 </r>
       <r>  -13.5908    1.0000 </r>
       <r>  -13.3126    1.0000 </r>
       <r>  -13.2685    1.0000 </r>
       <r>  -13.1386    1.0000 </r>
       <r>  -13.0615    1.0000 </r>
       <r>  -13.0191    1.0000 </r>
       <r>  -12.9168    1.0000 </r>
       <r>  -12.9086    1.0000 </r>
       <r>  -12.7874    1.0000 </r>
       <r>  -12.6911    1.0000 </r>
       <r>  -12.6897    1.0000 </r>
       <r>  -12.6569    1.0000 </r>
       <r>  -12.5784    1.0000 </r>
       <r>  -12.2074    1.0000 </r>
       <r>  -12.1540    1.0000 </r>
       <r>  -11.8555    1.0000 </r>
       <r>  -11.6658    1.0000 </r>
       <r>  -11.6655    1.0000 </r>
       <r>  -11.5904    1.0000 </r>
       <r>  -11.4652    1.0000 </r>
       <r>  -10.9362    1.0000 </r>
       <r>  -10.8872    1.0000 </r>
       <r>  -10.7624    1.0000 </r>
       <r>  -10.7252    1.0000 </r>
       <r>  -10.5981    1.0000 </r>
       <r>  -10.5908    1.0000 </r>
       <r>  -10.4397    1.0000 </r>
       <r>  -10.3997    1.0000 </r>
       <r>  -10.3811    1.0000 </r>
       <r>  -10.3695    1.0000 </r>
       <r>  -10.3170    1.0000 </r>
       <r>  -10.2673    1.0000 </r>
       <r>  -10.1637    1.0000 </r>
       <r>  -10.1243    1.0000 </r>
       <r>  -10.0782    1.0000 </r>
       <r>  -10.0277    1.0000 </r>
       <r>   -9.9807    1.0000 </r>
       <r>   -9.9408    1.0000 </r>
       <r>   -9.9196    1.0000 </r>
       <r>   -9.8881    1.0000 </r>
       <r>   -9.8598    1.0000 </r>
       <r>   -9.8189    1.0000 </r>
       <r>   -9.7919    1.0000 </r>
       <r>   -9.7733    1.0000 </r>
       <r>   -9.7552    1.0000 </r>
       <r>   -9.6621    1.0000 </r>
       <r>   -9.6423    1.0000 </r>
       <r>   -9.6058    1.0000 </r>
       <r>   -9.2507    1.0000 </r>
       <r>   -9.1935    1.0000 </r>
       <r>   -9.1890    1.0000 </r>
       <r>   -9.1629    1.0000 </r>
       <r>   -9.1493    1.0000 </r>
       <r>   -8.9344    1.0000 </r>
       <r>   -8.8655    1.0000 </r>
       <r>   -8.7741    1.0000 </r>
       <r>   -8.7581    1.0000 </r>
       <r>   -8.7223    1.0000 </r>
       <r>   -8.7076    1.0000 </r>
       <r>   -8.6265    1.0000 </r>
       <r>   -8.6154    1.0000 </r>
       <r>   -8.6036    1.0000 </r>
       <r>   -8.5418    1.0000 </r>
       <r>   -8.4991    1.0000 </r>
       <r>   -8.4868    1.0000 </r>
       <r>   -8.4577    1.0000 </r>
       <r>   -8.3801    1.0000 </r>
       <r>   -8.3739    1.0000 </r>
       <r>   -8.3219    1.0000 </r>
       <r>   -8.2850    1.0000 </r>
       <r>   -8.2615    1.0000 </r>
       <r>   -8.1078    1.0000 </r>
       <r>   -8.0595    1.0000 </r>
       <r>   -7.9398    1.0000 </r>
       <r>   -7.9358    1.0000 </r>
       <r>   -7.9134    1.0000 </r>
       <r>   -7.7406    1.0000 </r>
       <r>   -7.7141    1.0000 </r>
       <r>   -7.5515    1.0000 </r>
       <r>   -7.4832    1.0000 </r>
       <r>   -7.2948    1.0000 </r>
       <r>   -7.1443    1.0000 </r>
       <r>   -7.0820    1.0000 </r>
       <r>   -6.9748    1.0000 </r>
       <r>   -6.9657    1.0000 </r>
       <r>   -6.8244    1.0000 </r>
       <r>   -6.7561    1.0000 </r>
       <r>   -6.6922    1.0000 </r>
       <r>   -6.5954    1.0000 </r>
       <r>   -6.5711    1.0000 </r>
       <r>   -6.5174    1.0000 </r>
       <r>   -6.5011    1.0000 </r>
       <r>   -6.3648    1.0000 </r>
       <r>   -6.2835    1.0000 </r>
       <r>   -6.2725    1.0000 </r>
       <r>   -6.2698    1.0000 </r>
       <r>   -6.2249    1.0000 </r>
       <r>   -5.9550    1.0000 </r>
       <r>   -5.8461    1.0000 </r>
       <r>   -5.8251    1.0000 </r>
       <r>   -5.6628    1.0000 </r>
       <r>   -5.4101    1.0000 </r>
       <r>   -5.2698    1.0000 </r>
       <r>   -5.1590    1.0000 </r>
       <r>   -4.8386    1.0000 </r>
       <r>   -4.8198    1.0000 </r>
       <r>   -4.7266    1.0000 </r>
       <r>   -4.6998    1.0000 </r>
       <r>   -4.6379    1.0000 </r>
       <r>   -4.5454    1.0000 </r>
       <r>   -4.5395    1.0000 </r>
       <r>   -4.5259    1.0000 </r>
       <r>   -4.4626    1.0000 </r>
       <r>   -4.3944    1.0000 </r>
       <r>   -4.3895    1.0000 </r>
       <r>   -4.3560    1.0000 </r>
       <r>   -4.3116    1.0000 </r>
       <r>   -4.1564    1.0000 </r>
       <r>   -4.1240    1.0000 </r>
       <r>   -4.0619    1.0000 </r>
       <r>   -3.7544    1.0000 </r>
       <r>   -3.0768    0.9931 </r>
       <r>   -2.4951    0.0000 </r>
       <r>   -1.8725    0.0000 </r>
       <r>   -1.7928    0.0000 </r>
       <r>   -1.4377    0.0000 </r>
       <r>   -1.3495    0.0000 </r>
       <r>   -1.3245    0.0000 </r>
       <r>   -1.3113    0.0000 </r>
       <r>   -1.2505    0.0000 </r>
       <r>   -1.2442    0.0000 </r>
       <r>   -0.9872    0.0000 </r>
       <r>   -0.8652    0.0000 </r>
       <r>   -0.6669    0.0000 </r>
       <r>   -0.5228    0.0000 </r>
       <r>   -0.3477    0.0000 </r>
       <r>   -0.2315    0.0000 </r>
       <r>    0.1994    0.0000 </r>
       <r>    0.2684    0.0000 </r>
       <r>    0.3838    0.0000 </r>
       <r>    0.6813    0.0000 </r>
       <r>    0.6919    0.0000 </r>
       <r>    0.9125    0.0000 </r>
       <r>    1.0155    0.0000 </r>
       <r>    1.0373    0.0000 </r>
       <r>    1.1072    0.0000 </r>
       <r>    1.1395    0.0000 </r>
       <r>    1.1468    0.0000 </r>
       <r>    1.1938    0.0000 </r>
       <r>    1.2120    0.0000 </r>
       <r>    1.2712    0.0000 </r>
       <r>    1.2784    0.0000 </r>
       <r>    1.4587    0.0000 </r>
       <r>    1.5328    0.0000 </r>
       <r>    1.6271    0.0000 </r>
       <r>    1.9339    0.0000 </r>
       <r>    1.9811    0.0000 </r>
       <r>    2.1652    0.0000 </r>
       <r>    2.2036    0.0000 </r>
       <r>    2.2196    0.0000 </r>
       <r>    2.2270    0.0000 </r>
       <r>    2.3789    0.0000 </r>
       <r>    2.4252    0.0000 </r>
       <r>    2.5347    0.0000 </r>
       <r>    2.6593    0.0000 </r>
       <r>    2.6688    0.0000 </r>
       <r>    2.6980    0.0000 </r>
       <r>    2.7000    0.0000 </r>
       <r>    2.7314    0.0000 </r>
       <r>    2.7662    0.0000 </r>
       <r>    2.7738    0.0000 </r>
       <r>    2.8054    0.0000 </r>
       <r>    2.8120    0.0000 </r>
       <r>    2.8196    0.0000 </r>
       <r>    2.8840    0.0000 </r>
       <r>    2.9142    0.0000 </r>
       <r>    2.9431    0.0000 </r>
       <r>    3.0222    0.0000 </r>
      </set>
      <set comment="kpoint 2">
       <r>  -22.8423    1.0000 </r>
       <r>  -22.7104    1.0000 </r>
       <r>  -22.5727    1.0000 </r>
       <r>  -22.4472    1.0000 </r>
       <r>  -22.1774    1.0000 </r>
       <r>  -22.0655    1.0000 </r>
       <r>  -21.8404    1.0000 </r>
       <r>  -21.7304    1.0000 </r>
       <r>  -21.6938    1.0000 </r>
       <r>  -21.3639    1.0000 </r>
       <r>  -21.2768    1.0000 </r>
       <r>  -21.1630    1.0000 </r>
       <r>  -21.1138    1.0000 </r>
       <r>  -20.9660    1.0000 </r>
       <r>  -20.8564    1.0000 </r>
       <r>  -20.8033    1.0000 </r>
       <r>  -20.5063    1.0000 </r>
       <r>  -20.3096    1.0000 </r>
       <r>  -20.2100    1.0000 </r>
       <r>  -19.9895    1.0000 </r>
       <r>  -19.9040    1.0000 </r>
       <r>  -19.8076    1.0000 </r>
       <r>  -19.4969    1.0000 </r>
       <r>  -19.4642    1.0000 </r>
       <r>  -19.2920    1.0000 </r>
       <r>  -19.1245    1.0000 </r>
       <r>  -19.0394    1.0000 </r>
       <r>  -18.6772    1.0000 </r>
       <r>  -18.6646    1.0000 </r>
       <r>  -18.5594    1.0000 </r>
       <r>  -18.2777    1.0000 </r>
       <r>  -18.1861    1.0000 </r>
       <r>  -18.1697    1.0000 </r>
       <r>  -17.8303    1.0000 </r>
       <r>  -17.8163    1.0000 </r>
       <r>  -17.7952    1.0000 </r>
       <r>  -17.5261    1.0000 </r>
       <r>  -17.4788    1.0000 </r>
       <r>  -17.2881    1.0000 </r>
       <r>  -17.2767    1.0000 </r>
       <r>  -17.1601    1.0000 </r>
       <r>  -17.0563    1.0000 </r>
       <r>  -16.8352    1.0000 </r>
       <r>  -16.7926    1.0000 </r>
       <r>  -16.2795    1.0000 </r>
       <r>  -15.9849    1.0000 </r>
       <r>  -15.7584    1.0000 </r>
       <r>  -15.6337    1.0000 </r>
       <r>  -15.5907    1.0000 </r>
       <r>  -15.4903    1.0000 </r>
       <r>  -15.4476    1.0000 </r>
       <r>  -15.3973    1.0000 </r>
       <r>  -15.1219    1.0000 </r>
       <r>  -14.9732    1.0000 </r>
       <r>  -14.8832    1.0000 </r>
       <r>  -14.8292    1.0000 </r>
       <r>  -14.6866    1.0000 </r>
       <r>  -14.4620    1.0000 </r>
       <r>  -14.3289    1.0000 </r>
       <r>  -14.2233    1.0000 </r>
       <r>  -13.9869    1.0000 </r>
       <r>  -13.9496    1.0000 </r>
       <r>  -13.9436    1.0000 </r>
       <r>  -13.8661    1.0000 </r>
       <r>  -13.6454    1.0000 </r>
       <r>  -13.4257    1.0000 </r>
       <r>  -13.2005    1.0000 </r>
       <r>  -12.9448    1.0000 </r>
       <r>  -12.9286    1.0000 </r>
       <r>  -12.8974    1.0000 </r>
       <r>  -12.5681    1.0000 </r>
       <r>  -12.3846    1.0000 </r>
       <r>  -12.3734    1.0000 </r>
       <r>  -12.2612    1.0000 </r>
       <r>  -12.0512    1.0000 </r>
       <r>  -11.9684    1.0000 </r>
       <r>  -11.9043    1.0000 </r>
       <r>  -11.8052    1.0000 </r>
       <r>  -11.6918    1.0000 </r>
       <r>  -11.6766    1.0000 </r>
       <r>  -11.5404    1.0000 </r>
       <r>  -11.4965    1.0000 </r>
       <r>  -11.3608    1.0000 </r>
       <r>  -11.2098    1.0000 </r>
       <r>  -11.1574    1.0000 </r>
       <r>  -10.9836    1.0000 </r>
       <r>  -10.8698    1.0000 </r>
       <r>  -10.6747    1.0000 </r>
       <r>  -10.6006    1.0000 </r>
       <r>  -10.5529    1.0000 </r>
       <r>  -10.5044    1.0000 </r>
       <r>  -10.4540    1.0000 </r>
       <r>  -10.4352    1.0000 </r>
       <r>  -10.3010    1.0000 </r>
       <r>  -10.2456    1.0000 </r>
       <r>  -10.1191    1.0000 </r>
       <r>   -9.9920    1.0000 </r>
       <r>   -9.9287    1.0000 </r>
       <r>   -9.9017    1.0000 </r>
       <r>   -9.8670    1.0000 </r>
       <r>   -9.8160    1.0000 </r>
       <r>   -9.6327    1.0000 </r>
       <r>   -9.6070    1.0000 </r>
       <r>   -9.5711    1.0000 </r>
       <r>   -9.5375    1.0000 </r>
       <r>   -9.5030    1.0000 </r>
       <r>   -9.4531    1.0000 </r>
       <r>   -9.4477    1.0000 </r>
       <r>   -9.3931    1.0000 </r>
       <r>   -9.3569    1.0000 </r>
       <r>   -9.3382    1.0000 </r>
       <r>   -9.2673    1.0000 </r>
       <r>   -9.2629    1.0000 </r>
       <r>   -9.2127    1.0000 </r>
       <r>   -9.1680    1.0000 </r>
       <r>   -9.1387    1.0000 </r>
       <r>   -9.0227    1.0000 </r>
       <r>   -8.9614    1.0000 </r>
       <r>   -8.9496    1.0000 </r>
       <r>   -8.9304    1.0000 </r>
       <r>   -8.8190    1.0000 </r>
       <r>   -8.7159    1.0000 </r>
       <r>   -8.7006    1.0000 </r>
       <r>   -8.6850    1.0000 </r>
       <r>   -8.6658    1.0000 </r>
       <r>   -8.5843    1.0000 </r>
       <r>   -8.5512    1.0000 </r>
       <r>   -8.5297    1.0000 </r>
       <r>   -8.5199    1.0000 </r>
       <r>   -8.4240    1.0000 </r>
       <r>   -8.2044    1.0000 </r>
       <r>   -8.1469    1.0000 </r>
       <r>   -8.1297    1.0000 </r>
       <r>   -8.0493    1.0000 </r>
[...]
       <r>   -14.8968     8.6465    54.3761 </r>
       <r>   -14.8013    11.7178    55.4943 </r>
       <r>   -14.7059    12.0416    56.6434 </r>
       <r>   -14.6105    10.4800    57.6435 </r>
       <r>   -14.5151     4.9752    58.1183 </r>
       <r>   -14.4196     6.2445    58.7142 </r>
       <r>   -14.3242     1.8406    58.8898 </r>
       <r>   -14.2288     3.6940    59.2423 </r>
       <r>   -14.1333     4.0418    59.6280 </r>
       <r>   -14.0379     7.7170    60.3645 </r>
       <r>   -13.9425    13.8852    61.6895 </r>
       <r>   -13.8471    10.3646    62.6786 </r>
       <r>   -13.7516     7.5882    63.4027 </r>
       <r>   -13.6562     6.2970    64.0037 </r>
       <r>   -13.5608     4.6609    64.4484 </r>
       <r>   -13.4653     0.8941    64.5338 </r>
       <r>   -13.3699     4.5326    64.9663 </r>
       <r>   -13.2745     6.3782    65.5750 </r>
       <r>   -13.1790     4.7342    66.0268 </r>
       <r>   -13.0836     7.8998    66.7806 </r>
       <r>   -12.9882     5.6887    67.3235 </r>
       <r>   -12.8928    16.1042    68.8603 </r>
       <r>   -12.7973     9.4741    69.7644 </r>
       <r>   -12.7019    10.4864    70.7651 </r>
       <r>   -12.6065     8.6208    71.5878 </r>
       <r>   -12.5110    10.6159    72.6009 </r>
       <r>   -12.4156     4.9453    73.0728 </r>
       <r>   -12.3202     4.3402    73.4870 </r>
       <r>   -12.2248     3.2375    73.7959 </r>
       <r>   -12.1293     4.1825    74.1951 </r>
       <r>   -12.0339     6.9999    74.8631 </r>
       <r>   -11.9385     9.3974    75.7598 </r>
       <r>   -11.8430     9.9052    76.7051 </r>
       <r>   -11.7476    12.7488    77.9217 </r>
       <r>   -11.6522    18.0999    79.6490 </r>
       <r>   -11.5567     7.6266    80.3768 </r>
       <r>   -11.4613    10.2690    81.3567 </r>
       <r>   -11.3659     9.7680    82.2889 </r>
       <r>   -11.2705    12.6584    83.4969 </r>
       <r>   -11.1750     9.5071    84.4041 </r>
       <r>   -11.0796     3.6161    84.7492 </r>
       <r>   -10.9842     4.2878    85.1584 </r>
       <r>   -10.8887     7.9798    85.9199 </r>
       <r>   -10.7933     4.0342    86.3049 </r>
       <r>   -10.6979     8.1925    87.0867 </r>
       <r>   -10.6025    14.5785    88.4779 </r>
       <r>   -10.5070    12.3138    89.6530 </r>
       <r>   -10.4116    13.9976    90.9888 </r>
       <r>   -10.3162    14.5365    92.3760 </r>
       <r>   -10.2207    14.7703    93.7855 </r>
       <r>   -10.1253    16.8529    95.3938 </r>
       <r>   -10.0299    14.4509    96.7728 </r>
       <r>    -9.9345    14.3250    98.1398 </r>
       <r>    -9.8390    27.5448   100.7684 </r>
       <r>    -9.7436    18.8189   102.5643 </r>
       <r>    -9.6482    13.5969   103.8618 </r>
       <r>    -9.5527    19.4919   105.7219 </r>
       <r>    -9.4573    11.6529   106.8339 </r>
       <r>    -9.3619    21.8007   108.9144 </r>
       <r>    -9.2664    30.3510   111.8107 </r>
       <r>    -9.1710    25.2235   114.2178 </r>
       <r>    -9.0756    16.2198   115.7656 </r>
       <r>    -8.9802    14.7612   117.1743 </r>
       <r>    -8.8847    20.0602   119.0886 </r>
       <r>    -8.7893    17.3976   120.7489 </r>
       <r>    -8.6939    19.8356   122.6418 </r>
       <r>    -8.5984    21.2321   124.6679 </r>
       <r>    -8.5030    27.0171   127.2461 </r>
       <r>    -8.4076    18.0668   128.9702 </r>
       <r>    -8.3122    15.3669   130.4367 </r>
       <r>    -8.2167     9.7659   131.3686 </r>
       <r>    -8.1213    11.3993   132.4565 </r>
       <r>    -8.0259    12.2964   133.6299 </r>
       <r>    -7.9304     9.5519   134.5414 </r>
       <r>    -7.8350     6.4180   135.1539 </r>
       <r>    -7.7396    11.3142   136.2336 </r>
       <r>    -7.6442    25.6249   138.6790 </r>
       <r>    -7.5487    22.9392   140.8680 </r>
       <r>    -7.4533    15.2946   142.3276 </r>
       <r>    -7.3579    12.2506   143.4966 </r>
       <r>    -7.2624     6.8589   144.1512 </r>
       <r>    -7.1670     7.6479   144.8810 </r>
       <r>    -7.0716    10.7939   145.9111 </r>
       <r>    -6.9761    16.1972   147.4568 </r>
       <r>    -6.8807     7.5024   148.1727 </r>
       <r>    -6.7853     7.3560   148.8747 </r>
       <r>    -6.6899    16.5997   150.4588 </r>
       <r>    -6.5944    15.3386   151.9225 </r>
       <r>    -6.4990    14.3383   153.2908 </r>
       <r>    -6.4036     8.8588   154.1362 </r>
       <r>    -6.3081    14.6589   155.5351 </r>
       <r>    -6.2127    12.2874   156.7077 </r>
       <r>    -6.1173     6.5483   157.3326 </r>
       <r>    -6.0219     6.5857   157.9610 </r>
       <r>    -5.9264     4.2776   158.3692 </r>
       <r>    -5.8310     4.4280   158.7918 </r>
       <r>    -5.7356     5.7041   159.3361 </r>
       <r>    -5.6401    10.6152   160.3491 </r>
       <r>    -5.5447     7.5676   161.0713 </r>
       <r>    -5.4493    12.4579   162.2602 </r>
       <r>    -5.3539    22.0917   164.3684 </r>
       <r>    -5.2584    16.7147   165.9634 </r>
       <r>    -5.1630    21.2694   167.9931 </r>
       <r>    -5.0676     2.6781   168.2487 </r>
       <r>    -4.9721     0.5385   168.3001 </r>
       <r>    -4.8767     6.3803   168.9090 </r>
       <r>    -4.7813    12.7233   170.1231 </r>
       <r>    -4.6858     6.2935   170.7237 </r>
       <r>    -4.5904    16.0177   172.2523 </r>
       <r>    -4.4950    18.7652   174.0430 </r>
       <r>    -4.3996    19.8055   175.9331 </r>
       <r>    -4.3041    19.3777   177.7823 </r>
       <r>    -4.2087     5.8753   178.3429 </r>
       <r>    -4.1133    16.9441   179.9599 </r>
       <r>    -4.0178     6.4223   180.5728 </r>
       <r>    -3.9224     2.0604   180.7694 </r>
       <r>    -3.8270     4.2760   181.1775 </r>
       <r>    -3.7316     7.1946   181.8640 </r>
       <r>    -3.6361     4.1929   182.2642 </r>
       <r>    -3.5407     2.1563   182.4699 </r>
       <r>    -3.4453     0.3150   182.5000 </r>
       <r>    -3.3498     0.0856   182.5082 </r>
       <r>    -3.2544     3.6499   182.8565 </r>
       <r>    -3.1590     1.6098   183.0101 </r>
       <r>    -3.0635     6.7068   183.6501 </r>
       <r>    -2.9681     3.9357   184.0257 </r>
       <r>    -2.8727     4.2419   184.4305 </r>
       <r>    -2.7773     0.7279   184.5000 </r>
       <r>    -2.6818     0.0004   184.5000 </r>
       <r>    -2.5864     0.0129   184.5012 </r>
       <r>    -2.4910     1.4283   184.6375 </r>
       <r>    -2.3955     2.4964   184.8758 </r>
       <r>    -2.3001     2.1114   185.0772 </r>
       <r>    -2.2047     3.2201   185.3845 </r>
       <r>    -2.1093     4.3674   185.8013 </r>
       <r>    -2.0138     2.0740   185.9992 </r>
       <r>    -1.9184     0.2778   186.0257 </r>
       <r>    -1.8230     5.1969   186.5217 </r>
       <r>    -1.7275     8.7844   187.3600 </r>
       <r>    -1.6321     1.4646   187.4997 </r>
       <r>    -1.5367     0.0095   187.5006 </r>
       <r>    -1.4413     1.4869   187.6425 </r>
       <r>    -1.3458     8.7085   188.4736 </r>
       <r>    -1.2504    16.9020   190.0865 </r>
       <r>    -1.1550     8.9673   190.9423 </r>
       <r>    -1.0595    10.4249   191.9371 </r>
       <r>    -0.9641     7.9168   192.6926 </r>
       <r>    -0.8687     9.3636   193.5862 </r>
       <r>    -0.7732     5.7109   194.1312 </r>
       <r>    -0.6778     3.3635   194.4521 </r>
       <r>    -0.5824    11.0811   195.5096 </r>
       <r>    -0.4870     8.2358   196.2955 </r>
       <r>    -0.3915    11.5304   197.3959 </r>
       <r>    -0.2961    10.0257   198.3526 </r>
       <r>    -0.2007    11.2543   199.4266 </r>
       <r>    -0.1052     5.4879   199.9503 </r>
       <r>    -0.0098     0.5338   200.0012 </r>
       <r>     0.0856     2.4259   200.2327 </r>
       <r>     0.1810     6.6580   200.8681 </r>
       <r>     0.2765     7.1265   201.5482 </r>
       <r>     0.3719     9.5873   202.4631 </r>
       <r>     0.4673     4.0110   202.8459 </r>
       <r>     0.5628     5.0154   203.3245 </r>
       <r>     0.6582     3.3178   203.6411 </r>
       <r>     0.7536     7.3472   204.3422 </r>
       <r>     0.8490     7.4160   205.0499 </r>
       <r>     0.9445    11.7240   206.1688 </r>
       <r>     1.0399    12.4167   207.3537 </r>
       <r>     1.1353     8.8584   208.1990 </r>
       <r>     1.2308    17.2428   209.8445 </r>
       <r>     1.3262    10.6082   210.8568 </r>
       <r>     1.4216    10.2738   211.8372 </r>
       <r>     1.5171     8.2706   212.6265 </r>
       <r>     1.6125     4.8366   213.0880 </r>
       <r>     1.7079     7.4428   213.7983 </r>
       <r>     1.8033    15.4243   215.2702 </r>
       <r>     1.8988    25.8421   217.7363 </r>
       <r>     1.9942    17.5295   219.4091 </r>
       <r>     2.0896     4.5521   219.8435 </r>
       <r>     2.1851    11.5998   220.9505 </r>
       <r>     2.2805    15.5491   222.4343 </r>
       <r>     2.3759    24.7180   224.7932 </r>
       <r>     2.4713    19.0522   226.6113 </r>
       <r>     2.5668    11.1833   227.6785 </r>
       <r>     2.6622    11.8633   228.8106 </r>
       <r>     2.7576    36.8562   232.3278 </r>
       <r>     2.8531    49.7078   237.0714 </r>
       <r>     2.9485    16.0780   238.6057 </r>
       <r>     3.0439     4.0565   238.9928 </r>
       <r>     3.1394     6.4283   239.6062 </r>
       <r>     3.2348     4.1039   239.9979 </r>
       <r>     3.3302     0.0225   240.0000 </r>
       <r>     3.4256     0.0000   240.0000 </r>
       <r>     3.5211     0.0000   240.0000 </r>
       <r>     3.6165     0.0000   240.0000 </r>
       <r>     3.7119     0.0000   240.0000 </r>
       <r>     3.8074     0.0000   240.0000 </r>
       <r>     3.9028     0.0000   240.0000 </r>
       <r>     3.9982     0.0000   240.0000 </r>
       <r>     4.0936     0.0000   240.0000 </r>
       <r>     4.1891     0.0000   240.0000 </r>
       <r>     4.2845     0.0000   240.0000 </r>
       <r>     4.3799     0.0000   240.0000 </r>
       <r>     4.4754     0.0000   240.0000 </r>
      </set>
     </set>
    </array>
   </total>
  </dos>
 </calculation>
 <structure name="finalpos" >
  <crystal>
   <varray name="basis" >
    <v>      17.27103806       0.00000000       0.00000000 </v>
    <v>      -8.63551903      14.95715771       0.00000000 </v>
    <v>       0.00000000       0.00000000      15.00000000 </v>
   </varray>
   <i name="volume">   3874.88459904 </i>
   <varray name="rec_basis" >
    <v>       0.05790040       0.03342881       0.00000000 </v>
    <v>       0.00000000       0.06685762       0.00000000 </v>
    <v>       0.00000000       0.00000000       0.06666667 </v>
   </varray>
  </crystal>
  <varray name="positions" >
   <v>       0.00053505       0.00098825       0.50324133 </v>
   <v>       0.99957983       0.14320091       0.50285547 </v>
   <v>       0.99934231       0.28626022       0.50271632 </v>
   <v>       0.99967726       0.42956753       0.50301740 </v>
   <v>       0.00065857       0.57269753       0.50334713 </v>
   <v>       0.00212824       0.71602157       0.50334668 </v>
   <v>       0.00207063       0.85917177       0.50330753 </v>
   <v>       0.14489885       0.00274688       0.50238650 </v>
   <v>       0.14414075       0.14525673       0.50209796 </v>
   <v>       0.14228880       0.28626418       0.50163639 </v>
   <v>       0.14240676       0.42917519       0.50175627 </v>
   <v>       0.14435567       0.57202761       0.50223282 </v>
   <v>       0.14497603       0.71527637       0.50245464 </v>
   <v>       0.14496412       0.85903338       0.50241202 </v>
   <v>       0.28748997       0.00229304       0.50220353 </v>
   <v>       0.28804444       0.14705050       0.50197903 </v>
   <v>       0.28876728       0.29416877       0.50142868 </v>
   <v>       0.28463209       0.42876688       0.50115626 </v>
   <v>       0.28917684       0.56773636       0.50151935 </v>
   <v>       0.28814698       0.71414367       0.50206378 </v>
   <v>       0.28752463       0.85835055       0.50222893 </v>
   <v>       0.43003824       0.00164264       0.50310318 </v>
   <v>       0.43007818       0.14650664       0.50292501 </v>
   <v>       0.43012661       0.85683027       0.50298573 </v>
   <v>       0.57191157       0.00036255       0.50423296 </v>
   <v>       0.57188058       0.14483653       0.50417769 </v>
   <v>       0.57413159       0.29258631       0.50389575 </v>
   <v>       0.57426070       0.85489994       0.50402558 </v>
   <v>       0.71395929       0.99920192       0.50442093 </v>
   <v>       0.71427868       0.14377809       0.50461592 </v>
   <v>       0.71393769       0.28800213       0.50439198 </v>
   <v>       0.70970494       0.42905318       0.50451232 </v>
   <v>       0.70960749       0.85383298       0.50463858 </v>
   <v>       0.85651901       0.99946341       0.50394639 </v>
   <v>       0.85651024       0.14305194       0.50393123 </v>
   <v>       0.85652764       0.28669740       0.50401779 </v>
   <v>       0.85657635       0.43026337       0.50402996 </v>
   <v>       0.85719074       0.57347129       0.50425035 </v>
   <v>       0.85945475       0.71625636       0.50437109 </v>
   <v>       0.85711157       0.85678918       0.50422948 </v>
   <v>       0.04835646       0.09656825       0.50270887 </v>
   <v>       0.04671803       0.23831382       0.50230024 </v>
   <v>       0.04680359       0.38158417       0.50241826 </v>
   <v>       0.04852631       0.52496151       0.50283929 </v>
   <v>       0.04933611       0.66810667       0.50302232 </v>
   <v>       0.04958018       0.81134469       0.50302334 </v>
   <v>       0.04925551       0.95428560       0.50296018 </v>
   <v>       0.19238746       0.09811485       0.50207943 </v>
   <v>       0.19180880       0.24074764       0.50161575 </v>
   <v>       0.18898388       0.38101672       0.50140279 </v>
   <v>       0.19211066       0.52421807       0.50177847 </v>
   <v>       0.19250432       0.66741688       0.50217610 </v>
   <v>       0.19246318       0.81098910       0.50224182 </v>
   <v>       0.19242642       0.95456519       0.50220645 </v>
   <v>       0.33502340       0.09852701       0.50230782 </v>
   <v>       0.33921994       0.24376269       0.50188388 </v>
   <v>       0.33946831       0.66870395       0.50196658 </v>
   <v>       0.33508143       0.80966140       0.50235918 </v>
   <v>       0.33470277       0.95392819       0.50241762 </v>
   <v>       0.47707930       0.09742992       0.50344379 </v>
   <v>       0.47484299       0.24293982       0.50304156 </v>
   <v>       0.47492615       0.80519186       0.50314441 </v>
   <v>       0.47709645       0.95292734       0.50346977 </v>
   <v>       0.61894381       0.09613041       0.50447298 </v>
   <v>       0.61889063       0.24093824       0.50421286 </v>
   <v>       0.61893161       0.95128819       0.50430323 </v>
   <v>       0.76147014       0.09539733       0.50448397 </v>
   <v>       0.76146590       0.23932650       0.50449281 </v>
   <v>       0.76085225       0.38348830       0.50436504 </v>
   <v>       0.76015948       0.53004286       0.50475366 </v>
   <v>       0.76352087       0.66839936       0.50494877 </v>
   <v>       0.76004354       0.80315105       0.50481405 </v>
   <v>       0.76083367       0.95057695       0.50438319 </v>
   <v>       0.90396783       0.09480841       0.50357065 </v>
   <v>       0.90396769       0.23859392       0.50363906 </v>
   <v>       0.90404016       0.38237436       0.50371678 </v>
   <v>       0.90486386       0.52564290       0.50386385 </v>
   <v>       0.90646593       0.66844058       0.50406598 </v>
   <v>       0.90641059       0.81110610       0.50404295 </v>
   <v>       0.90476289       0.95228069       0.50378104 </v>
   <v>       0.42912568       0.28773850       0.50240373 </v>
   <v>       0.42926710       0.71474182       0.50249036 </v>
   <v>       0.71696856       0.57639430       0.50513422 </v>
   <v>       0.71703196       0.71369673       0.50522568 </v>
   <v>       0.33149976       0.38385034       0.50115625 </v>
   <v>       0.33188044       0.52061929       0.50116383 </v>
   <v>       0.61981321       0.38311952       0.50416716 </v>
   <v>       0.61985654       0.81009073       0.50433208 </v>
   <v>       0.46446766       0.52243479       0.50067083 </v>
   <v>       0.53316833       0.48995780       0.50207580 </v>
   <v>       0.52852118       0.54388551       0.50000000 </v>
  </varray>
  <varray name="selective"  type="logical" >
   <v type="logical" >  T  T  T </v>
   <v type="logical" >  T  T  T </v>
   <v type="logical" >  T  T  T </v>
   <v type="logical" >  T  T  T </v>
   <v type="logical" >  T  T  T </v>
   <v type="logical" >  T  T  T </v>
   <v type="logical" >  T  T  T </v>
   <v type="logical" >  T  T  T </v>
   <v type="logical" >  T  T  T </v>
   <v type="logical" >  T  T  T </v>
   <v type="logical" >  T  T  T </v>
   <v type="logical" >  T  T  T </v>
   <v type="logical" >  T  T  T </v>
   <v type="logical" >  T  T  T </v>
   <v type="logical" >  T  T  T </v>
   <v type="logical" >  T  T  T </v>
   <v type="logical" >  T  T  T </v>
   <v type="logical" >  T  T  T </v>
   <v type="logical" >  T  T  T </v>
   <v type="logical" >  T  T  T </v>
   <v type="logical" >  T  T  T </v>
   <v type="logical" >  T  T  T </v>
   <v type="logical" >  T  T  T </v>
   <v type="logical" >  T  T  T </v>
   <v type="logical" >  T  T  T </v>
   <v type="logical" >  T  T  T </v>
   <v type="logical" >  T  T  T </v>
   <v type="logical" >  T  T  T </v>
   <v type="logical" >  T  T  T </v>
   <v type="logical" >  T  T  T </v>
   <v type="logical" >  T  T  T </v>
   <v type="logical" >  T  T  T </v>
   <v type="logical" >  T  T  T </v>
   <v type="logical" >  T  T  T </v>
   <v type="logical" >  T  T  T </v>
   <v type="logical" >  T  T  T </v>
   <v type="logical" >  T  T  T </v>
   <v type="logical" >  T  T  T </v>
   <v type="logical" >  T  T  T </v>
   <v type="logical" >  T  T  T </v>
   <v type="logical" >  T  T  T </v>
   <v type="logical" >  T  T  T </v>
   <v type="logical" >  T  T  T </v>
   <v type="logical" >  T  T  T </v>
   <v type="logical" >  T  T  T </v>
   <v type="logical" >  T  T  T </v>
   <v type="logical" >  T  T  T </v>
   <v type="logical" >  T  T  T </v>
   <v type="logical" >  T  T  T </v>
   <v type="logical" >  T  T  T </v>
   <v type="logical" >  T  T  T </v>
   <v type="logical" >  T  T  T </v>
   <v type="logical" >  T  T  T </v>
   <v type="logical" >  T  T  T </v>
   <v type="logical" >  T  T  T </v>
   <v type="logical" >  T  T  T </v>
   <v type="logical" >  T  T  T </v>
   <v type="logical" >  T  T  T </v>
   <v type="logical" >  T  T  T </v>
   <v type="logical" >  T  T  T </v>
   <v type="logical" >  T  T  T </v>
   <v type="logical" >  T  T  T </v>
   <v type="logical" >  T  T  T </v>
   <v type="logical" >  T  T  T </v>
   <v type="logical" >  T  T  T </v>
   <v type="logical" >  T  T  T </v>
   <v type="logical" >  T  T  T </v>
   <v type="logical" >  T  T  T </v>
   <v type="logical" >  T  T  T </v>
   <v type="logical" >  T  T  T </v>
   <v type="logical" >  T  T  T </v>
   <v type="logical" >  T  T  T </v>
   <v type="logical" >  T  T  T </v>
   <v type="logical" >  T  T  T </v>
   <v type="logical" >  T  T  T </v>
   <v type="logical" >  T  T  T </v>
   <v type="logical" >  T  T  T </v>
   <v type="logical" >  T  T  T </v>
   <v type="logical" >  T  T  T </v>
   <v type="logical" >  T  T  T </v>
   <v type="logical" >  T  T  T </v>
   <v type="logical" >  T  T  T </v>
   <v type="logical" >  T  T  T </v>
   <v type="logical" >  T  T  T </v>
   <v type="logical" >  T  T  T </v>
   <v type="logical" >  T  T  T </v>
   <v type="logical" >  T  T  T </v>
   <v type="logical" >  T  T  T </v>
   <v type="logical" >  T  T  T </v>
   <v type="logical" >  T  T  T </v>
   <v type="logical" >  T  T  F </v>
  </varray>
  <nose>
   <v>      -3.00000000       0.00000000       0.00010000       0.00010000 </v>
  </nose>
 </structure>
</modeling>
