unknown system                          
           1
    17.271038    0.000000    0.000000
    -8.635519   14.957158    0.000000
     0.000000    0.000000   15.000000
   C    N    H    O 
    80     8     2     1
Direct configuration=     1
   0.00053505  0.00098825  0.50324133
   0.99957983  0.14320091  0.50285547
   0.99934231  0.28626022  0.50271632
   0.99967726  0.42956753  0.50301740
   0.00065857  0.57269753  0.50334713
   0.00212824  0.71602157  0.50334668
   0.00207063  0.85917177  0.50330753
   0.14489885  0.00274688  0.50238650
   0.14414075  0.14525673  0.50209796
   0.14228880  0.28626418  0.50163639
   0.14240676  0.42917519  0.50175627
   0.14435567  0.57202761  0.50223282
   0.14497603  0.71527637  0.50245464
   0.14496412  0.85903338  0.50241202
   0.28748997  0.00229304  0.50220353
   0.28804444  0.14705050  0.50197903
   0.28876728  0.29416877  0.50142868
   0.28463209  0.42876688  0.50115626
   0.28917684  0.56773636  0.50151935
   0.28814698  0.71414367  0.50206378
   0.28752463  0.85835055  0.50222893
   0.43003824  0.00164264  0.50310318
   0.43007818  0.14650664  0.50292501
   0.43012661  0.85683027  0.50298573
   0.57191157  0.00036255  0.50423296
   0.57188058  0.14483653  0.50417769
   0.57413159  0.29258631  0.50389575
   0.57426070  0.85489994  0.50402558
   0.71395929  0.99920192  0.50442093
   0.71427868  0.14377809  0.50461592
   0.71393769  0.28800213  0.50439198
   0.70970494  0.42905318  0.50451232
   0.70960749  0.85383298  0.50463858
   0.85651901  0.99946341  0.50394639
   0.85651024  0.14305194  0.50393123
   0.85652764  0.28669740  0.50401779
   0.85657635  0.43026337  0.50402996
   0.85719074  0.57347129  0.50425035
   0.85945475  0.71625636  0.50437109
   0.85711157  0.85678918  0.50422948
   0.04835646  0.09656825  0.50270887
   0.04671803  0.23831382  0.50230024
   0.04680359  0.38158417  0.50241826
   0.04852631  0.52496151  0.50283929
   0.04933611  0.66810667  0.50302232
   0.04958018  0.81134469  0.50302334
   0.04925551  0.95428560  0.50296018
   0.19238746  0.09811485  0.50207943
   0.19180880  0.24074764  0.50161575
   0.18898388  0.38101672  0.50140279
   0.19211066  0.52421807  0.50177847
   0.19250432  0.66741688  0.50217610
   0.19246318  0.81098910  0.50224182
   0.19242642  0.95456519  0.50220645
   0.33502340  0.09852701  0.50230782
   0.33921994  0.24376269  0.50188388
   0.33946831  0.66870395  0.50196658
   0.33508143  0.80966140  0.50235918
   0.33470277  0.95392819  0.50241762
   0.47707930  0.09742992  0.50344379
   0.47484299  0.24293982  0.50304156
   0.47492615  0.80519186  0.50314441
   0.47709645  0.95292734  0.50346977
   0.61894381  0.09613041  0.50447298
   0.61889063  0.24093824  0.50421286
   0.61893161  0.95128819  0.50430323
   0.76147014  0.09539733  0.50448397
   0.76146590  0.23932650  0.50449281
   0.76085225  0.38348830  0.50436504
   0.76015948  0.53004286  0.50475366
   0.76352087  0.66839936  0.50494877
   0.76004354  0.80315105  0.50481405
   0.76083367  0.95057695  0.50438319
   0.90396783  0.09480841  0.50357065
   0.90396769  0.23859392  0.50363906
   0.90404016  0.38237436  0.50371678
   0.90486386  0.52564290  0.50386385
   0.90646593  0.66844058  0.50406598
   0.90641059  0.81110610  0.50404295
   0.90476289  0.95228069  0.50378104
   0.42912568  0.28773850  0.50240373
   0.42926710  0.71474182  0.50249036
   0.71696856  0.57639430  0.50513422
   0.71703196  0.71369673  0.50522568
   0.33149976  0.38385034  0.50115625
   0.33188044  0.52061929  0.50116383
   0.61981321  0.38311952  0.50416716
   0.61985654  0.81009073  0.50433208
   0.46446766  0.52243479  0.50067083
   0.53316833  0.48995780  0.50207580
   0.52852118  0.54388551  0.50000000
