  99  99   0   0
  0.3914025E+02  0.1727104E-08  0.1727104E-08  0.1500000E-08  0.0000000E+00
  1.000000000000000E-004
  CAR 
 unknown system                          
      6.13153827    -31.34671367  301     -2.38287672      1.00000000
    -31.347  0.0000E+00  0.0000E+00  0.0000E+00  0.0000E+00
    -31.222  0.0000E+00  0.0000E+00  0.0000E+00  0.0000E+00
    -31.097  0.0000E+00  0.0000E+00  0.0000E+00  0.0000E+00
    -30.972  0.0000E+00  0.0000E+00  0.0000E+00  0.0000E+00
    -30.847  0.0000E+00  0.0000E+00  0.0000E+00  0.0000E+00
    -30.722  0.0000E+00  0.0000E+00  0.0000E+00  0.0000E+00
    -30.597  0.0000E+00  0.0000E+00  0.0000E+00  0.0000E+00
    -30.472  0.0000E+00  0.0000E+00  0.0000E+00  0.0000E+00
    -30.347  0.0000E+00  0.0000E+00  0.0000E+00  0.0000E+00
    -30.222  0.0000E+00  0.0000E+00  0.0000E+00  0.0000E+00
    -30.097  0.0000E+00  0.0000E+00  0.0000E+00  0.0000E+00
    -29.973  0.0000E+00  0.0000E+00  0.0000E+00  0.0000E+00
    -29.848  0.2940E-10  0.2940E-10  0.3673E-11  0.3673E-11
    -29.723  0.9803E-04  0.9803E-04  0.1225E-04  0.1225E-04
    -29.598  0.7110E-02  0.7110E-02  0.9005E-03  0.9005E-03
    -29.473  0.7968E-03  0.7968E-03  0.1000E-02  0.1000E-02
    -29.348  0.5814E-08  0.5814E-08  0.1000E-02  0.1000E-02
    -29.223  0.0000E+00  0.0000E+00  0.1000E-02  0.1000E-02
    -29.098  0.0000E+00  0.0000E+00  0.1000E-02  0.1000E-02
    -28.973  0.0000E+00  0.0000E+00  0.1000E-02  0.1000E-02
    -28.848  0.0000E+00  0.0000E+00  0.1000E-02  0.1000E-02
    -28.723  0.0000E+00  0.0000E+00  0.1000E-02  0.1000E-02
    -28.598  0.0000E+00  0.0000E+00  0.1000E-02  0.1000E-02
    -28.473  0.0000E+00  0.0000E+00  0.1000E-02  0.1000E-02
    -28.348  0.0000E+00  0.0000E+00  0.1000E-02  0.1000E-02
    -28.224  0.0000E+00  0.0000E+00  0.1000E-02  0.1000E-02
    -28.099  0.0000E+00  0.0000E+00  0.1000E-02  0.1000E-02
    -27.974  0.0000E+00  0.0000E+00  0.1000E-02  0.1000E-02
    -27.849  0.0000E+00  0.0000E+00  0.1000E-02  0.1000E-02
    -27.724  0.0000E+00  0.0000E+00  0.1000E-02  0.1000E-02
    -27.599  0.0000E+00  0.0000E+00  0.1000E-02  0.1000E-02
    -27.474  0.0000E+00  0.0000E+00  0.1000E-02  0.1000E-02
    -27.349  0.0000E+00  0.0000E+00  0.1000E-02  0.1000E-02
    -27.224  0.0000E+00  0.0000E+00  0.1000E-02  0.1000E-02
    -27.099  0.0000E+00  0.0000E+00  0.1000E-02  0.1000E-02
    -26.974  0.0000E+00  0.0000E+00  0.1000E-02  0.1000E-02
    -26.849  0.0000E+00  0.0000E+00  0.1000E-02  0.1000E-02
    -26.724  0.0000E+00  0.0000E+00  0.1000E-02  0.1000E-02
    -26.599  0.0000E+00  0.0000E+00  0.1000E-02  0.1000E-02
    -26.475  0.0000E+00  0.0000E+00  0.1000E-02  0.1000E-02
    -26.350  0.0000E+00  0.0000E+00  0.1000E-02  0.1000E-02
    -26.225  0.0000E+00  0.0000E+00  0.1000E-02  0.1000E-02
    -26.100  0.0000E+00  0.0000E+00  0.1000E-02  0.1000E-02
    -25.975  0.0000E+00  0.0000E+00  0.1000E-02  0.1000E-02
    -25.850  0.0000E+00  0.0000E+00  0.1000E-02  0.1000E-02
    -25.725  0.0000E+00  0.0000E+00  0.1000E-02  0.1000E-02
    -25.600  0.0000E+00  0.0000E+00  0.1000E-02  0.1000E-02
    -25.475  0.0000E+00  0.0000E+00  0.1000E-02  0.1000E-02
    -25.350  0.0000E+00  0.0000E+00  0.1000E-02  0.1000E-02
    -25.225  0.0000E+00  0.0000E+00  0.1000E-02  0.1000E-02
    -25.100  0.0000E+00  0.0000E+00  0.1000E-02  0.1000E-02
    -24.975  0.0000E+00  0.0000E+00  0.1000E-02  0.1000E-02
    -24.850  0.0000E+00  0.0000E+00  0.1000E-02  0.1000E-02
    -24.726  0.0000E+00  0.0000E+00  0.1000E-02  0.1000E-02
    -24.601  0.0000E+00  0.0000E+00  0.1000E-02  0.1000E-02
    -24.476  0.0000E+00  0.0000E+00  0.1000E-02  0.1000E-02
    -24.351  0.0000E+00  0.0000E+00  0.1000E-02  0.1000E-02
    -24.226  0.0000E+00  0.0000E+00  0.1000E-02  0.1000E-02
    -24.101  0.3466E-14  0.3466E-14  0.1000E-02  0.1000E-02
    -23.976  0.1194E-05  0.1194E-05  0.1000E-02  0.1000E-02
    -23.851  0.3735E-02  0.3735E-02  0.1467E-02  0.1467E-02
    -23.726  0.4266E-02  0.4266E-02  0.2000E-02  0.2000E-02
    -23.601  0.2242E-05  0.2242E-05  0.2000E-02  0.2000E-02
    -23.476  0.1151E-13  0.1151E-13  0.2000E-02  0.2000E-02
    -23.351  0.0000E+00  0.0000E+00  0.2000E-02  0.2000E-02
    -23.226  0.0000E+00  0.0000E+00  0.2000E-02  0.2000E-02
    -23.101  0.0000E+00  0.0000E+00  0.2000E-02  0.2000E-02
    -22.977  0.0000E+00  0.0000E+00  0.2000E-02  0.2000E-02
    -22.852  0.0000E+00  0.0000E+00  0.2000E-02  0.2000E-02
    -22.727  0.0000E+00  0.0000E+00  0.2000E-02  0.2000E-02
    -22.602  0.0000E+00  0.0000E+00  0.2000E-02  0.2000E-02
    -22.477  0.0000E+00  0.0000E+00  0.2000E-02  0.2000E-02
    -22.352  0.0000E+00  0.0000E+00  0.2000E-02  0.2000E-02
    -22.227  0.0000E+00  0.0000E+00  0.2000E-02  0.2000E-02
    -22.102  0.0000E+00  0.0000E+00  0.2000E-02  0.2000E-02
    -21.977  0.2182E-10  0.2182E-10  0.2000E-02  0.2000E-02
    -21.852  0.3952E-04  0.3952E-04  0.2005E-02  0.2005E-02
    -21.727  0.3865E-02  0.3865E-02  0.2488E-02  0.2488E-02
    -21.602  0.8599E-02  0.8599E-02  0.3562E-02  0.3562E-02
    -21.477  0.1886E-02  0.1886E-02  0.3798E-02  0.3798E-02
    -21.353  0.9932E-02  0.9932E-02  0.5038E-02  0.5038E-02
    -21.228  0.8047E-02  0.8047E-02  0.6044E-02  0.6044E-02
    -21.103  0.3192E-02  0.3192E-02  0.6442E-02  0.6442E-02
    -20.978  0.3957E-02  0.3957E-02  0.6937E-02  0.6937E-02
    -20.853  0.1301E-01  0.1301E-01  0.8563E-02  0.8563E-02
    -20.728  0.8308E-02  0.8308E-02  0.9600E-02  0.9600E-02
    -20.603  0.1251E-02  0.1251E-02  0.9757E-02  0.9757E-02
    -20.478  0.4592E-02  0.4592E-02  0.1033E-01  0.1033E-01
    -20.353  0.8186E-02  0.8186E-02  0.1135E-01  0.1135E-01
    -20.228  0.1210E-01  0.1210E-01  0.1286E-01  0.1286E-01
    -20.103  0.9405E-02  0.9405E-02  0.1404E-01  0.1404E-01
    -19.978  0.1760E-02  0.1760E-02  0.1426E-01  0.1426E-01
    -19.853  0.4483E-02  0.4483E-02  0.1482E-01  0.1482E-01
    -19.728  0.7786E-02  0.7786E-02  0.1579E-01  0.1579E-01
    -19.604  0.2779E-02  0.2779E-02  0.1614E-01  0.1614E-01
    -19.479  0.1344E-01  0.1344E-01  0.1782E-01  0.1782E-01
    -19.354  0.1292E-01  0.1292E-01  0.1943E-01  0.1943E-01
    -19.229  0.2606E-02  0.2606E-02  0.1976E-01  0.1976E-01
    -19.104  0.5478E-02  0.5478E-02  0.2044E-01  0.2044E-01
    -18.979  0.7321E-02  0.7321E-02  0.2136E-01  0.2136E-01
    -18.854  0.5213E-02  0.5213E-02  0.2201E-01  0.2201E-01
    -18.729  0.3437E-02  0.3437E-02  0.2244E-01  0.2244E-01
    -18.604  0.7359E-02  0.7359E-02  0.2336E-01  0.2336E-01
    -18.479  0.1707E-01  0.1707E-01  0.2549E-01  0.2549E-01
    -18.354  0.5698E-02  0.5698E-02  0.2620E-01  0.2620E-01
    -18.229  0.6103E-02  0.6103E-02  0.2696E-01  0.2696E-01
    -18.104  0.7672E-02  0.7672E-02  0.2792E-01  0.2792E-01
    -17.979  0.7640E-02  0.7640E-02  0.2888E-01  0.2888E-01
    -17.855  0.5542E-02  0.5542E-02  0.2957E-01  0.2957E-01
    -17.730  0.4470E-02  0.4470E-02  0.3013E-01  0.3013E-01
    -17.605  0.3549E-02  0.3549E-02  0.3057E-01  0.3057E-01
    -17.480  0.8349E-02  0.8349E-02  0.3161E-01  0.3161E-01
    -17.355  0.1731E-01  0.1731E-01  0.3378E-01  0.3378E-01
    -17.230  0.8301E-02  0.8301E-02  0.3481E-01  0.3481E-01
    -17.105  0.1075E-01  0.1075E-01  0.3616E-01  0.3616E-01
    -16.980  0.3884E-02  0.3884E-02  0.3664E-01  0.3664E-01
    -16.855  0.8529E-02  0.8529E-02  0.3771E-01  0.3771E-01
    -16.730  0.9307E-02  0.9307E-02  0.3887E-01  0.3887E-01
    -16.605  0.2856E-02  0.2856E-02  0.3923E-01  0.3923E-01
    -16.480  0.6144E-02  0.6144E-02  0.3999E-01  0.3999E-01
    -16.355  0.9661E-02  0.9661E-02  0.4120E-01  0.4120E-01
    -16.230  0.1413E-01  0.1413E-01  0.4297E-01  0.4297E-01
    -16.106  0.6972E-02  0.6972E-02  0.4384E-01  0.4384E-01
    -15.981  0.1791E-02  0.1791E-02  0.4406E-01  0.4406E-01
    -15.856  0.4265E-02  0.4265E-02  0.4459E-01  0.4459E-01
    -15.731  0.1460E-02  0.1460E-02  0.4478E-01  0.4478E-01
    -15.606  0.3610E-02  0.3610E-02  0.4523E-01  0.4523E-01
    -15.481  0.1715E-02  0.1715E-02  0.4544E-01  0.4544E-01
    -15.356  0.8007E-02  0.8007E-02  0.4644E-01  0.4644E-01
    -15.231  0.9339E-02  0.9339E-02  0.4761E-01  0.4761E-01
    -15.106  0.6683E-02  0.6683E-02  0.4844E-01  0.4844E-01
    -14.981  0.5950E-02  0.5950E-02  0.4919E-01  0.4919E-01
    -14.856  0.1669E-01  0.1669E-01  0.5127E-01  0.5127E-01
    -14.731  0.5860E-02  0.5860E-02  0.5200E-01  0.5200E-01
    -14.606  0.3507E-02  0.3507E-02  0.5244E-01  0.5244E-01
    -14.482  0.1263E-01  0.1263E-01  0.5402E-01  0.5402E-01
    -14.357  0.9952E-02  0.9952E-02  0.5526E-01  0.5526E-01
    -14.232  0.7677E-02  0.7677E-02  0.5622E-01  0.5622E-01
    -14.107  0.1066E-01  0.1066E-01  0.5755E-01  0.5755E-01
    -13.982  0.9547E-02  0.9547E-02  0.5875E-01  0.5875E-01
    -13.857  0.5998E-02  0.5998E-02  0.5950E-01  0.5950E-01
    -13.732  0.3933E-02  0.3933E-02  0.5999E-01  0.5999E-01
    -13.607  0.5868E-02  0.5868E-02  0.6072E-01  0.6072E-01
    -13.482  0.9797E-02  0.9797E-02  0.6194E-01  0.6194E-01
    -13.357  0.6963E-02  0.6963E-02  0.6281E-01  0.6281E-01
    -13.232  0.7702E-02  0.7702E-02  0.6378E-01  0.6378E-01
    -13.107  0.7110E-02  0.7110E-02  0.6466E-01  0.6466E-01
    -12.982  0.5947E-02  0.5947E-02  0.6541E-01  0.6541E-01
    -12.857  0.3573E-02  0.3573E-02  0.6585E-01  0.6585E-01
    -12.733  0.9369E-02  0.9369E-02  0.6702E-01  0.6702E-01
    -12.608  0.5111E-02  0.5111E-02  0.6766E-01  0.6766E-01
    -12.483  0.1223E-01  0.1223E-01  0.6919E-01  0.6919E-01
    -12.358  0.1393E-01  0.1393E-01  0.7093E-01  0.7093E-01
    -12.233  0.1167E-01  0.1167E-01  0.7239E-01  0.7239E-01
    -12.108  0.5426E-02  0.5426E-02  0.7307E-01  0.7307E-01
    -11.983  0.5295E-02  0.5295E-02  0.7373E-01  0.7373E-01
    -11.858  0.7170E-02  0.7170E-02  0.7462E-01  0.7462E-01
    -11.733  0.8688E-02  0.8688E-02  0.7571E-01  0.7571E-01
    -11.608  0.1099E-01  0.1099E-01  0.7708E-01  0.7708E-01
    -11.483  0.7190E-02  0.7190E-02  0.7798E-01  0.7798E-01
    -11.358  0.1449E-01  0.1449E-01  0.7979E-01  0.7979E-01
    -11.233  0.1090E-01  0.1090E-01  0.8115E-01  0.8115E-01
    -11.108  0.1384E-01  0.1384E-01  0.8288E-01  0.8288E-01
    -10.984  0.7062E-02  0.7062E-02  0.8376E-01  0.8376E-01
    -10.859  0.9916E-02  0.9916E-02  0.8500E-01  0.8500E-01
    -10.734  0.1514E-01  0.1514E-01  0.8689E-01  0.8689E-01
    -10.609  0.4802E-02  0.4802E-02  0.8749E-01  0.8749E-01
    -10.484  0.5710E-02  0.5710E-02  0.8821E-01  0.8821E-01
    -10.359  0.4012E-02  0.4012E-02  0.8871E-01  0.8871E-01
    -10.234  0.1562E-01  0.1562E-01  0.9066E-01  0.9066E-01
    -10.109  0.1433E-01  0.1433E-01  0.9245E-01  0.9245E-01
     -9.984  0.1526E-01  0.1526E-01  0.9436E-01  0.9436E-01
     -9.859  0.1768E-01  0.1768E-01  0.9657E-01  0.9657E-01
     -9.734  0.1788E-01  0.1788E-01  0.9880E-01  0.9880E-01
     -9.609  0.1778E-01  0.1778E-01  0.1010E+00  0.1010E+00
     -9.484  0.9430E-02  0.9430E-02  0.1022E+00  0.1022E+00
     -9.359  0.1853E-01  0.1853E-01  0.1045E+00  0.1045E+00
     -9.235  0.1560E-01  0.1560E-01  0.1065E+00  0.1065E+00
     -9.110  0.1735E-01  0.1735E-01  0.1086E+00  0.1086E+00
     -8.985  0.2171E-01  0.2171E-01  0.1113E+00  0.1113E+00
     -8.860  0.2573E-01  0.2573E-01  0.1146E+00  0.1146E+00
     -8.735  0.2938E-01  0.2938E-01  0.1182E+00  0.1182E+00
     -8.610  0.2470E-01  0.2470E-01  0.1213E+00  0.1213E+00
     -8.485  0.1554E-01  0.1554E-01  0.1233E+00  0.1233E+00
     -8.360  0.1864E-01  0.1864E-01  0.1256E+00  0.1256E+00
     -8.235  0.1912E-01  0.1912E-01  0.1280E+00  0.1280E+00
     -8.110  0.1981E-01  0.1981E-01  0.1304E+00  0.1304E+00
     -7.985  0.2380E-01  0.2380E-01  0.1334E+00  0.1334E+00
     -7.860  0.1799E-01  0.1799E-01  0.1357E+00  0.1357E+00
     -7.735  0.1674E-01  0.1674E-01  0.1378E+00  0.1378E+00
     -7.610  0.2010E-01  0.2010E-01  0.1403E+00  0.1403E+00
     -7.486  0.1329E-01  0.1329E-01  0.1419E+00  0.1419E+00
     -7.361  0.6009E-02  0.6009E-02  0.1427E+00  0.1427E+00
     -7.236  0.1514E-01  0.1514E-01  0.1446E+00  0.1446E+00
     -7.111  0.2411E-01  0.2411E-01  0.1476E+00  0.1476E+00
     -6.986  0.1836E-01  0.1836E-01  0.1499E+00  0.1499E+00
     -6.861  0.1498E-01  0.1498E-01  0.1517E+00  0.1517E+00
     -6.736  0.1136E-01  0.1136E-01  0.1532E+00  0.1532E+00
     -6.611  0.1010E-01  0.1010E-01  0.1544E+00  0.1544E+00
     -6.486  0.1331E-01  0.1331E-01  0.1561E+00  0.1561E+00
     -6.361  0.1053E-01  0.1053E-01  0.1574E+00  0.1574E+00
     -6.236  0.1257E-01  0.1257E-01  0.1590E+00  0.1590E+00
     -6.111  0.1862E-01  0.1862E-01  0.1613E+00  0.1613E+00
     -5.986  0.1540E-01  0.1540E-01  0.1632E+00  0.1632E+00
     -5.862  0.1254E-01  0.1254E-01  0.1648E+00  0.1648E+00
     -5.737  0.1905E-01  0.1905E-01  0.1672E+00  0.1672E+00
     -5.612  0.1649E-01  0.1649E-01  0.1692E+00  0.1692E+00
     -5.487  0.9741E-02  0.9741E-02  0.1705E+00  0.1705E+00
     -5.362  0.6845E-02  0.6845E-02  0.1713E+00  0.1713E+00
     -5.237  0.3659E-02  0.3659E-02  0.1718E+00  0.1718E+00
     -5.112  0.2090E-02  0.2090E-02  0.1720E+00  0.1720E+00
     -4.987  0.1399E-01  0.1399E-01  0.1738E+00  0.1738E+00
     -4.862  0.2093E-01  0.2093E-01  0.1764E+00  0.1764E+00
     -4.737  0.1465E-01  0.1465E-01  0.1782E+00  0.1782E+00
     -4.612  0.5137E-02  0.5137E-02  0.1789E+00  0.1789E+00
     -4.487  0.9421E-02  0.9421E-02  0.1800E+00  0.1800E+00
     -4.362  0.1689E-02  0.1689E-02  0.1803E+00  0.1803E+00
     -4.237  0.2915E-02  0.2915E-02  0.1806E+00  0.1806E+00
     -4.113  0.8341E-02  0.8341E-02  0.1817E+00  0.1817E+00
     -3.988  0.7091E-02  0.7091E-02  0.1825E+00  0.1825E+00
     -3.863  0.6752E-02  0.6752E-02  0.1834E+00  0.1834E+00
     -3.738  0.7578E-02  0.7578E-02  0.1843E+00  0.1843E+00
     -3.613  0.5279E-02  0.5279E-02  0.1850E+00  0.1850E+00
     -3.488  0.5954E-04  0.5954E-04  0.1850E+00  0.1850E+00
     -3.363  0.1696E-03  0.1696E-03  0.1850E+00  0.1850E+00
     -3.238  0.3581E-02  0.3581E-02  0.1855E+00  0.1855E+00
     -3.113  0.5908E-02  0.5908E-02  0.1862E+00  0.1862E+00
     -2.988  0.8888E-03  0.8888E-03  0.1863E+00  0.1863E+00
     -2.863  0.1456E-02  0.1456E-02  0.1865E+00  0.1865E+00
     -2.738  0.3478E-05  0.3478E-05  0.1865E+00  0.1865E+00
     -2.613  0.5984E-03  0.5984E-03  0.1866E+00  0.1866E+00
     -2.488  0.3373E-02  0.3373E-02  0.1870E+00  0.1870E+00
     -2.364  0.3054E-04  0.3054E-04  0.1870E+00  0.1870E+00
     -2.239  0.2992E-03  0.2992E-03  0.1870E+00  0.1870E+00
     -2.114  0.3577E-02  0.3577E-02  0.1875E+00  0.1875E+00
     -1.989  0.1260E-03  0.1260E-03  0.1875E+00  0.1875E+00
     -1.864  0.7645E-06  0.7645E-06  0.1875E+00  0.1875E+00
     -1.739  0.1243E-02  0.1243E-02  0.1877E+00  0.1877E+00
     -1.614  0.2865E-02  0.2865E-02  0.1880E+00  0.1880E+00
     -1.489  0.6973E-02  0.6973E-02  0.1889E+00  0.1889E+00
     -1.364  0.9245E-03  0.9245E-03  0.1890E+00  0.1890E+00
     -1.239  0.2235E-03  0.2235E-03  0.1890E+00  0.1890E+00
     -1.114  0.6865E-02  0.6865E-02  0.1899E+00  0.1899E+00
     -0.989  0.4920E-02  0.4920E-02  0.1905E+00  0.1905E+00
     -0.864  0.4569E-02  0.4569E-02  0.1911E+00  0.1911E+00
     -0.739  0.1583E-01  0.1583E-01  0.1930E+00  0.1930E+00
     -0.615  0.7792E-02  0.7792E-02  0.1940E+00  0.1940E+00
     -0.490  0.8534E-02  0.8534E-02  0.1951E+00  0.1951E+00
     -0.365  0.1065E-01  0.1065E-01  0.1964E+00  0.1964E+00
     -0.240  0.6019E-02  0.6019E-02  0.1972E+00  0.1972E+00
     -0.115  0.4814E-02  0.4814E-02  0.1978E+00  0.1978E+00
      0.010  0.9729E-02  0.9729E-02  0.1990E+00  0.1990E+00
      0.135  0.8322E-02  0.8322E-02  0.2000E+00  0.2000E+00
      0.260  0.1188E-01  0.1188E-01  0.2015E+00  0.2015E+00
      0.385  0.8763E-02  0.8763E-02  0.2026E+00  0.2026E+00
      0.510  0.3011E-02  0.3011E-02  0.2030E+00  0.2030E+00
      0.635  0.3121E-02  0.3121E-02  0.2034E+00  0.2034E+00
      0.760  0.1253E-01  0.1253E-01  0.2049E+00  0.2049E+00
      0.885  0.1023E-01  0.1023E-01  0.2062E+00  0.2062E+00
      1.010  0.5175E-02  0.5175E-02  0.2069E+00  0.2069E+00
      1.134  0.1061E-01  0.1061E-01  0.2082E+00  0.2082E+00
      1.259  0.6925E-02  0.6925E-02  0.2091E+00  0.2091E+00
      1.384  0.9973E-02  0.9973E-02  0.2103E+00  0.2103E+00
      1.509  0.1071E-01  0.1071E-01  0.2116E+00  0.2116E+00
      1.634  0.1857E-01  0.1857E-01  0.2140E+00  0.2140E+00
      1.759  0.1448E-01  0.1448E-01  0.2158E+00  0.2158E+00
      1.884  0.1068E-01  0.1068E-01  0.2171E+00  0.2171E+00
      2.009  0.1385E-01  0.1385E-01  0.2188E+00  0.2188E+00
      2.134  0.1975E-01  0.1975E-01  0.2213E+00  0.2213E+00
      2.259  0.1701E-01  0.1701E-01  0.2234E+00  0.2234E+00
      2.384  0.2050E-01  0.2050E-01  0.2260E+00  0.2260E+00
      2.509  0.2304E-01  0.2304E-01  0.2289E+00  0.2289E+00
      2.634  0.7130E-02  0.7130E-02  0.2298E+00  0.2298E+00
      2.758  0.1409E-01  0.1409E-01  0.2315E+00  0.2315E+00
      2.883  0.2942E-01  0.2942E-01  0.2352E+00  0.2352E+00
      3.008  0.3616E-01  0.3616E-01  0.2397E+00  0.2397E+00
      3.133  0.1728E-01  0.1728E-01  0.2419E+00  0.2419E+00
      3.258  0.2625E-01  0.2625E-01  0.2451E+00  0.2451E+00
      3.383  0.1995E-01  0.1995E-01  0.2476E+00  0.2476E+00
      3.508  0.2205E-01  0.2205E-01  0.2504E+00  0.2504E+00
      3.633  0.1776E-01  0.1775E-01  0.2526E+00  0.2526E+00
      3.758  0.1871E-01  0.1871E-01  0.2549E+00  0.2549E+00
      3.883  0.2586E-01  0.2586E-01  0.2582E+00  0.2582E+00
      4.008  0.2301E-01  0.2301E-01  0.2611E+00  0.2611E+00
      4.133  0.1970E-01  0.1970E-01  0.2635E+00  0.2635E+00
      4.258  0.1330E-01  0.1331E-01  0.2652E+00  0.2652E+00
      4.383  0.2990E-01  0.2990E-01  0.2689E+00  0.2689E+00
      4.507  0.8697E-02  0.8697E-02  0.2700E+00  0.2700E+00
      4.632  0.3204E-04  0.3204E-04  0.2700E+00  0.2700E+00
      4.757  0.7658E-11  0.7665E-11  0.2700E+00  0.2700E+00
      4.882  0.0000E+00  0.0000E+00  0.2700E+00  0.2700E+00
      5.007  0.0000E+00  0.0000E+00  0.2700E+00  0.2700E+00
      5.132  0.0000E+00  0.0000E+00  0.2700E+00  0.2700E+00
      5.257  0.0000E+00  0.0000E+00  0.2700E+00  0.2700E+00
      5.382  0.0000E+00  0.0000E+00  0.2700E+00  0.2700E+00
      5.507  0.0000E+00  0.0000E+00  0.2700E+00  0.2700E+00
      5.632  0.0000E+00  0.0000E+00  0.2700E+00  0.2700E+00
      5.757  0.0000E+00  0.0000E+00  0.2700E+00  0.2700E+00
      5.882  0.0000E+00  0.0000E+00  0.2700E+00  0.2700E+00
      6.007  0.0000E+00  0.0000E+00  0.2700E+00  0.2700E+00
      6.132  0.0000E+00  0.0000E+00  0.2700E+00  0.2700E+00
