       N       E                     dE             d eps       ncg     rms          rms(c)
DAV:   1     0.333079683476E+04    0.33308E+04   -0.14023E+05  4640   0.105E+03
DAV:   2    -0.255274994486E+03   -0.35861E+04   -0.33757E+04  6530   0.259E+02
DAV:   3    -0.875560586619E+03   -0.62029E+03   -0.61758E+03  5380   0.111E+02
DAV:   4    -0.897614097478E+03   -0.22054E+02   -0.21973E+02  5450   0.263E+01
DAV:   5    -0.898266035352E+03   -0.65194E+00   -0.65114E+00  6150   0.395E+00    0.524E+01
DAV:   6    -0.879900061345E+03    0.18366E+02   -0.23136E+01  5240   0.800E+00    0.341E+01
DAV:   7    -0.856927795018E+03    0.22972E+02   -0.34569E+01  5120   0.930E+00    0.206E+01
DAV:   8    -0.851944411629E+03    0.49834E+01   -0.24786E+01  5250   0.753E+00    0.837E+00
DAV:   9    -0.851848792400E+03    0.95619E-01   -0.11906E+00  5020   0.220E+00    0.318E+00
DAV:  10    -0.851759757278E+03    0.89035E-01   -0.46960E-01  5070   0.125E+00    0.102E+00
DAV:  11    -0.851743420795E+03    0.16336E-01   -0.93888E-02  4990   0.656E-01    0.333E-01
DAV:  12    -0.851742848741E+03    0.57205E-03   -0.15948E-02  5170   0.265E-01    0.170E-01
DAV:  13    -0.851742653102E+03    0.19564E-03   -0.20164E-03  5420   0.962E-02    0.107E-01
DAV:  14    -0.851742692236E+03   -0.39133E-04   -0.83338E-04  5150   0.622E-02    0.532E-02
DAV:  15    -0.851742741373E+03   -0.49137E-04   -0.91894E-05  5110   0.210E-02    0.315E-02
DAV:  16    -0.851742758059E+03   -0.16686E-04   -0.54072E-05  4830   0.157E-02    0.111E-02
DAV:  17    -0.851742756429E+03    0.16307E-05   -0.89592E-06  5570   0.922E-03    0.487E-03
DAV:  18    -0.851742757035E+03   -0.60615E-06   -0.45644E-06  4560   0.420E-03
   1 F= -.85962935E+03 E0= -.85962935E+03  d E =-.859629E+03  mag=     0.0000
       N       E                     dE             d eps       ncg     rms          rms(c)
DAV:   1    -0.851742675534E+03    0.80895E-04   -0.13326E-02  4540   0.212E-01    0.205E-02
DAV:   2    -0.851742700347E+03   -0.24813E-04   -0.30384E-04  4500   0.279E-02    0.146E-02
DAV:   3    -0.851742699100E+03    0.12466E-05   -0.39889E-06  4870   0.409E-03    0.112E-02
DAV:   4    -0.851742700092E+03   -0.99171E-06   -0.58515E-06  4310   0.528E-03
   2 F= -.85962931E+03 E0= -.85962931E+03  d E =0.383591E-04  mag=     0.0000
       N       E                     dE             d eps       ncg     rms          rms(c)
DAV:   1    -0.851742485553E+03    0.21355E-03   -0.49055E-02  4560   0.402E-01    0.394E-02
DAV:   2    -0.851742575261E+03   -0.89708E-04   -0.10930E-03  4480   0.520E-02    0.273E-02
DAV:   3    -0.851742572581E+03    0.26801E-05   -0.12561E-05  5320   0.723E-03    0.209E-02
DAV:   4    -0.851742579130E+03   -0.65484E-05   -0.18323E-05  4380   0.925E-03    0.457E-03
DAV:   5    -0.851742579531E+03   -0.40145E-06   -0.49298E-06  4690   0.380E-03
   3 F= -.85962922E+03 E0= -.85962922E+03  d E =0.850418E-04  mag=     0.0000
       N       E                     dE             d eps       ncg     rms          rms(c)
DAV:   1    -0.851742238780E+03    0.34035E-03   -0.99155E-02  4550   0.571E-01    0.551E-02
DAV:   2    -0.851742423660E+03   -0.18488E-03   -0.22426E-03  4480   0.743E-02    0.377E-02
DAV:   3    -0.851742417604E+03    0.60563E-05   -0.25600E-05  5360   0.103E-02    0.289E-02
DAV:   4    -0.851742429760E+03   -0.12156E-04   -0.38377E-05  4590   0.132E-02    0.657E-03
DAV:   5    -0.851742430545E+03   -0.78548E-06   -0.96352E-06  4740   0.541E-03
   4 F= -.85962912E+03 E0= -.85962912E+03  d E =0.101511E-03  mag=     0.0000
       N       E                     dE             d eps       ncg     rms          rms(c)
DAV:   1    -0.851741979572E+03    0.45019E-03   -0.15045E-01  4480   0.702E-01    0.674E-02
DAV:   2    -0.851742264536E+03   -0.28496E-03   -0.34346E-03  4480   0.917E-02    0.461E-02
DAV:   3    -0.851742255255E+03    0.92814E-05   -0.39112E-05  5380   0.127E-02    0.354E-02
DAV:   4    -0.851742273463E+03   -0.18209E-04   -0.57822E-05  4900   0.162E-02    0.811E-03
DAV:   5    -0.851742274734E+03   -0.12708E-05   -0.13741E-05  4760   0.648E-03    0.405E-03
DAV:   6    -0.851742274984E+03   -0.25027E-06   -0.12914E-06  3380   0.220E-03
   5 F= -.85962902E+03 E0= -.85962902E+03  d E =0.102816E-03  mag=    -0.0000
       N       E                     dE             d eps       ncg     rms          rms(c)
DAV:   1    -0.851741809178E+03    0.46556E-03   -0.18800E-01  4420   0.783E-01    0.739E-02
DAV:   2    -0.851742172066E+03   -0.36289E-03   -0.43132E-03  4450   0.102E-01    0.505E-02
DAV:   3    -0.851742159539E+03    0.12527E-04   -0.47187E-05  5380   0.139E-02    0.389E-02
DAV:   4    -0.851742179978E+03   -0.20439E-04   -0.68359E-05  4820   0.176E-02    0.885E-03
DAV:   5    -0.851742181539E+03   -0.15609E-05   -0.16194E-05  4760   0.700E-03    0.451E-03
DAV:   6    -0.851742181725E+03   -0.18640E-06   -0.16881E-06  3570   0.252E-03
   6 F= -.85962897E+03 E0= -.85962897E+03  d E =0.460365E-04  mag=    -0.0000
       N       E                     dE             d eps       ncg     rms          rms(c)
DAV:   1    -0.851741756958E+03    0.42458E-03   -0.19920E-01  4380   0.802E-01    0.747E-02
DAV:   2    -0.851742151259E+03   -0.39430E-03   -0.46270E-03  4430   0.104E-01    0.511E-02
DAV:   3    -0.851742137752E+03    0.13507E-04   -0.48478E-05  5320   0.140E-02    0.397E-02
DAV:   4    -0.851742158259E+03   -0.20507E-04   -0.70975E-05  4820   0.180E-02    0.896E-03
DAV:   5    -0.851742159776E+03   -0.15167E-05   -0.16656E-05  4800   0.705E-03    0.473E-03
DAV:   6    -0.851742159943E+03   -0.16738E-06   -0.17586E-06  3570   0.253E-03
   7 F= -.85962898E+03 E0= -.85962898E+03  d E =-.111264E-04  mag=    -0.0000
       N       E                     dE             d eps       ncg     rms          rms(c)
DAV:   1    -0.851742178070E+03   -0.18294E-04   -0.78298E-05  4520   0.157E-02    0.243E-03
DAV:   2    -0.851742178163E+03   -0.93140E-07   -0.16176E-06  3520   0.213E-03
   8 F= -.85962900E+03 E0= -.85962900E+03  d E =-.155574E-04  mag=    -0.0000
       N       E                     dE             d eps       ncg     rms          rms(c)
DAV:   1    -0.851742208825E+03   -0.30755E-04   -0.26856E-04  4460   0.290E-02    0.449E-03
DAV:   2    -0.851742209073E+03   -0.24783E-06   -0.54342E-06  3960   0.376E-03
   9 F= -.85962903E+03 E0= -.85962903E+03  d E =-.260409E-04  mag=     0.0000
       N       E                     dE             d eps       ncg     rms          rms(c)
DAV:   1    -0.851742246736E+03   -0.37911E-04   -0.52832E-04  4440   0.404E-02    0.681E-03
DAV:   2    -0.851742247128E+03   -0.39162E-06   -0.10502E-05  4480   0.512E-03    0.535E-03
DAV:   3    -0.851742247180E+03   -0.52416E-07   -0.31316E-07  2960   0.128E-03
  10 F= -.85962906E+03 E0= -.85962906E+03  d E =-.316797E-04  mag=     0.0000
       N       E                     dE             d eps       ncg     rms          rms(c)
DAV:   1    -0.851742288524E+03   -0.41396E-04   -0.86697E-04  4480   0.519E-02    0.621E-03
DAV:   2    -0.851742289754E+03   -0.12305E-05   -0.16996E-05  4440   0.641E-03    0.454E-03
DAV:   3    -0.851742289784E+03   -0.29569E-07   -0.19702E-07  2900   0.101E-03
  11 F= -.85962909E+03 E0= -.85962909E+03  d E =-.354603E-04  mag=    -0.0000
       N       E                     dE             d eps       ncg     rms          rms(c)
DAV:   1    -0.851742331758E+03   -0.42003E-04   -0.14747E-03  4480   0.690E-02    0.737E-03
DAV:   2    -0.851742334195E+03   -0.24375E-05   -0.30514E-05  4440   0.868E-03    0.531E-03
DAV:   3    -0.851742334177E+03    0.18583E-07   -0.30905E-07  3110   0.126E-03
  12 F= -.85962913E+03 E0= -.85962913E+03  d E =-.375494E-04  mag=     0.0000
       N       E                     dE             d eps       ncg     rms          rms(c)
DAV:   1    -0.851742370274E+03   -0.36078E-04   -0.25435E-03  4460   0.920E-02    0.926E-03
DAV:   2    -0.851742374799E+03   -0.45257E-05   -0.54507E-05  4420   0.117E-02    0.671E-03
DAV:   3    -0.851742374710E+03    0.89174E-07   -0.52369E-07  3320   0.163E-03
  13 F= -.85962917E+03 E0= -.85962917E+03  d E =-.353862E-04  mag=    -0.0000
       N       E                     dE             d eps       ncg     rms          rms(c)
DAV:   1    -0.851742393776E+03   -0.18977E-04   -0.55839E-03  4420   0.136E-01    0.133E-02
DAV:   2    -0.851742404038E+03   -0.10262E-04   -0.12167E-04  4400   0.174E-02    0.962E-03
DAV:   3    -0.851742403745E+03    0.29291E-06   -0.12682E-06  4030   0.242E-03
  14 F= -.85962919E+03 E0= -.85962919E+03  d E =-.271096E-04  mag=     0.0000
       N       E                     dE             d eps       ncg     rms          rms(c)
DAV:   1    -0.851742380294E+03    0.23744E-04   -0.12497E-02  4400   0.203E-01    0.199E-02
DAV:   2    -0.851742402927E+03   -0.22633E-04   -0.27169E-04  4400   0.260E-02    0.143E-02
DAV:   3    -0.851742402269E+03    0.65779E-06   -0.31068E-06  4730   0.363E-03
  15 F= -.85962920E+03 E0= -.85962920E+03  d E =-.264985E-05  mag=    -0.0000
       N       E                     dE             d eps       ncg     rms          rms(c)
DAV:   1    -0.851742340198E+03    0.62729E-04   -0.23776E-02  4380   0.281E-01    0.278E-02
DAV:   2    -0.851742381862E+03   -0.41664E-04   -0.51032E-04  4340   0.357E-02    0.201E-02
DAV:   3    -0.851742380742E+03    0.11207E-05   -0.61022E-06  5180   0.504E-03    0.154E-02
DAV:   4    -0.851742384342E+03   -0.36005E-05   -0.87656E-06  4240   0.645E-03    0.321E-03
DAV:   5    -0.851742384437E+03   -0.94384E-07   -0.23273E-06  4080   0.262E-03
  16 F= -.85962919E+03 E0= -.85962919E+03  d E =0.770039E-05  mag=    -0.0000
       N       E                     dE             d eps       ncg     rms          rms(c)
DAV:   1    -0.851742282955E+03    0.10139E-03   -0.40721E-02  4380   0.368E-01    0.354E-02
DAV:   2    -0.851742358018E+03   -0.75063E-04   -0.91287E-04  4340   0.480E-02    0.252E-02
DAV:   3    -0.851742354697E+03    0.33212E-05   -0.11484E-05  5300   0.692E-03    0.193E-02
DAV:   4    -0.851742358824E+03   -0.41277E-05   -0.16779E-05  4280   0.874E-03    0.446E-03
DAV:   5    -0.851742359119E+03   -0.29422E-06   -0.42652E-06  4560   0.352E-03
  17 F= -.85962918E+03 E0= -.85962918E+03  d E =0.107593E-04  mag=    -0.0000
       N       E                     dE             d eps       ncg     rms          rms(c)
DAV:   1    -0.851742238030E+03    0.12079E-03   -0.59950E-02  4380   0.446E-01    0.431E-02
DAV:   2    -0.851742348822E+03   -0.11079E-03   -0.13440E-03  4400   0.583E-02    0.307E-02
DAV:   3    -0.851742343782E+03    0.50398E-05   -0.17057E-05  5360   0.845E-03    0.235E-02
DAV:   4    -0.851742349567E+03   -0.57846E-05   -0.24645E-05  4380   0.106E-02    0.547E-03
DAV:   5    -0.851742350057E+03   -0.49012E-06   -0.61183E-06  4760   0.423E-03
  18 F= -.85962918E+03 E0= -.85962918E+03  d E =-.390741E-05  mag=     0.0000
       N       E                     dE             d eps       ncg     rms          rms(c)
DAV:   1    -0.851742279737E+03    0.69830E-04   -0.71058E-02  4380   0.487E-01    0.470E-02
DAV:   2    -0.851742410420E+03   -0.13068E-03   -0.15852E-03  4380   0.634E-02    0.340E-02
DAV:   3    -0.851742404402E+03    0.60177E-05   -0.20052E-05  5330   0.921E-03    0.261E-02
DAV:   4    -0.851742411367E+03   -0.69651E-05   -0.30388E-05  4440   0.118E-02    0.592E-03
DAV:   5    -0.851742411942E+03   -0.57514E-06   -0.72871E-06  4820   0.467E-03
  19 F= -.85962924E+03 E0= -.85962924E+03  d E =-.625679E-04  mag=     0.0000
       N       E                     dE             d eps       ncg     rms          rms(c)
DAV:   1    -0.851742426964E+03   -0.15597E-04   -0.77585E-05  4420   0.140E-02    0.244E-03
DAV:   2    -0.851742427104E+03   -0.13931E-06   -0.16447E-06  3420   0.188E-03
  20 F= -.85962926E+03 E0= -.85962926E+03  d E =-.123890E-04  mag=    -0.0000
       N       E                     dE             d eps       ncg     rms          rms(c)
DAV:   1    -0.851742459126E+03   -0.32162E-04   -0.39396E-04  4470   0.319E-02    0.466E-03
DAV:   2    -0.851742459584E+03   -0.45772E-06   -0.78550E-06  4220   0.401E-03
  21 F= -.85962928E+03 E0= -.85962928E+03  d E =-.263092E-04  mag=    -0.0000
       N       E                     dE             d eps       ncg     rms          rms(c)
DAV:   1    -0.851742509091E+03   -0.49965E-04   -0.10720E-03  4420   0.532E-02    0.839E-03
DAV:   2    -0.851742510026E+03   -0.93463E-06   -0.21110E-05  4460   0.665E-03    0.626E-03
DAV:   3    -0.851742510204E+03   -0.17851E-06   -0.35106E-07  3220   0.127E-03
  22 F= -.85962932E+03 E0= -.85962932E+03  d E =-.405903E-04  mag=    -0.0000
       N       E                     dE             d eps       ncg     rms          rms(c)
DAV:   1    -0.851742575746E+03   -0.65720E-04   -0.19417E-03  4420   0.714E-02    0.917E-03
DAV:   2    -0.851742578107E+03   -0.23615E-05   -0.36350E-05  4420   0.857E-03    0.622E-03
DAV:   3    -0.851742578297E+03   -0.18947E-06   -0.39308E-07  3420   0.127E-03
  23 F= -.85962938E+03 E0= -.85962938E+03  d E =-.543762E-04  mag=    -0.0000
       N       E                     dE             d eps       ncg     rms          rms(c)
DAV:   1    -0.851742658081E+03   -0.79973E-04   -0.29838E-03  4420   0.880E-02    0.112E-02
DAV:   2    -0.851742661787E+03   -0.37059E-05   -0.56239E-05  4400   0.106E-02    0.753E-03
DAV:   3    -0.851742662041E+03   -0.25452E-06   -0.61415E-07  3320   0.158E-03
  24 F= -.85962944E+03 E0= -.85962944E+03  d E =-.664534E-04  mag=    -0.0000
       N       E                     dE             d eps       ncg     rms          rms(c)
DAV:   1    -0.851742755366E+03   -0.93579E-04   -0.40280E-03  4420   0.101E-01    0.131E-02
DAV:   2    -0.851742760138E+03   -0.47718E-05   -0.74550E-05  4360   0.121E-02    0.883E-03
DAV:   3    -0.851742760573E+03   -0.43520E-06   -0.82734E-07  3440   0.181E-03
  25 F= -.85962952E+03 E0= -.85962952E+03  d E =-.778064E-04  mag=    -0.0000
       N       E                     dE             d eps       ncg     rms          rms(c)
DAV:   1    -0.851742877320E+03   -0.11718E-03   -0.62410E-03  4420   0.124E-01    0.164E-02
DAV:   2    -0.851742884370E+03   -0.70496E-05   -0.11453E-04  4360   0.147E-02    0.110E-02
DAV:   3    -0.851742885180E+03   -0.80996E-06   -0.13033E-06  3400   0.224E-03
  26 F= -.85962962E+03 E0= -.85962962E+03  d E =-.981040E-04  mag=    -0.0000
       N       E                     dE             d eps       ncg     rms          rms(c)
DAV:   1    -0.851743026699E+03   -0.14233E-03   -0.89447E-03  4380   0.146E-01    0.198E-02
DAV:   2    -0.851743035954E+03   -0.92550E-05   -0.16085E-04  4380   0.171E-02    0.134E-02
DAV:   3    -0.851743037406E+03   -0.14517E-05   -0.19051E-06  3560   0.266E-03    0.995E-03
DAV:   4    -0.851743041519E+03   -0.41135E-05   -0.38771E-06  3960   0.374E-03    0.187E-03
DAV:   5    -0.851743041542E+03   -0.23014E-07   -0.82520E-07  3480   0.156E-03
  27 F= -.85962974E+03 E0= -.85962974E+03  d E =-.123704E-03  mag=    -0.0000
       N       E                     dE             d eps       ncg     rms          rms(c)
DAV:   1    -0.851743204193E+03   -0.16267E-03   -0.12011E-02  4400   0.164E-01    0.226E-02
DAV:   2    -0.851743217668E+03   -0.13475E-04   -0.22476E-04  4360   0.195E-02    0.152E-02
DAV:   3    -0.851743218857E+03   -0.11891E-05   -0.28325E-06  3660   0.322E-03    0.113E-02
DAV:   4    -0.851743223736E+03   -0.48787E-05   -0.61294E-06  4060   0.465E-03    0.235E-03
DAV:   5    -0.851743223775E+03   -0.39872E-07   -0.13064E-06  3490   0.198E-03
  28 F= -.85962989E+03 E0= -.85962989E+03  d E =-.144142E-03  mag=     0.0000
       N       E                     dE             d eps       ncg     rms          rms(c)
DAV:   1    -0.851743407169E+03   -0.18343E-03   -0.14654E-02  4380   0.175E-01    0.250E-02
DAV:   2    -0.851743422761E+03   -0.15593E-04   -0.26686E-04  4380   0.201E-02    0.169E-02
DAV:   3    -0.851743424131E+03   -0.13702E-05   -0.33503E-06  3720   0.342E-03    0.126E-02
DAV:   4    -0.851743430352E+03   -0.62209E-05   -0.74309E-06  4060   0.501E-03    0.258E-03
DAV:   5    -0.851743430386E+03   -0.33368E-07   -0.15391E-06  3540   0.214E-03
  29 F= -.85963005E+03 E0= -.85963005E+03  d E =-.165058E-03  mag=     0.0000
       N       E                     dE             d eps       ncg     rms          rms(c)
DAV:   1    -0.851743621647E+03   -0.19130E-03   -0.17521E-02  4360   0.198E-01    0.272E-02
DAV:   2    -0.851743641953E+03   -0.20306E-04   -0.33041E-04  4380   0.236E-02    0.185E-02
DAV:   3    -0.851743643220E+03   -0.12667E-05   -0.40874E-06  3960   0.379E-03    0.139E-02
DAV:   4    -0.851743650339E+03   -0.71196E-05   -0.93110E-06  4140   0.558E-03    0.284E-03
DAV:   5    -0.851743650386E+03   -0.46239E-07   -0.18099E-06  3590   0.230E-03
  30 F= -.85963023E+03 E0= -.85963023E+03  d E =-.178037E-03  mag=    -0.0000
       N       E                     dE             d eps       ncg     rms          rms(c)
DAV:   1    -0.851743827172E+03   -0.17683E-03   -0.22701E-02  4400   0.248E-01    0.299E-02
DAV:   2    -0.851743858427E+03   -0.31255E-04   -0.45575E-04  4360   0.308E-02    0.207E-02
DAV:   3    -0.851743858928E+03   -0.50165E-06   -0.54819E-06  4420   0.457E-03
  31 F= -.85963040E+03 E0= -.85963040E+03  d E =-.169825E-03  mag=    -0.0000
       N       E                     dE             d eps       ncg     rms          rms(c)
DAV:   1    -0.851743990481E+03   -0.13205E-03   -0.33934E-02  4380   0.327E-01    0.359E-02
DAV:   2    -0.851744039815E+03   -0.49334E-04   -0.67989E-04  4360   0.405E-02    0.257E-02
DAV:   3    -0.851744040437E+03   -0.62183E-06   -0.82571E-06  5040   0.579E-03
  32 F= -.85963055E+03 E0= -.85963055E+03  d E =-.149929E-03  mag=    -0.0000
       N       E                     dE             d eps       ncg     rms          rms(c)
DAV:   1    -0.851744068177E+03   -0.28362E-04   -0.61636E-02  4380   0.454E-01    0.461E-02
DAV:   2    -0.851744169090E+03   -0.10091E-03   -0.12839E-03  4360   0.572E-02    0.335E-02
DAV:   3    -0.851744167035E+03    0.20546E-05   -0.16240E-05  5340   0.820E-03    0.256E-02
DAV:   4    -0.851744179159E+03   -0.12124E-04   -0.23990E-05  4340   0.106E-02    0.513E-03
DAV:   5    -0.851744179546E+03   -0.38679E-06   -0.59902E-06  4820   0.422E-03
  33 F= -.85963067E+03 E0= -.85963067E+03  d E =-.119277E-03  mag=    -0.0000
       N       E                     dE             d eps       ncg     rms          rms(c)
DAV:   1    -0.851744001550E+03    0.17761E-03   -0.12625E-01  4400   0.651E-01    0.628E-02
DAV:   2    -0.851744228404E+03   -0.22685E-03   -0.27859E-03  4420   0.845E-02    0.455E-02
DAV:   3    -0.851744217345E+03    0.11059E-04   -0.36575E-05  5340   0.123E-02    0.348E-02
DAV:   4    -0.851744230181E+03   -0.12836E-04   -0.56605E-05  4900   0.158E-02    0.785E-03
DAV:   5    -0.851744230914E+03   -0.73318E-06   -0.12875E-05  4810   0.630E-03    0.402E-03
DAV:   6    -0.851744231164E+03   -0.25007E-06   -0.12969E-06  3360   0.214E-03
  34 F= -.85963072E+03 E0= -.85963072E+03  d E =-.509135E-04  mag=     0.0000
       N       E                     dE             d eps       ncg     rms          rms(c)
DAV:   1    -0.851743707942E+03    0.52297E-03   -0.25719E-01  4380   0.925E-01    0.886E-02
DAV:   2    -0.851744172513E+03   -0.46457E-03   -0.57036E-03  4430   0.120E-01    0.639E-02
DAV:   3    -0.851744149012E+03    0.23501E-04   -0.74466E-05  5380   0.175E-02    0.488E-02
DAV:   4    -0.851744174338E+03   -0.25326E-04   -0.11466E-04  4950   0.225E-02    0.111E-02
DAV:   5    -0.851744175682E+03   -0.13442E-05   -0.26593E-05  4770   0.906E-03    0.531E-03
DAV:   6    -0.851744176349E+03   -0.66689E-06   -0.23463E-06  3800   0.287E-03
  35 F= -.85963069E+03 E0= -.85963069E+03  d E =0.283547E-04  mag=     0.0000
       N       E                     dE             d eps       ncg     rms          rms(c)
DAV:   1    -0.851743125495E+03    0.10502E-02   -0.49683E-01  4380   0.129E+00    0.123E-01
DAV:   2    -0.851744032448E+03   -0.90695E-03   -0.11079E-02  4420   0.167E-01    0.881E-02
DAV:   3    -0.851743988859E+03    0.43589E-04   -0.14276E-04  5340   0.242E-02    0.672E-02
DAV:   4    -0.851744036987E+03   -0.48128E-04   -0.21808E-04  4960   0.310E-02    0.153E-02
DAV:   5    -0.851744040016E+03   -0.30285E-05   -0.51060E-05  4760   0.126E-02    0.715E-03
DAV:   6    -0.851744041388E+03   -0.13722E-05   -0.43551E-06  4440   0.387E-03    0.378E-03
DAV:   7    -0.851744041643E+03   -0.25509E-06   -0.67746E-07  3280   0.163E-03
  36 F= -.85963061E+03 E0= -.85963061E+03  d E =0.797504E-04  mag=     0.0000
       N       E                     dE             d eps       ncg     rms          rms(c)
DAV:   1    -0.851742500493E+03    0.15409E-02   -0.77529E-01  4380   0.160E+00    0.152E-01
DAV:   2    -0.851743952927E+03   -0.14524E-02   -0.17454E-02  4480   0.209E-01    0.109E-01
DAV:   3    -0.851743881095E+03    0.71831E-04   -0.21776E-04  5320   0.298E-02    0.835E-02
DAV:   4    -0.851743944684E+03   -0.63589E-04   -0.33502E-04  4940   0.386E-02    0.190E-02
DAV:   5    -0.851743950021E+03   -0.53366E-05   -0.77120E-05  4730   0.154E-02    0.907E-03
DAV:   6    -0.851743951798E+03   -0.17766E-05   -0.73018E-06  4520   0.512E-03    0.468E-03
DAV:   7    -0.851743952168E+03   -0.37015E-06   -0.11649E-06  3540   0.205E-03
  37 F= -.85963058E+03 E0= -.85963058E+03  d E =0.278253E-04  mag=     0.0000
       N       E                     dE             d eps       ncg     rms          rms(c)
DAV:   1    -0.851743989933E+03   -0.38135E-04   -0.41693E-04  4480   0.346E-02    0.436E-03
DAV:   2    -0.851743990555E+03   -0.62210E-06   -0.88402E-06  4320   0.465E-03
  38 F= -.85963062E+03 E0= -.85963062E+03  d E =-.328239E-04  mag=     0.0000
       N       E                     dE             d eps       ncg     rms          rms(c)
DAV:   1    -0.851744056950E+03   -0.67017E-04   -0.14993E-03  4440   0.628E-02    0.984E-03
DAV:   2    -0.851744058297E+03   -0.13466E-05   -0.29386E-05  4640   0.801E-03    0.756E-03
DAV:   3    -0.851744058285E+03    0.11874E-07   -0.75526E-07  3540   0.187E-03
  39 F= -.85963067E+03 E0= -.85963067E+03  d E =-.563032E-04  mag=    -0.0000
       N       E                     dE             d eps       ncg     rms          rms(c)
DAV:   1    -0.851744152225E+03   -0.93928E-04   -0.30713E-03  4400   0.849E-02    0.120E-02
DAV:   2    -0.851744155489E+03   -0.32637E-05   -0.55211E-05  4580   0.100E-02    0.842E-03
DAV:   3    -0.851744155883E+03   -0.39403E-06   -0.73170E-07  3460   0.171E-03
  40 F= -.85963075E+03 E0= -.85963075E+03  d E =-.792748E-04  mag=     0.0000
       N       E                     dE             d eps       ncg     rms          rms(c)
DAV:   1    -0.851744281934E+03   -0.12645E-03   -0.53755E-03  4360   0.109E-01    0.153E-02
DAV:   2    -0.851744287697E+03   -0.57629E-05   -0.95470E-05  4440   0.126E-02    0.104E-02
DAV:   3    -0.851744288306E+03   -0.60860E-06   -0.11870E-06  3480   0.209E-03
  41 F= -.85963086E+03 E0= -.85963086E+03  d E =-.106277E-03  mag=    -0.0000
       N       E                     dE             d eps       ncg     rms          rms(c)
DAV:   1    -0.851744447179E+03   -0.15948E-03   -0.86959E-03  4400   0.137E-01    0.196E-02
DAV:   2    -0.851744456262E+03   -0.90823E-05   -0.15301E-04  4460   0.158E-02    0.133E-02
DAV:   3    -0.851744457233E+03   -0.97190E-06   -0.19443E-06  3530   0.263E-03
  42 F= -.85963099E+03 E0= -.85963099E+03  d E =-.134404E-03  mag=    -0.0000
       N       E                     dE             d eps       ncg     rms          rms(c)
DAV:   1    -0.851744641267E+03   -0.18501E-03   -0.13239E-02  4380   0.168E-01    0.243E-02
DAV:   2    -0.851744654989E+03   -0.13722E-04   -0.23166E-04  4460   0.192E-02    0.165E-02
DAV:   3    -0.851744656498E+03   -0.15096E-05   -0.29788E-06  3790   0.320E-03    0.122E-02
DAV:   4    -0.851744662486E+03   -0.59874E-05   -0.57642E-06  4060   0.443E-03    0.231E-03
DAV:   5    -0.851744662594E+03   -0.10848E-06   -0.11434E-06  3560   0.180E-03
  43 F= -.85963116E+03 E0= -.85963116E+03  d E =-.162589E-03  mag=    -0.0000
       N       E                     dE             d eps       ncg     rms          rms(c)
DAV:   1    -0.851744890441E+03   -0.22796E-03   -0.24779E-02  4380   0.228E-01    0.322E-02
DAV:   2    -0.851744920599E+03   -0.30157E-04   -0.46113E-04  4380   0.269E-02    0.214E-02
DAV:   3    -0.851744921614E+03   -0.10153E-05   -0.58472E-06  4280   0.447E-03    0.160E-02
DAV:   4    -0.851744930384E+03   -0.87697E-05   -0.11989E-05  4140   0.634E-03    0.325E-03
DAV:   5    -0.851744930655E+03   -0.27100E-06   -0.24758E-06  3720   0.262E-03
  44 F= -.85963137E+03 E0= -.85963137E+03  d E =-.209544E-03  mag=     0.0000
       N       E                     dE             d eps       ncg     rms          rms(c)
DAV:   1    -0.851745220113E+03   -0.28973E-03   -0.45834E-02  4380   0.311E-01    0.437E-02
DAV:   2    -0.851745273809E+03   -0.53696E-04   -0.85573E-04  4380   0.367E-02    0.289E-02
DAV:   3    -0.851745278409E+03   -0.46000E-05   -0.10554E-05  4740   0.598E-03    0.216E-02
DAV:   4    -0.851745294171E+03   -0.15761E-04   -0.21523E-05  4240   0.846E-03    0.424E-03
DAV:   5    -0.851745294672E+03   -0.50136E-06   -0.46186E-06  4350   0.353E-03
  45 F= -.85963165E+03 E0= -.85963165E+03  d E =-.284632E-03  mag=     0.0000
       N       E                     dE             d eps       ncg     rms          rms(c)
DAV:   1    -0.851745633236E+03   -0.33907E-03   -0.81761E-02  4380   0.418E-01    0.582E-02
DAV:   2    -0.851745728102E+03   -0.94866E-04   -0.15329E-03  4380   0.494E-02    0.383E-02
DAV:   3    -0.851745736455E+03   -0.83523E-05   -0.18782E-05  4860   0.795E-03    0.286E-02
DAV:   4    -0.851745765907E+03   -0.29452E-04   -0.37944E-05  4260   0.113E-02    0.559E-03
DAV:   5    -0.851745766773E+03   -0.86636E-06   -0.83078E-06  4780   0.471E-03
  46 F= -.85963202E+03 E0= -.85963202E+03  d E =-.367523E-03  mag=    -0.0000
       N       E                     dE             d eps       ncg     rms          rms(c)
DAV:   1    -0.851746151928E+03   -0.38602E-03   -0.12752E-01  4380   0.516E-01    0.728E-02
DAV:   2    -0.851746299409E+03   -0.14748E-03   -0.23748E-03  4440   0.604E-02    0.476E-02
DAV:   3    -0.851746310927E+03   -0.11518E-04   -0.28975E-05  4860   0.976E-03    0.354E-02
DAV:   4    -0.851746358243E+03   -0.47316E-04   -0.57500E-05  4300   0.138E-02    0.697E-03
DAV:   5    -0.851746359460E+03   -0.12173E-05   -0.12588E-05  4820   0.580E-03    0.497E-03
DAV:   6    -0.851746359808E+03   -0.34845E-06   -0.15477E-06  3480   0.241E-03
  47 F= -.85963248E+03 E0= -.85963248E+03  d E =-.463525E-03  mag=    -0.0000
       N       E                     dE             d eps       ncg     rms          rms(c)
DAV:   1    -0.851746767994E+03   -0.40853E-03   -0.17732E-01  4360   0.586E-01    0.850E-02
DAV:   2    -0.851746978612E+03   -0.21062E-03   -0.32602E-03  4510   0.667E-02    0.556E-02
DAV:   3    -0.851746986025E+03   -0.74132E-05   -0.38491E-05  4970   0.108E-02    0.416E-02
DAV:   4    -0.851747050418E+03   -0.64393E-04   -0.83709E-05  4380   0.160E-02    0.797E-03
DAV:   5    -0.851747051837E+03   -0.14187E-05   -0.16965E-05  4880   0.656E-03    0.598E-03
DAV:   6    -0.851747052258E+03   -0.42132E-06   -0.21833E-06  3640   0.287E-03
  48 F= -.85963302E+03 E0= -.85963302E+03  d E =-.541110E-03  mag=     0.0000
       N       E                     dE             d eps       ncg     rms          rms(c)
DAV:   1    -0.851747421735E+03   -0.36990E-03   -0.20397E-01  4360   0.637E-01    0.908E-02
DAV:   2    -0.851747672262E+03   -0.25053E-03   -0.37724E-03  4530   0.735E-02    0.590E-02
DAV:   3    -0.851747680425E+03   -0.81633E-05   -0.43492E-05  4990   0.115E-02    0.442E-02
DAV:   4    -0.851747752177E+03   -0.71752E-04   -0.90829E-05  4360   0.169E-02    0.837E-03
DAV:   5    -0.851747753710E+03   -0.15334E-05   -0.18522E-05  4860   0.689E-03    0.631E-03
DAV:   6    -0.851747754080E+03   -0.36947E-06   -0.24579E-06  3760   0.304E-03
  49 F= -.85963357E+03 E0= -.85963357E+03  d E =-.548282E-03  mag=    -0.0000
       N       E                     dE             d eps       ncg     rms          rms(c)
DAV:   1    -0.851748022425E+03   -0.26871E-03   -0.24543E-01  4380   0.762E-01    0.965E-02
DAV:   2    -0.851748369100E+03   -0.34668E-03   -0.48489E-03  4480   0.924E-02    0.629E-02
DAV:   3    -0.851748374774E+03   -0.56736E-05   -0.52259E-05  5010   0.132E-02    0.479E-02
DAV:   4    -0.851748449514E+03   -0.74741E-04   -0.10921E-04  4490   0.192E-02    0.888E-03
DAV:   5    -0.851748451548E+03   -0.20336E-05   -0.22418E-05  4840   0.761E-03    0.681E-03
DAV:   6    -0.851748451789E+03   -0.24182E-06   -0.27653E-06  3860   0.324E-03
  50 F= -.85963412E+03 E0= -.85963412E+03  d E =-.546444E-03  mag=     0.0000
       N       E                     dE             d eps       ncg     rms          rms(c)
DAV:   1    -0.851748484545E+03   -0.32997E-04   -0.34003E-01  4380   0.991E-01    0.107E-01
DAV:   2    -0.851749040131E+03   -0.55559E-03   -0.72749E-03  4480   0.125E-01    0.707E-02
DAV:   3    -0.851749039121E+03    0.10102E-05   -0.76415E-05  5100   0.170E-02    0.546E-02
DAV:   4    -0.851749124299E+03   -0.85177E-04   -0.13891E-04  4980   0.239E-02    0.107E-02
DAV:   5    -0.851749127478E+03   -0.31795E-05   -0.29959E-05  4850   0.924E-03    0.747E-03
DAV:   6    -0.851749127741E+03   -0.26256E-06   -0.35427E-06  4160   0.361E-03
  51 F= -.85963466E+03 E0= -.85963466E+03  d E =-.540439E-03  mag=     0.0000
       N       E                     dE             d eps       ncg     rms          rms(c)
DAV:   1    -0.851748682331E+03    0.44515E-03   -0.53018E-01  4400   0.130E+00    0.129E-01
DAV:   2    -0.851749629317E+03   -0.94699E-03   -0.11739E-02  4480   0.166E-01    0.868E-02
DAV:   3    -0.851749610946E+03    0.18371E-04   -0.12607E-04  5230   0.225E-02    0.672E-02
DAV:   4    -0.851749698931E+03   -0.87985E-04   -0.21134E-04  5040   0.304E-02    0.143E-02
DAV:   5    -0.851749705452E+03   -0.65205E-05   -0.46233E-05  4820   0.118E-02    0.872E-03
DAV:   6    -0.851749706123E+03   -0.67119E-06   -0.53857E-06  4220   0.441E-03
  52 F= -.85963513E+03 E0= -.85963513E+03  d E =-.471074E-03  mag=     0.0000
       N       E                     dE             d eps       ncg     rms          rms(c)
DAV:   1    -0.851748863992E+03    0.84146E-03   -0.74035E-01  4380   0.156E+00    0.153E-01
DAV:   2    -0.851750189455E+03   -0.13255E-02   -0.16312E-02  4460   0.202E-01    0.107E-01
DAV:   3    -0.851750144597E+03    0.44858E-04   -0.20666E-04  5300   0.291E-02    0.826E-02
DAV:   4    -0.851750226746E+03   -0.82149E-04   -0.32311E-04  5000   0.381E-02    0.186E-02
DAV:   5    -0.851750237467E+03   -0.10722E-04   -0.71805E-05  4800   0.147E-02    0.109E-02
DAV:   6    -0.851750239200E+03   -0.17326E-05   -0.89613E-06  4280   0.572E-03    0.520E-03
DAV:   7    -0.851750239724E+03   -0.52444E-06   -0.15565E-06  3660   0.234E-03
  53 F= -.85963555E+03 E0= -.85963555E+03  d E =-.423719E-03  mag=     0.0000
       N       E                     dE             d eps       ncg     rms          rms(c)
DAV:   1    -0.851748764841E+03    0.14744E-02   -0.99158E-01  4380   0.183E+00    0.181E-01
DAV:   2    -0.851750522187E+03   -0.17573E-02   -0.21808E-02  4520   0.238E-01    0.131E-01
DAV:   3    -0.851750434311E+03    0.87876E-04   -0.33173E-04  5420   0.366E-02    0.101E-01
DAV:   4    -0.851750504301E+03   -0.69990E-04   -0.46176E-04  4910   0.462E-02    0.264E-02
DAV:   5    -0.851750529091E+03   -0.24790E-04   -0.11122E-04  4800   0.181E-02    0.151E-02
DAV:   6    -0.851750532047E+03   -0.29554E-05   -0.15574E-05  4580   0.750E-03    0.699E-03
DAV:   7    -0.851750532951E+03   -0.90434E-06   -0.24907E-06  3840   0.310E-03
  54 F= -.85963571E+03 E0= -.85963571E+03  d E =-.154415E-03  mag=    -0.0000
       N       E                     dE             d eps       ncg     rms          rms(c)
DAV:   1    -0.851751130266E+03   -0.59822E-03   -0.33759E-02  4380   0.371E-01    0.428E-02
DAV:   2    -0.851751187589E+03   -0.57323E-04   -0.85018E-04  5400   0.542E-02    0.384E-02
DAV:   3    -0.851751169658E+03    0.17931E-04   -0.41546E-05  5660   0.121E-02    0.291E-02
DAV:   4    -0.851751155181E+03    0.14477E-04   -0.38153E-05  4420   0.132E-02    0.119E-02
DAV:   5    -0.851751154901E+03    0.28069E-06   -0.10642E-05  4560   0.593E-03    0.528E-03
DAV:   6    -0.851751155051E+03   -0.15055E-06   -0.99672E-07  2900   0.208E-03
  55 F= -.85963631E+03 E0= -.85963631E+03  d E =-.599463E-03  mag=    -0.0000
       N       E                     dE             d eps       ncg     rms          rms(c)
DAV:   1    -0.851751171863E+03   -0.16963E-04   -0.99812E-05  4480   0.183E-02    0.267E-03
DAV:   2    -0.851751171993E+03   -0.12941E-06   -0.20846E-06  3160   0.250E-03
  56 F= -.85963632E+03 E0= -.85963632E+03  d E =-.145184E-04  mag=    -0.0000
       N       E                     dE             d eps       ncg     rms          rms(c)
DAV:   1    -0.851751201564E+03   -0.29701E-04   -0.35572E-04  4440   0.343E-02    0.476E-03
DAV:   2    -0.851751202001E+03   -0.43683E-06   -0.72380E-06  4580   0.448E-03
  57 F= -.85963635E+03 E0= -.85963635E+03  d E =-.253775E-04  mag=    -0.0000
       N       E                     dE             d eps       ncg     rms          rms(c)
DAV:   1    -0.851751240207E+03   -0.38643E-04   -0.69437E-04  4440   0.471E-02    0.739E-03
DAV:   2    -0.851751240884E+03   -0.67672E-06   -0.13484E-05  4660   0.600E-03    0.575E-03
DAV:   3    -0.851751240889E+03   -0.48167E-08   -0.38009E-07  3030   0.140E-03
  58 F= -.85963638E+03 E0= -.85963638E+03  d E =-.322149E-04  mag=     0.0000
       N       E                     dE             d eps       ncg     rms          rms(c)
DAV:   1    -0.851751285542E+03   -0.44658E-04   -0.10309E-03  4400   0.563E-02    0.676E-03
DAV:   2    -0.851751286966E+03   -0.14247E-05   -0.19105E-05  4500   0.689E-03    0.481E-03
DAV:   3    -0.851751287031E+03   -0.64108E-07   -0.23167E-07  3100   0.108E-03
  59 F= -.85963642E+03 E0= -.85963642E+03  d E =-.377592E-04  mag=    -0.0000
       N       E                     dE             d eps       ncg     rms          rms(c)
DAV:   1    -0.851751337474E+03   -0.50507E-04   -0.14135E-03  4360   0.659E-02    0.750E-03
DAV:   2    -0.851751339541E+03   -0.20674E-05   -0.26850E-05  4480   0.819E-03    0.526E-03
DAV:   3    -0.851751339587E+03   -0.46166E-07   -0.30210E-07  3200   0.122E-03
  60 F= -.85963646E+03 E0= -.85963646E+03  d E =-.430051E-04  mag=    -0.0000
       N       E                     dE             d eps       ncg     rms          rms(c)
DAV:   1    -0.851751395229E+03   -0.55688E-04   -0.18527E-03  4360   0.767E-02    0.849E-03
DAV:   2    -0.851751398003E+03   -0.27739E-05   -0.35889E-05  4420   0.965E-03    0.605E-03
DAV:   3    -0.851751398040E+03   -0.37006E-07   -0.43526E-07  3260   0.142E-03
  61 F= -.85963651E+03 E0= -.85963651E+03  d E =-.481872E-04  mag=    -0.0000
       N       E                     dE             d eps       ncg     rms          rms(c)
DAV:   1    -0.851751458587E+03   -0.60585E-04   -0.30164E-03  4400   0.998E-02    0.106E-02
DAV:   2    -0.851751463239E+03   -0.46511E-05   -0.60169E-05  4400   0.127E-02    0.769E-03
DAV:   3    -0.851751463249E+03   -0.10587E-07   -0.74007E-07  3240   0.186E-03
  62 F= -.85963656E+03 E0= -.85963656E+03  d E =-.540193E-04  mag=     0.0000
       N       E                     dE             d eps       ncg     rms          rms(c)
DAV:   1    -0.851751524236E+03   -0.60998E-04   -0.50237E-03  4400   0.130E-01    0.134E-02
DAV:   2    -0.851751532174E+03   -0.79375E-05   -0.10323E-04  4360   0.167E-02    0.980E-03
DAV:   3    -0.851751532220E+03   -0.46181E-07   -0.12744E-06  3700   0.243E-03
  63 F= -.85963662E+03 E0= -.85963662E+03  d E =-.576019E-04  mag=    -0.0000
       N       E                     dE             d eps       ncg     rms          rms(c)
DAV:   1    -0.851751584519E+03   -0.52345E-04   -0.85045E-03  4400   0.171E-01    0.172E-02
DAV:   2    -0.851751597765E+03   -0.13246E-04   -0.17770E-04  4360   0.218E-02    0.126E-02
DAV:   3    -0.851751598080E+03   -0.31463E-06   -0.22800E-06  4160   0.318E-03
  64 F= -.85963667E+03 E0= -.85963667E+03  d E =-.557127E-04  mag=    -0.0000
       N       E                     dE             d eps       ncg     rms          rms(c)
DAV:   1    -0.851751632601E+03   -0.34836E-04   -0.15007E-02  4380   0.226E-01    0.227E-02
DAV:   2    -0.851751655628E+03   -0.23027E-04   -0.31714E-04  4360   0.290E-02    0.169E-02
DAV:   3    -0.851751656001E+03   -0.37269E-06   -0.43758E-06  4800   0.429E-03
  65 F= -.85963673E+03 E0= -.85963673E+03  d E =-.503622E-04  mag=    -0.0000
       N       E                     dE             d eps       ncg     rms          rms(c)
DAV:   1    -0.851751659221E+03   -0.35927E-05   -0.28360E-02  4380   0.309E-01    0.311E-02
DAV:   2    -0.851751702213E+03   -0.42992E-04   -0.60016E-04  4360   0.393E-02    0.231E-02
DAV:   3    -0.851751702268E+03   -0.55225E-07   -0.81809E-06  5260   0.582E-03
  66 F= -.85963677E+03 E0= -.85963677E+03  d E =-.430260E-04  mag=    -0.0000
       N       E                     dE             d eps       ncg     rms          rms(c)
DAV:   1    -0.851751650738E+03    0.51475E-04   -0.55359E-02  4380   0.429E-01    0.430E-02
DAV:   2    -0.851751736489E+03   -0.85751E-04   -0.11795E-03  4340   0.544E-02    0.316E-02
DAV:   3    -0.851751736053E+03    0.43650E-06   -0.15476E-05  5260   0.794E-03    0.242E-02
DAV:   4    -0.851751750896E+03   -0.14844E-04   -0.20607E-05  4340   0.996E-03    0.516E-03
DAV:   5    -0.851751751476E+03   -0.57957E-06   -0.54410E-06  4680   0.394E-03
  67 F= -.85963682E+03 E0= -.85963682E+03  d E =-.521139E-04  mag=    -0.0000
       N       E                     dE             d eps       ncg     rms          rms(c)
DAV:   1    -0.851751571728E+03    0.17917E-03   -0.11092E-01  4380   0.605E-01    0.578E-02
DAV:   2    -0.851751765407E+03   -0.19368E-03   -0.25018E-03  4370   0.789E-02    0.411E-02
DAV:   3    -0.851751759337E+03    0.60697E-05   -0.31667E-05  5250   0.114E-02    0.315E-02
DAV:   4    -0.851751779788E+03   -0.20451E-04   -0.44910E-05  4640   0.142E-02    0.734E-03
DAV:   5    -0.851751781124E+03   -0.13358E-05   -0.10351E-05  4760   0.554E-03    0.383E-03
DAV:   6    -0.851751781332E+03   -0.20794E-06   -0.12374E-06  3360   0.215E-03
  68 F= -.85963686E+03 E0= -.85963686E+03  d E =-.438359E-04  mag=    -0.0000
       N       E                     dE             d eps       ncg     rms          rms(c)
DAV:   1    -0.851751361014E+03    0.42011E-03   -0.21664E-01  4380   0.844E-01    0.796E-02
DAV:   2    -0.851751759731E+03   -0.39872E-03   -0.49274E-03  4400   0.110E-01    0.556E-02
DAV:   3    -0.851751745104E+03    0.14627E-04   -0.58746E-05  5240   0.155E-02    0.427E-02
DAV:   4    -0.851751775527E+03   -0.30423E-04   -0.84417E-05  4840   0.195E-02    0.990E-03
DAV:   5    -0.851751777909E+03   -0.23814E-05   -0.19520E-05  4760   0.768E-03    0.499E-03
DAV:   6    -0.851751778432E+03   -0.52384E-06   -0.20800E-06  3700   0.276E-03
  69 F= -.85963689E+03 E0= -.85963689E+03  d E =-.268715E-04  mag=    -0.0000
       N       E                     dE             d eps       ncg     rms          rms(c)
DAV:   1    -0.851751040761E+03    0.73715E-03   -0.35133E-01  4380   0.107E+00    0.101E-01
DAV:   2    -0.851751713213E+03   -0.67245E-03   -0.80783E-03  4420   0.140E-01    0.694E-02
DAV:   3    -0.851751689123E+03    0.24090E-04   -0.91898E-05  5260   0.193E-02    0.535E-02
DAV:   4    -0.851751729066E+03   -0.39943E-04   -0.13366E-04  4900   0.247E-02    0.122E-02
DAV:   5    -0.851751732975E+03   -0.39086E-05   -0.31953E-05  4740   0.992E-03    0.586E-03
DAV:   6    -0.851751733823E+03   -0.84809E-06   -0.28197E-06  3920   0.327E-03
  70 F= -.85963688E+03 E0= -.85963688E+03  d E =0.654376E-05  mag=    -0.0000
       N       E                     dE             d eps       ncg     rms          rms(c)
DAV:   1    -0.851750924638E+03    0.80834E-03   -0.41219E-01  4380   0.116E+00    0.110E-01
DAV:   2    -0.851751705950E+03   -0.78131E-03   -0.93989E-03  4420   0.151E-01    0.769E-02
DAV:   3    -0.851751675594E+03    0.30356E-04   -0.11341E-04  5260   0.214E-02    0.592E-02
DAV:   4    -0.851751715115E+03   -0.39520E-04   -0.16515E-04  4960   0.274E-02    0.136E-02
DAV:   5    -0.851751719398E+03   -0.42835E-05   -0.37864E-05  4740   0.108E-02    0.690E-03
DAV:   6    -0.851751720452E+03   -0.10536E-05   -0.41075E-06  4280   0.390E-03    0.349E-03
DAV:   7    -0.851751720807E+03   -0.35521E-06   -0.62142E-07  3240   0.151E-03
  71 F= -.85963690E+03 E0= -.85963690E+03  d E =-.180134E-04  mag=     0.0000
       N       E                     dE             d eps       ncg     rms          rms(c)
DAV:   1    -0.851751753598E+03   -0.33146E-04   -0.45019E-04  4480   0.364E-02    0.450E-03
DAV:   2    -0.851751754290E+03   -0.69187E-06   -0.92482E-06  4300   0.477E-03
  72 F= -.85963693E+03 E0= -.85963693E+03  d E =-.302050E-04  mag=     0.0000
       N       E                     dE             d eps       ncg     rms          rms(c)
DAV:   1    -0.851751811614E+03   -0.58016E-04   -0.16819E-03  4400   0.691E-02    0.104E-02
DAV:   2    -0.851751813406E+03   -0.17919E-05   -0.33674E-05  4580   0.888E-03    0.784E-03
DAV:   3    -0.851751813387E+03    0.19172E-07   -0.74587E-07  3600   0.191E-03
  73 F= -.85963699E+03 E0= -.85963699E+03  d E =-.522928E-04  mag=    -0.0000
       N       E                     dE             d eps       ncg     rms          rms(c)
DAV:   1    -0.851751890302E+03   -0.76897E-04   -0.33400E-03  4360   0.938E-02    0.128E-02
DAV:   2    -0.851751894303E+03   -0.40010E-05   -0.61697E-05  4480   0.113E-02    0.884E-03
DAV:   3    -0.851751894618E+03   -0.31426E-06   -0.82939E-07  3540   0.193E-03
  74 F= -.85963706E+03 E0= -.85963706E+03  d E =-.700835E-04  mag=     0.0000
       N       E                     dE             d eps       ncg     rms          rms(c)
DAV:   1    -0.851751993168E+03   -0.98865E-04   -0.54464E-03  4360   0.117E-01    0.159E-02
DAV:   2    -0.851751999689E+03   -0.65202E-05   -0.99742E-05  4440   0.139E-02    0.108E-02
DAV:   3    -0.851752000197E+03   -0.50876E-06   -0.12408E-06  3560   0.228E-03
  75 F= -.85963714E+03 E0= -.85963714E+03  d E =-.894991E-04  mag=    -0.0000
       N       E                     dE             d eps       ncg     rms          rms(c)
DAV:   1    -0.851752121133E+03   -0.12144E-03   -0.77222E-03  4320   0.137E-01    0.190E-02
DAV:   2    -0.851752130197E+03   -0.90639E-05   -0.14038E-04  4440   0.162E-02    0.129E-02
DAV:   3    -0.851752130943E+03   -0.74644E-06   -0.17852E-06  3560   0.269E-03
  76 F= -.85963725E+03 E0= -.85963725E+03  d E =-.109282E-03  mag=    -0.0000
       N       E                     dE             d eps       ncg     rms          rms(c)
DAV:   1    -0.851752265679E+03   -0.13548E-03   -0.10004E-02  4320   0.155E-01    0.218E-02
DAV:   2    -0.851752277347E+03   -0.11667E-04   -0.18046E-04  4440   0.182E-02    0.149E-02
DAV:   3    -0.851752278237E+03   -0.89058E-06   -0.23867E-06  3800   0.307E-03
  77 F= -.85963737E+03 E0= -.85963737E+03  d E =-.121085E-03  mag=     0.0000
       N       E                     dE             d eps       ncg     rms          rms(c)
DAV:   1    -0.851752435127E+03   -0.15778E-03   -0.14634E-02  4320   0.187E-01    0.264E-02
DAV:   2    -0.851752452158E+03   -0.17031E-04   -0.26235E-04  4440   0.217E-02    0.180E-02
DAV:   3    -0.851752453447E+03   -0.12896E-05   -0.34869E-06  4000   0.369E-03    0.133E-02
DAV:   4    -0.851752459051E+03   -0.56040E-05   -0.60191E-06  4040   0.484E-03    0.241E-03
DAV:   5    -0.851752459130E+03   -0.78369E-07   -0.13253E-06  3580   0.201E-03
  78 F= -.85963752E+03 E0= -.85963752E+03  d E =-.147855E-03  mag=    -0.0000
       N       E                     dE             d eps       ncg     rms          rms(c)
DAV:   1    -0.851752641251E+03   -0.18220E-03   -0.20942E-02  4320   0.221E-01    0.306E-02
DAV:   2    -0.851752668502E+03   -0.27250E-04   -0.39849E-04  4440   0.265E-02    0.206E-02
DAV:   3    -0.851752669504E+03   -0.10026E-05   -0.53495E-06  4120   0.454E-03    0.154E-02
DAV:   4    -0.851752676010E+03   -0.65053E-05   -0.96363E-06  4160   0.606E-03    0.309E-03
DAV:   5    -0.851752676168E+03   -0.15826E-06   -0.21533E-06  3660   0.252E-03
  79 F= -.85963770E+03 E0= -.85963770E+03  d E =-.176402E-03  mag=     0.0000
       N       E                     dE             d eps       ncg     rms          rms(c)
DAV:   1    -0.851752883718E+03   -0.20771E-03   -0.29003E-02  4320   0.262E-01    0.358E-02
DAV:   2    -0.851752922317E+03   -0.38599E-04   -0.56185E-04  4400   0.318E-02    0.243E-02
DAV:   3    -0.851752923857E+03   -0.15403E-05   -0.74971E-06  4640   0.532E-03    0.181E-02
DAV:   4    -0.851752932710E+03   -0.88530E-05   -0.13682E-05  4260   0.721E-03    0.365E-03
DAV:   5    -0.851752932955E+03   -0.24535E-06   -0.30693E-06  4060   0.296E-03
  80 F= -.85963791E+03 E0= -.85963791E+03  d E =-.209441E-03  mag=    -0.0000
       N       E                     dE             d eps       ncg     rms          rms(c)
DAV:   1    -0.851753160042E+03   -0.22733E-03   -0.39506E-02  4380   0.312E-01    0.412E-02
DAV:   2    -0.851753214384E+03   -0.54342E-04   -0.77554E-04  4370   0.383E-02    0.278E-02
DAV:   3    -0.851753216102E+03   -0.17180E-05   -0.97052E-06  4880   0.604E-03    0.208E-02
DAV:   4    -0.851753228075E+03   -0.11973E-04   -0.18431E-05  4280   0.832E-03    0.409E-03
DAV:   5    -0.851753228368E+03   -0.29267E-06   -0.41271E-06  4320   0.344E-03
  81 F= -.85963815E+03 E0= -.85963815E+03  d E =-.240086E-03  mag=    -0.0000
       N       E                     dE             d eps       ncg     rms          rms(c)
DAV:   1    -0.851753453828E+03   -0.22575E-03   -0.55112E-02  4380   0.386E-01    0.473E-02
DAV:   2    -0.851753534293E+03   -0.80465E-04   -0.11137E-03  4350   0.482E-02    0.317E-02
DAV:   3    -0.851753536135E+03   -0.18418E-05   -0.13503E-05  4900   0.723E-03    0.239E-02
DAV:   4    -0.851753552096E+03   -0.15961E-04   -0.23698E-05  4320   0.975E-03    0.470E-03
DAV:   5    -0.851753552523E+03   -0.42750E-06   -0.55272E-06  4660   0.403E-03
  82 F= -.85963841E+03 E0= -.85963841E+03  d E =-.259320E-03  mag=     0.0000
       N       E                     dE             d eps       ncg     rms          rms(c)
DAV:   1    -0.851753749458E+03   -0.19736E-03   -0.78720E-02  4380   0.481E-01    0.548E-02
DAV:   2    -0.851753873364E+03   -0.12391E-03   -0.16477E-03  4330   0.609E-02    0.369E-02
DAV:   3    -0.851753873957E+03   -0.59307E-06   -0.19609E-05  5020   0.881E-03    0.280E-02
DAV:   4    -0.851753894357E+03   -0.20400E-04   -0.32846E-05  4330   0.118E-02    0.564E-03
DAV:   5    -0.851753895035E+03   -0.67789E-06   -0.77654E-06  4820   0.481E-03
  83 F= -.85963868E+03 E0= -.85963868E+03  d E =-.272143E-03  mag=    -0.0000
       N       E                     dE             d eps       ncg     rms          rms(c)
DAV:   1    -0.851754026632E+03   -0.13227E-03   -0.12001E-01  4400   0.610E-01    0.653E-02
DAV:   2    -0.851754230894E+03   -0.20426E-03   -0.26049E-03  4340   0.782E-02    0.442E-02
DAV:   3    -0.851754229378E+03    0.15163E-05   -0.29701E-05  5100   0.110E-02    0.339E-02
DAV:   4    -0.851754254780E+03   -0.25402E-04   -0.49189E-05  4420   0.146E-02    0.694E-03
DAV:   5    -0.851754256066E+03   -0.12856E-05   -0.11551E-05  4800   0.588E-03    0.451E-03
DAV:   6    -0.851754256093E+03   -0.27459E-07   -0.13424E-06  3220   0.230E-03
  84 F= -.85963897E+03 E0= -.85963897E+03  d E =-.288784E-03  mag=    -0.0000
       N       E                     dE             d eps       ncg     rms          rms(c)
DAV:   1    -0.851754313475E+03   -0.57409E-04   -0.17779E-01  4380   0.755E-01    0.775E-02
DAV:   2    -0.851754626893E+03   -0.31342E-03   -0.39276E-03  4360   0.976E-02    0.531E-02
DAV:   3    -0.851754622658E+03    0.42348E-05   -0.46014E-05  5040   0.138E-02    0.409E-02
DAV:   4    -0.851754653235E+03   -0.30578E-04   -0.73900E-05  4760   0.182E-02    0.869E-03
DAV:   5    -0.851754655086E+03   -0.18508E-05   -0.17033E-05  4800   0.720E-03    0.539E-03
DAV:   6    -0.851754655249E+03   -0.16249E-06   -0.20389E-06  3580   0.276E-03
  85 F= -.85963928E+03 E0= -.85963928E+03  d E =-.312116E-03  mag=    -0.0000
       N       E                     dE             d eps       ncg     rms          rms(c)
DAV:   1    -0.851754649189E+03    0.58975E-05   -0.26067E-01  4380   0.920E-01    0.928E-02
DAV:   2    -0.851755113061E+03   -0.46387E-03   -0.57558E-03  4380   0.119E-01    0.638E-02
DAV:   3    -0.851755104430E+03    0.86312E-05   -0.67160E-05  5180   0.166E-02    0.491E-02
DAV:   4    -0.851755148365E+03   -0.43935E-04   -0.10626E-04  4880   0.218E-02    0.106E-02
DAV:   5    -0.851755150637E+03   -0.22723E-05   -0.24344E-05  4820   0.869E-03    0.624E-03
DAV:   6    -0.851755150935E+03   -0.29754E-06   -0.28741E-06  4000   0.322E-03
  86 F= -.85963968E+03 E0= -.85963968E+03  d E =-.394298E-03  mag=     0.0000
       N       E                     dE             d eps       ncg     rms          rms(c)
DAV:   1    -0.851755012766E+03    0.13787E-03   -0.39918E-01  4380   0.113E+00    0.115E-01
DAV:   2    -0.851755739025E+03   -0.72626E-03   -0.89137E-03  4400   0.147E-01    0.788E-02
DAV:   3    -0.851755724271E+03    0.14754E-04   -0.10257E-04  5300   0.205E-02    0.609E-02
DAV:   4    -0.851755788163E+03   -0.63892E-04   -0.16694E-04  4960   0.271E-02    0.133E-02
DAV:   5    -0.851755792684E+03   -0.45210E-05   -0.37382E-05  4860   0.105E-02    0.839E-03
DAV:   6    -0.851755792870E+03   -0.18624E-06   -0.49009E-06  4220   0.424E-03
  87 F= -.85964019E+03 E0= -.85964019E+03  d E =-.514164E-03  mag=    -0.0000
       N       E                     dE             d eps       ncg     rms          rms(c)
DAV:   1    -0.851755356108E+03    0.43658E-03   -0.54440E-01  4380   0.133E+00    0.136E-01
DAV:   2    -0.851756342766E+03   -0.98666E-03   -0.12172E-02  4440   0.172E-01    0.933E-02
DAV:   3    -0.851756325665E+03    0.17101E-04   -0.14954E-04  5340   0.245E-02    0.718E-02
DAV:   4    -0.851756416563E+03   -0.90899E-04   -0.20480E-04  4860   0.314E-02    0.172E-02
DAV:   5    -0.851756424370E+03   -0.78064E-05   -0.52380E-05  4800   0.125E-02    0.100E-02
DAV:   6    -0.851756424659E+03   -0.28945E-06   -0.75066E-06  4360   0.523E-03
  88 F= -.85964064E+03 E0= -.85964064E+03  d E =-.447712E-03  mag=     0.0000
       N       E                     dE             d eps       ncg     rms          rms(c)
DAV:   1    -0.851754329510E+03    0.20949E-02   -0.90476E-01  4340   0.171E+00    0.183E-01
DAV:   2    -0.851756071785E+03   -0.17423E-02   -0.21497E-02  4680   0.233E-01    0.136E-01
DAV:   3    -0.851755981263E+03    0.90522E-04   -0.35164E-04  5500   0.364E-02    0.107E-01
DAV:   4    -0.851756029635E+03   -0.48372E-04   -0.50602E-04  4730   0.464E-02    0.315E-02
DAV:   5    -0.851756062438E+03   -0.32803E-04   -0.13398E-04  4940   0.189E-02    0.177E-02
DAV:   6    -0.851756062528E+03   -0.89807E-07   -0.18169E-05  4640   0.850E-03    0.771E-03
DAV:   7    -0.851756063309E+03   -0.78170E-06   -0.28719E-06  4480   0.313E-03
  89 F= -.85964007E+03 E0= -.85964007E+03  d E =0.563837E-03  mag=     0.0000
       N       E                     dE             d eps       ncg     rms          rms(c)
DAV:   1    -0.851757471243E+03   -0.14087E-02   -0.98209E-02  4560   0.626E-01    0.698E-02
DAV:   2    -0.851757667845E+03   -0.19660E-03   -0.26669E-03  4900   0.917E-02    0.646E-02
DAV:   3    -0.851757628706E+03    0.39139E-04   -0.92122E-05  5820   0.178E-02    0.522E-02
DAV:   4    -0.851757579865E+03    0.48841E-04   -0.10028E-04  4620   0.214E-02    0.216E-02
DAV:   5    -0.851757578984E+03    0.88065E-06   -0.36587E-05  4850   0.106E-02    0.851E-03
DAV:   6    -0.851757579124E+03   -0.13965E-06   -0.33534E-06  3740   0.379E-03
  90 F= -.85964156E+03 E0= -.85964156E+03  d E =-.148403E-02  mag=     0.0000
       N       E                     dE             d eps       ncg     rms          rms(c)
DAV:   1    -0.851757608091E+03   -0.29106E-04   -0.22310E-04  4480   0.284E-02    0.384E-03
DAV:   2    -0.851757608381E+03   -0.29006E-06   -0.55045E-06  4640   0.414E-03
  91 F= -.85964158E+03 E0= -.85964158E+03  d E =-.265856E-04  mag=     0.0000
       N       E                     dE             d eps       ncg     rms          rms(c)
DAV:   1    -0.851757648348E+03   -0.40257E-04   -0.73948E-04  4400   0.510E-02    0.761E-03
DAV:   2    -0.851757649258E+03   -0.91024E-06   -0.17874E-05  5240   0.720E-03    0.678E-03
DAV:   3    -0.851757648765E+03    0.49256E-06   -0.66622E-07  2860   0.174E-03
  92 F= -.85964162E+03 E0= -.85964162E+03  d E =-.346778E-04  mag=    -0.0000
       N       E                     dE             d eps       ncg     rms          rms(c)
DAV:   1    -0.851757683181E+03   -0.33923E-04   -0.11572E-03  4400   0.616E-02    0.792E-03
DAV:   2    -0.851757684980E+03   -0.17998E-05   -0.24732E-05  5140   0.805E-03    0.670E-03
DAV:   3    -0.851757684805E+03    0.17547E-06   -0.53364E-07  3120   0.153E-03
  93 F= -.85964165E+03 E0= -.85964165E+03  d E =-.266441E-04  mag=    -0.0000
       N       E                     dE             d eps       ncg     rms          rms(c)
DAV:   1    -0.851757721369E+03   -0.36389E-04   -0.13756E-03  4360   0.627E-02    0.826E-03
DAV:   2    -0.851757723243E+03   -0.18738E-05   -0.26457E-05  4840   0.770E-03    0.642E-03
DAV:   3    -0.851757723222E+03    0.20860E-07   -0.46723E-07  3360   0.143E-03
  94 F= -.85964167E+03 E0= -.85964167E+03  d E =-.250045E-04  mag=     0.0000
       N       E                     dE             d eps       ncg     rms          rms(c)
DAV:   1    -0.851757781881E+03   -0.58638E-04   -0.17074E-03  4360   0.665E-02    0.922E-03
DAV:   2    -0.851757783796E+03   -0.19147E-05   -0.29451E-05  4500   0.767E-03    0.666E-03
DAV:   3    -0.851757783911E+03   -0.11535E-06   -0.45288E-07  3280   0.142E-03
  95 F= -.85964171E+03 E0= -.85964171E+03  d E =-.432351E-04  mag=     0.0000
       N       E                     dE             d eps       ncg     rms          rms(c)
DAV:   1    -0.851757869391E+03   -0.85595E-04   -0.25262E-03  4380   0.826E-02    0.112E-02
DAV:   2    -0.851757872198E+03   -0.28066E-05   -0.43318E-05  4440   0.958E-03    0.806E-03
DAV:   3    -0.851757872299E+03   -0.10093E-06   -0.73758E-07  3340   0.182E-03
  96 F= -.85964178E+03 E0= -.85964178E+03  d E =-.668345E-04  mag=    -0.0000
       N       E                     dE             d eps       ncg     rms          rms(c)
DAV:   1    -0.851757980798E+03   -0.10860E-03   -0.49418E-03  4340   0.118E-01    0.156E-02
DAV:   2    -0.851757986740E+03   -0.59418E-05   -0.88242E-05  4440   0.142E-02    0.114E-02
DAV:   3    -0.851757986714E+03    0.25757E-07   -0.17064E-06  3970   0.270E-03
  97 F= -.85964187E+03 E0= -.85964187E+03  d E =-.854735E-04  mag=     0.0000
       N       E                     dE             d eps       ncg     rms          rms(c)
DAV:   1    -0.851758105009E+03   -0.11827E-03   -0.92750E-03  4360   0.161E-01    0.214E-02
DAV:   2    -0.851758115898E+03   -0.10889E-04   -0.16349E-04  4420   0.191E-02    0.154E-02
DAV:   3    -0.851758116162E+03   -0.26409E-06   -0.30143E-06  4210   0.354E-03
  98 F= -.85964196E+03 E0= -.85964196E+03  d E =-.914554E-04  mag=     0.0000
       N       E                     dE             d eps       ncg     rms          rms(c)
DAV:   1    -0.851758264523E+03   -0.14863E-03   -0.16641E-02  4360   0.212E-01    0.282E-02
DAV:   2    -0.851758283786E+03   -0.19263E-04   -0.29151E-04  4360   0.251E-02    0.199E-02
DAV:   3    -0.851758284763E+03   -0.97661E-06   -0.47690E-06  4360   0.442E-03
  99 F= -.85964208E+03 E0= -.85964208E+03  d E =-.120088E-03  mag=    -0.0000
       N       E                     dE             d eps       ncg     rms          rms(c)
DAV:   1    -0.851758480591E+03   -0.19680E-03   -0.25074E-02  4360   0.257E-01    0.346E-02
DAV:   2    -0.851758509877E+03   -0.29286E-04   -0.44615E-04  4380   0.306E-02    0.246E-02
DAV:   3    -0.851758511421E+03   -0.15440E-05   -0.74033E-06  5000   0.539E-03    0.179E-02
DAV:   4    -0.851758519676E+03   -0.82551E-05   -0.11756E-05  4220   0.688E-03    0.372E-03
DAV:   5    -0.851758519888E+03   -0.21173E-06   -0.30331E-06  4060   0.296E-03
 100 F= -.85964226E+03 E0= -.85964226E+03  d E =-.177674E-03  mag=     0.0000
       N       E                     dE             d eps       ncg     rms          rms(c)
DAV:   1    -0.851758711244E+03   -0.19157E-03   -0.29152E-02  4380   0.273E-01    0.364E-02
DAV:   2    -0.851758749540E+03   -0.38296E-04   -0.55676E-04  4420   0.333E-02    0.260E-02
DAV:   3    -0.851758749024E+03    0.51576E-06   -0.94679E-06  5100   0.608E-03
 101 F= -.85964242E+03 E0= -.85964242E+03  d E =-.167157E-03  mag=     0.0000
       N       E                     dE             d eps       ncg     rms          rms(c)
DAV:   1    -0.851758759599E+03   -0.10059E-04   -0.12902E-04  4320   0.219E-02    0.463E-03
DAV:   2    -0.851758760180E+03   -0.58103E-06   -0.79073E-06  4700   0.482E-03
 102 F= -.85964243E+03 E0= -.85964243E+03  d E =-.118045E-04  mag=     0.0000
       N       E                     dE             d eps       ncg     rms          rms(c)
DAV:   1    -0.851758763748E+03   -0.41492E-05   -0.35911E-04  4360   0.358E-02    0.425E-03
DAV:   2    -0.851758764459E+03   -0.71058E-06   -0.85265E-06  4580   0.486E-03
 103 F= -.85964244E+03 E0= -.85964244E+03  d E =-.552828E-05  mag=     0.0000
       N       E                     dE             d eps       ncg     rms          rms(c)
DAV:   1    -0.851758764168E+03   -0.42024E-06   -0.80543E-04  4400   0.529E-02    0.652E-03
DAV:   2    -0.851758765499E+03   -0.13304E-05   -0.18690E-05  4680   0.708E-03    0.530E-03
DAV:   3    -0.851758765313E+03    0.18609E-06   -0.34204E-07  2940   0.130E-03
 104 F= -.85964244E+03 E0= -.85964244E+03  d E =-.295547E-05  mag=    -0.0000
       N       E                     dE             d eps       ncg     rms          rms(c)
DAV:   1    -0.851758759563E+03    0.59362E-05   -0.13755E-03  4380   0.681E-02    0.679E-03
DAV:   2    -0.851758762123E+03   -0.25598E-05   -0.30248E-05  4580   0.870E-03    0.493E-03
DAV:   3    -0.851758762054E+03    0.68852E-07   -0.29301E-07  2940   0.120E-03
 105 F= -.85964244E+03 E0= -.85964244E+03  d E =0.341147E-06  mag=    -0.0000
       N       E                     dE             d eps       ncg     rms          rms(c)
DAV:   1    -0.851758748582E+03    0.13540E-04   -0.21014E-03  4400   0.833E-02    0.803E-03
DAV:   2    -0.851758752532E+03   -0.39500E-05   -0.46149E-05  4400   0.106E-02    0.556E-03
DAV:   3    -0.851758752451E+03    0.80960E-07   -0.41028E-07  3190   0.141E-03
 106 F= -.85964244E+03 E0= -.85964244E+03  d E =0.562485E-05  mag=     0.0000
       N       E                     dE             d eps       ncg     rms          rms(c)
DAV:   1    -0.851758736723E+03    0.15810E-04   -0.29529E-03  4380   0.984E-02    0.952E-03
DAV:   2    -0.851758742161E+03   -0.54385E-05   -0.64132E-05  4360   0.124E-02    0.651E-03
DAV:   3    -0.851758742075E+03    0.85725E-07   -0.55170E-07  3300   0.163E-03
 107 F= -.85964243E+03 E0= -.85964243E+03  d E =0.536127E-05  mag=     0.0000
       N       E                     dE             d eps       ncg     rms          rms(c)
DAV:   1    -0.851758721319E+03    0.20842E-04   -0.50330E-03  4380   0.129E-01    0.124E-02
DAV:   2    -0.851758730553E+03   -0.92338E-05   -0.10949E-04  4360   0.163E-02    0.846E-03
DAV:   3    -0.851758730385E+03    0.16831E-06   -0.10408E-06  3890   0.215E-03
 108 F= -.85964243E+03 E0= -.85964243E+03  d E =0.457805E-05  mag=     0.0000
       N       E                     dE             d eps       ncg     rms          rms(c)
DAV:   1    -0.851758694336E+03    0.36217E-04   -0.83141E-03  4380   0.166E-01    0.161E-02
DAV:   2    -0.851758709349E+03   -0.15013E-04   -0.18016E-04  4320   0.210E-02    0.111E-02
DAV:   3    -0.851758709043E+03    0.30550E-06   -0.18877E-06  4270   0.284E-03
 109 F= -.85964242E+03 E0= -.85964242E+03  d E =0.112410E-04  mag=    -0.0000
       N       E                     dE             d eps       ncg     rms          rms(c)
DAV:   1    -0.851758643077E+03    0.66272E-04   -0.13239E-02  4380   0.210E-01    0.207E-02
DAV:   2    -0.851758666207E+03   -0.23130E-04   -0.28264E-04  4340   0.266E-02    0.144E-02
DAV:   3    -0.851758665768E+03    0.43909E-06   -0.32443E-06  4690   0.366E-03
 110 F= -.85964239E+03 E0= -.85964239E+03  d E =0.292954E-04  mag=     0.0000
       N       E                     dE             d eps       ncg     rms          rms(c)
DAV:   1    -0.851758575426E+03    0.90780E-04   -0.20752E-02  4380   0.262E-01    0.261E-02
DAV:   2    -0.851758610337E+03   -0.34911E-04   -0.43543E-04  4320   0.331E-02    0.183E-02
DAV:   3    -0.851758609741E+03    0.59642E-06   -0.51694E-06  4990   0.460E-03
 111 F= -.85964235E+03 E0= -.85964235E+03  d E =0.374924E-04  mag=    -0.0000
       N       E                     dE             d eps       ncg     rms          rms(c)
DAV:   1    -0.851758494111E+03    0.11623E-03   -0.32499E-02  4380   0.329E-01    0.328E-02
DAV:   2    -0.851758547755E+03   -0.53644E-04   -0.67709E-04  4320   0.414E-02    0.230E-02
DAV:   3    -0.851758547001E+03    0.75349E-06   -0.81787E-06  5180   0.576E-03
 112 F= -.85964231E+03 E0= -.85964231E+03  d E =0.397388E-04  mag=    -0.0000
       N       E                     dE             d eps       ncg     rms          rms(c)
DAV:   1    -0.851758397213E+03    0.15054E-03   -0.49837E-02  4380   0.408E-01    0.409E-02
DAV:   2    -0.851758477971E+03   -0.80758E-04   -0.10340E-03  4320   0.514E-02    0.289E-02
DAV:   3    -0.851758477177E+03    0.79397E-06   -0.12985E-05  5340   0.725E-03    0.219E-02
DAV:   4    -0.851758487110E+03   -0.99324E-05   -0.17652E-05  4220   0.921E-03    0.449E-03
DAV:   5    -0.851758487571E+03   -0.46147E-06   -0.50824E-06  4720   0.386E-03
 113 F= -.85964228E+03 E0= -.85964228E+03  d E =0.317941E-04  mag=     0.0000
       N       E                     dE             d eps       ncg     rms          rms(c)
DAV:   1    -0.851758266944E+03    0.22017E-03   -0.75647E-02  4380   0.502E-01    0.484E-02
DAV:   2    -0.851758398360E+03   -0.13142E-03   -0.16474E-03  4320   0.652E-02    0.336E-02
DAV:   3    -0.851758394270E+03    0.40900E-05   -0.21384E-05  5220   0.936E-03    0.254E-02
DAV:   4    -0.851758403986E+03   -0.97165E-05   -0.30542E-05  4520   0.117E-02    0.584E-03
DAV:   5    -0.851758404678E+03   -0.69181E-06   -0.78425E-06  4740   0.492E-03
 114 F= -.85964223E+03 E0= -.85964223E+03  d E =0.507719E-04  mag=     0.0000
       N       E                     dE             d eps       ncg     rms          rms(c)
DAV:   1    -0.851758143022E+03    0.26096E-03   -0.10262E-01  4380   0.586E-01    0.564E-02
DAV:   2    -0.851758320809E+03   -0.17779E-03   -0.22231E-03  4320   0.760E-02    0.394E-02
DAV:   3    -0.851758314434E+03    0.63747E-05   -0.29923E-05  5220   0.110E-02    0.298E-02
DAV:   4    -0.851758326446E+03   -0.12011E-04   -0.42223E-05  4760   0.137E-02    0.690E-03
DAV:   5    -0.851758327356E+03   -0.91054E-06   -0.10320E-05  4780   0.560E-03    0.338E-03
DAV:   6    -0.851758327555E+03   -0.19863E-06   -0.83560E-07  3040   0.177E-03
 115 F= -.85964218E+03 E0= -.85964218E+03  d E =0.430065E-04  mag=    -0.0000
       N       E                     dE             d eps       ncg     rms          rms(c)
DAV:   1    -0.851758058517E+03    0.26884E-03   -0.12311E-01  4380   0.643E-01    0.610E-02
DAV:   2    -0.851758275812E+03   -0.21730E-03   -0.26726E-03  4320   0.836E-02    0.432E-02
DAV:   3    -0.851758265983E+03    0.98287E-05   -0.36235E-05  5260   0.121E-02    0.328E-02
DAV:   4    -0.851758277045E+03   -0.11062E-04   -0.51921E-05  4800   0.152E-02    0.756E-03
DAV:   5    -0.851758278017E+03   -0.97216E-06   -0.12423E-05  4720   0.615E-03    0.368E-03
DAV:   6    -0.851758278236E+03   -0.21839E-06   -0.10444E-06  3260   0.199E-03
 116 F= -.85964216E+03 E0= -.85964216E+03  d E =0.243554E-04  mag=     0.0000
       N       E                     dE             d eps       ncg     rms          rms(c)
DAV:   1    -0.851758288850E+03   -0.10833E-04   -0.39911E-05  4460   0.114E-02    0.169E-03
DAV:   2    -0.851758288909E+03   -0.58855E-07   -0.77621E-07  3080   0.152E-03
 117 F= -.85964217E+03 E0= -.85964217E+03  d E =-.870776E-05  mag=     0.0000
       N       E                     dE             d eps       ncg     rms          rms(c)
DAV:   1    -0.851758308620E+03   -0.19771E-04   -0.15303E-04  4440   0.217E-02    0.336E-03
DAV:   2    -0.851758308785E+03   -0.16434E-06   -0.28764E-06  3380   0.274E-03
 118 F= -.85964218E+03 E0= -.85964218E+03  d E =-.158817E-04  mag=     0.0000
       N       E                     dE             d eps       ncg     rms          rms(c)
DAV:   1    -0.851758335794E+03   -0.27174E-04   -0.31366E-04  4420   0.300E-02    0.533E-03
DAV:   2    -0.851758336007E+03   -0.21260E-06   -0.56862E-06  3940   0.364E-03
 119 F= -.85964220E+03 E0= -.85964220E+03  d E =-.210357E-04  mag=     0.0000
       N       E                     dE             d eps       ncg     rms          rms(c)
DAV:   1    -0.851758370100E+03   -0.34306E-04   -0.50664E-04  4360   0.364E-02    0.708E-03
DAV:   2    -0.851758370384E+03   -0.28342E-06   -0.88749E-06  4080   0.426E-03
 120 F= -.85964223E+03 E0= -.85964223E+03  d E =-.260566E-04  mag=     0.0000
       N       E                     dE             d eps       ncg     rms          rms(c)
DAV:   1    -0.851758412544E+03   -0.42443E-04   -0.74303E-04  4370   0.426E-02    0.873E-03
DAV:   2    -0.851758412945E+03   -0.40067E-06   -0.12785E-05  4140   0.487E-03    0.657E-03
DAV:   3    -0.851758413298E+03   -0.35342E-06   -0.37995E-07  2800   0.136E-03
 121 F= -.85964226E+03 E0= -.85964226E+03  d E =-.325048E-04  mag=     0.0000
       N       E                     dE             d eps       ncg     rms          rms(c)
DAV:   1    -0.851758463704E+03   -0.50760E-04   -0.10299E-03  4360   0.497E-02    0.719E-03
DAV:   2    -0.851758464919E+03   -0.12144E-05   -0.17911E-05  4340   0.564E-03    0.500E-03
DAV:   3    -0.851758465045E+03   -0.12632E-06   -0.23311E-07  3160   0.994E-04
 122 F= -.85964230E+03 E0= -.85964230E+03  d E =-.393580E-04  mag=     0.0000
       N       E                     dE             d eps       ncg     rms          rms(c)
DAV:   1    -0.851758527464E+03   -0.62546E-04   -0.16921E-03  4360   0.639E-02    0.897E-03
DAV:   2    -0.851758529590E+03   -0.21259E-05   -0.30535E-05  4480   0.747E-03    0.628E-03
DAV:   3    -0.851758529695E+03   -0.10450E-06   -0.41043E-07  3200   0.130E-03
 123 F= -.85964235E+03 E0= -.85964235E+03  d E =-.491452E-04  mag=    -0.0000
       N       E                     dE             d eps       ncg     rms          rms(c)
DAV:   1    -0.851758603770E+03   -0.74180E-04   -0.25671E-03  4360   0.799E-02    0.111E-02
DAV:   2    -0.851758607006E+03   -0.32361E-05   -0.46323E-05  4440   0.944E-03    0.783E-03
DAV:   3    -0.851758607137E+03   -0.13152E-06   -0.63286E-07  3360   0.163E-03
 124 F= -.85964241E+03 E0= -.85964241E+03  d E =-.586274E-04  mag=     0.0000
