<?xml version="1.0" encoding="ISO-8859-1"?>
<modeling>
 <generator>
  <i name="program" type="string">vasp </i>
  <i name="version" type="string">6.4.2  </i>
  <i name="subversion" type="string">20Jul23 (build Aug 26 2025 15:10:52) complex                          parallel </i>
  <i name="platform" type="string">LinuxIFC </i>
  <i name="date" type="string">2025 12 16 </i>
  <i name="time" type="string">07:56:45 </i>
 </generator>
 <incar>
  <i type="int" name="ISTART">     0</i>
  <i type="string" name="ALGO">Normal</i>
  <i type="logical" name="ADDGRID"> T  </i>
  <i type="int" name="ISPIN">     2</i>
  <i type="int" name="IMIX">     4</i>
  <i name="AMIX">      0.20000000</i>
  <i name="BMIX">      0.00010000</i>
  <i name="AMIX_MAG">      0.80000000</i>
  <i name="BMIX_MAG">      0.00010000</i>
  <i type="int" name="ICHARG">     2</i>
  <i type="int" name="NELM">   200</i>
  <i type="int" name="IBRION">     3</i>
  <i name="EDIFF">      0.00000100</i>
  <i name="EDIFFG">     -0.03000000</i>
  <i type="int" name="NSW">  1000</i>
  <i type="int" name="ISIF">     2</i>
  <i type="int" name="ISYM">     0</i>
  <i name="ENCUT">    520.00000000</i>
  <i name="POTIM">      0.00000000</i>
  <v name="MAGMOM">      0.60000000      0.60000000      0.60000000      0.60000000      0.60000000      0.60000000      0.60000000      0.60000000      0.60000000      0.60000000      0.60000000      0.60000000      0.60000000      0.60000000      0.60000000      0.60000000      0.60000000      0.60000000      0.60000000      0.60000000
      0.60000000      0.60000000      0.60000000      0.60000000      0.60000000      0.60000000      0.60000000      0.60000000      0.60000000      0.60000000      0.60000000      0.60000000      0.60000000      0.60000000      0.60000000      0.60000000      0.60000000      0.60000000      0.60000000      0.60000000
      0.60000000      0.60000000      0.60000000      0.60000000      0.60000000      0.60000000      0.60000000      0.60000000      0.60000000      0.60000000      0.60000000      0.60000000      0.60000000      0.60000000      0.60000000      0.60000000      0.60000000      0.60000000      0.60000000      0.60000000
      0.60000000      0.60000000      0.60000000      0.60000000      0.60000000      0.60000000      0.60000000      0.60000000      0.60000000      0.60000000      0.60000000      0.60000000      0.60000000      0.60000000      0.60000000      0.60000000      0.60000000      0.60000000      0.60000000      0.60000000
      0.60000000      0.60000000      0.60000000      0.60000000      0.60000000      0.60000000      0.60000000      0.60000000      0.60000000      0.60000000      0.60000000      0.60000000      0.60000000      0.60000000      0.60000000      0.60000000      0.60000000      0.60000000      0.60000000</v>
  <i type="string" name="LREAL">Auto</i>
  <i type="int" name="ISMEAR">     0</i>
  <i name="SIGMA">      0.05000000</i>
  <i type="logical" name="LWAVE"> F  </i>
  <i type="logical" name="LCHARG"> F  </i>
  <i type="logical" name="LASPH"> T  </i>
  <i type="int" name="IVDW">    12</i>
  <i name="SPRING">     -5.00000000</i>
 </incar>
 <primitive_cell>
  <structure name="primitive_cell" >
   <crystal>
    <varray name="basis" >
     <v>      17.27103806       0.00000000       0.00000000 </v>
     <v>      -8.63551903      14.95715771       0.00000000 </v>
     <v>       0.00000000       0.00000000      15.00000000 </v>
    </varray>
    <i name="volume">   3874.88459904 </i>
    <varray name="rec_basis" >
     <v>       0.05790040       0.03342881       0.00000000 </v>
     <v>       0.00000000       0.06685762       0.00000000 </v>
     <v>       0.00000000       0.00000000       0.06666667 </v>
    </varray>
   </crystal>
   <varray name="positions" >
    <v>       0.00057461       0.00085551       0.50141795 </v>
    <v>       0.00021647       0.14355323       0.50294342 </v>
    <v>       0.00020164       0.28645769       0.50326450 </v>
    <v>       0.00070209       0.42954476       0.50211101 </v>
    <v>       0.00144816       0.57264796       0.50045069 </v>
    <v>       0.00235410       0.71590619       0.49930508 </v>
    <v>       0.00186559       0.85887889       0.49967039 </v>
    <v>       0.14390138       0.00148663       0.50566780 </v>
    <v>       0.14311763       0.14381894       0.50936742 </v>
    <v>       0.14233130       0.28600097       0.51263130 </v>
    <v>       0.14266366       0.42923968       0.51134300 </v>
    <v>       0.14384943       0.57234614       0.50715650 </v>
    <v>       0.14435602       0.71553162       0.50418360 </v>
    <v>       0.14428978       0.85867089       0.50331796 </v>
    <v>       0.28650716       0.00123047       0.50687837 </v>
    <v>       0.28624638       0.14383024       0.51267205 </v>
    <v>       0.28574453       0.28748470       0.52275357 </v>
    <v>       0.28358620       0.42816642       0.52796676 </v>
    <v>       0.28648010       0.57139436       0.51960183 </v>
    <v>       0.28659787       0.71571742       0.50995555 </v>
    <v>       0.28656940       0.85867506       0.50576538 </v>
    <v>       0.42940206       0.00157759       0.50528533 </v>
    <v>       0.42918940       0.14404992       0.50816679 </v>
    <v>       0.42747318       0.28372234       0.51493260 </v>
    <v>       0.42772699       0.71758612       0.51193060 </v>
    <v>       0.42911470       0.85887599       0.50616039 </v>
    <v>       0.57204648       0.00199868       0.50219669 </v>
    <v>       0.57212985       0.14415128       0.50335502 </v>
    <v>       0.57296662       0.28742239       0.50383481 </v>
    <v>       0.57267628       0.85994990       0.50198468 </v>
    <v>       0.71491903       0.00136204       0.49838075 </v>
    <v>       0.71507666       0.14418849       0.49929512 </v>
    <v>       0.71511066       0.28685476       0.49984165 </v>
    <v>       0.71483328       0.42875921       0.49841693 </v>
    <v>       0.71917920       0.57404675       0.49765948 </v>
    <v>       0.72139909       0.71683609       0.49718859 </v>
    <v>       0.71369254       0.85832058       0.49740096 </v>
    <v>       0.85769759       0.00100791       0.49796260 </v>
    <v>       0.85758336       0.14384494       0.49875560 </v>
    <v>       0.85773969       0.28663996       0.49907967 </v>
    <v>       0.85834390       0.42962786       0.49853052 </v>
    <v>       0.85925694       0.57295699       0.49720970 </v>
    <v>       0.86086360       0.71638919       0.49664222 </v>
    <v>       0.85817617       0.85787917       0.49704990 </v>
    <v>       0.04805427       0.09610857       0.50439350 </v>
    <v>       0.04730650       0.23846880       0.50587463 </v>
    <v>       0.04759929       0.38162870       0.50510683 </v>
    <v>       0.04880844       0.52487227       0.50295046 </v>
    <v>       0.04930482       0.66799984       0.50115514 </v>
    <v>       0.04925347       0.81105169       0.50065970 </v>
    <v>       0.04872755       0.95371840       0.50215926 </v>
    <v>       0.19104315       0.09623242       0.50971041 </v>
    <v>       0.19023094       0.23878224       0.51477038 </v>
    <v>       0.18888289       0.38081072       0.51680553 </v>
    <v>       0.19088121       0.52446707       0.51237058 </v>
    <v>       0.19152342       0.66791913       0.50745676 </v>
    <v>       0.19171270       0.81098747       0.50446742 </v>
    <v>       0.19157588       0.95376203       0.50540963 </v>
    <v>       0.33407163       0.09658817       0.50936214 </v>
    <v>       0.33442903       0.23895134       0.51788710 </v>
    <v>       0.32923579       0.37978653       0.53312622 </v>
    <v>       0.32975971       0.52241984       0.53038669 </v>
    <v>       0.33486530       0.66876251       0.51460450 </v>
    <v>       0.33411644       0.81089822       0.50730757 </v>
    <v>       0.33403438       0.95375058       0.50588828 </v>
    <v>       0.47696272       0.09656939       0.50541703 </v>
    <v>       0.47616960       0.23917156       0.50891692 </v>
    <v>       0.47613853       0.81092772       0.50657882 </v>
    <v>       0.47692502       0.95417794       0.50430244 </v>
    <v>       0.61967537       0.09680257       0.50135998 </v>
    <v>       0.61998937       0.23934218       0.50243389 </v>
    <v>       0.62178606       0.38061102       0.50007315 </v>
    <v>       0.62072619       0.81506191       0.49915053 </v>
    <v>       0.61981050       0.95465325       0.50061846 </v>
    <v>       0.76263750       0.09665938       0.49829308 </v>
    <v>       0.76273728       0.23913624       0.49903182 </v>
    <v>       0.76307260       0.38190084       0.49881153 </v>
    <v>       0.76361910       0.52588263       0.49725035 </v>
    <v>       0.76591883       0.66778197       0.49686718 </v>
    <v>       0.76179970       0.80935128       0.49670143 </v>
    <v>       0.76250903       0.95372807       0.49750396 </v>
    <v>       0.90505145       0.09589554       0.49939932 </v>
    <v>       0.90509067       0.23893290       0.49987396 </v>
    <v>       0.90551419       0.38203482       0.49951921 </v>
    <v>       0.90637090       0.52514331       0.49836691 </v>
    <v>       0.90730058       0.66811677       0.49730329 </v>
    <v>       0.90669374       0.81118519       0.49734865 </v>
    <v>       0.90532177       0.95303360       0.49842542 </v>
    <v>       0.46337564       0.35626067       0.51529197 </v>
    <v>       0.40129343       0.41802396       0.54249976 </v>
    <v>       0.40190570       0.55595941       0.53999757 </v>
    <v>       0.64680308       0.53961470       0.49884136 </v>
    <v>       0.58552795       0.41682662       0.49736373 </v>
    <v>       0.58355203       0.74323851       0.49889814 </v>
    <v>       0.46392625       0.68125382       0.51355077 </v>
    <v>       0.45438096       0.48289531       0.39249164 </v>
    <v>       0.54508392       0.56056442       0.42600136 </v>
    <v>       0.62929258       0.66370881       0.49900388 </v>
    <v>       0.50947261       0.49568764       0.42235436 </v>
   </varray>
  </structure>
  <varray name="primitive_index" >
   <v type="int" >        1 </v>
   <v type="int" >        2 </v>
   <v type="int" >        3 </v>
   <v type="int" >        4 </v>
   <v type="int" >        5 </v>
   <v type="int" >        6 </v>
   <v type="int" >        7 </v>
   <v type="int" >        8 </v>
   <v type="int" >        9 </v>
   <v type="int" >       10 </v>
   <v type="int" >       11 </v>
   <v type="int" >       12 </v>
   <v type="int" >       13 </v>
   <v type="int" >       14 </v>
   <v type="int" >       15 </v>
   <v type="int" >       16 </v>
   <v type="int" >       17 </v>
   <v type="int" >       18 </v>
   <v type="int" >       19 </v>
   <v type="int" >       20 </v>
   <v type="int" >       21 </v>
   <v type="int" >       22 </v>
   <v type="int" >       23 </v>
   <v type="int" >       24 </v>
   <v type="int" >       25 </v>
   <v type="int" >       26 </v>
   <v type="int" >       27 </v>
   <v type="int" >       28 </v>
   <v type="int" >       29 </v>
   <v type="int" >       30 </v>
   <v type="int" >       31 </v>
   <v type="int" >       32 </v>
   <v type="int" >       33 </v>
   <v type="int" >       34 </v>
   <v type="int" >       35 </v>
   <v type="int" >       36 </v>
   <v type="int" >       37 </v>
   <v type="int" >       38 </v>
   <v type="int" >       39 </v>
   <v type="int" >       40 </v>
   <v type="int" >       41 </v>
   <v type="int" >       42 </v>
   <v type="int" >       43 </v>
   <v type="int" >       44 </v>
   <v type="int" >       45 </v>
   <v type="int" >       46 </v>
   <v type="int" >       47 </v>
   <v type="int" >       48 </v>
   <v type="int" >       49 </v>
   <v type="int" >       50 </v>
   <v type="int" >       51 </v>
   <v type="int" >       52 </v>
   <v type="int" >       53 </v>
   <v type="int" >       54 </v>
   <v type="int" >       55 </v>
   <v type="int" >       56 </v>
   <v type="int" >       57 </v>
   <v type="int" >       58 </v>
   <v type="int" >       59 </v>
   <v type="int" >       60 </v>
   <v type="int" >       61 </v>
   <v type="int" >       62 </v>
   <v type="int" >       63 </v>
   <v type="int" >       64 </v>
   <v type="int" >       65 </v>
   <v type="int" >       66 </v>
   <v type="int" >       67 </v>
   <v type="int" >       68 </v>
   <v type="int" >       69 </v>
   <v type="int" >       70 </v>
   <v type="int" >       71 </v>
   <v type="int" >       72 </v>
   <v type="int" >       73 </v>
   <v type="int" >       74 </v>
   <v type="int" >       75 </v>
   <v type="int" >       76 </v>
   <v type="int" >       77 </v>
   <v type="int" >       78 </v>
   <v type="int" >       79 </v>
   <v type="int" >       80 </v>
   <v type="int" >       81 </v>
   <v type="int" >       82 </v>
   <v type="int" >       83 </v>
   <v type="int" >       84 </v>
   <v type="int" >       85 </v>
   <v type="int" >       86 </v>
   <v type="int" >       87 </v>
   <v type="int" >       88 </v>
   <v type="int" >       89 </v>
   <v type="int" >       90 </v>
   <v type="int" >       91 </v>
   <v type="int" >       92 </v>
   <v type="int" >       93 </v>
   <v type="int" >       94 </v>
   <v type="int" >       95 </v>
   <v type="int" >       96 </v>
   <v type="int" >       97 </v>
   <v type="int" >       98 </v>
   <v type="int" >       99 </v>
  </varray>
 </primitive_cell>
 <kpoints>
  <generation param="Gamma">
   <v type="int" name="divisions">       2        2        1 </v>
   <v name="usershift">      0.00000000       0.00000000       0.00000000 </v>
   <v name="genvec1">      0.50000000       0.00000000       0.00000000 </v>
   <v name="genvec2">      0.00000000       0.50000000       0.00000000 </v>
   <v name="genvec3">      0.00000000       0.00000000       1.00000000 </v>
   <v name="shift">      0.00000000       0.00000000       0.00000000 </v>
  </generation>
  <varray name="kpointlist" >
   <v>       0.00000000       0.00000000       0.00000000 </v>
   <v>       0.50000000       0.00000000       0.00000000 </v>
   <v>       0.00000000       0.50000000       0.00000000 </v>
   <v>       0.50000000       0.50000000       0.00000000 </v>
  </varray>
  <varray name="weights" >
   <v>       0.25000000 </v>
   <v>       0.25000000 </v>
   <v>       0.25000000 </v>
   <v>       0.25000000 </v>
  </varray>
 </kpoints>
 <parameters>
  <separator name="general" >
   <i type="string" name="SYSTEM">unknown system</i>
   <i type="logical" name="LCOMPAT"> F  </i>
  </separator>
  <separator name="electronic" >
   <i type="string" name="PREC">normal</i>
   <i name="ENMAX">    520.00000000</i>
   <i name="ENAUG">    644.87300000</i>
   <i name="EDIFF">      0.00000100</i>
   <i type="int" name="IALGO">    38</i>
   <i type="int" name="IWAVPR">    11</i>
   <i type="int" name="NBANDS">   270</i>
   <i type="int" name="NBANDSLOW">    -1</i>
   <i type="int" name="NBANDSHIGH">    -1</i>
   <i name="NELECT">    374.00000000</i>
   <i type="int" name="TURBO">     0</i>
   <i type="int" name="IRESTART">     0</i>
   <i type="int" name="NREBOOT">     0</i>
   <i type="int" name="NMIN">     0</i>
   <i name="EREF">      0.00000000</i>
   <separator name="electronic smearing" >
    <i type="int" name="ISMEAR">     0</i>
    <i name="SIGMA">      0.05000000</i>
    <i name="KSPACING">      0.50000000</i>
    <i type="logical" name="KGAMMA"> T  </i>
    <i type="logical" name="KBLOWUP"> T  </i>
   </separator>
   <separator name="electronic projectors" >
    <i type="logical" name="LREAL"> T  </i>
    <v name="ROPT">     -0.00050000     -0.00050000     -0.00050000     -0.00050000</v>
    <i type="int" name="LMAXPAW">  -100</i>
    <i type="int" name="LMAXMIX">     2</i>
    <i type="logical" name="NLSPLINE"> F  </i>
   </separator>
   <separator name="electronic startup" >
    <i type="int" name="ISTART">     0</i>
    <i type="int" name="ICHARG">     2</i>
    <i type="int" name="INIWAV">     1</i>
   </separator>
   <separator name="electronic spin" >
    <i type="int" name="ISPIN">     2</i>
    <i type="logical" name="LNONCOLLINEAR"> F  </i>
    <v name="MAGMOM">      0.60000000      0.60000000      0.60000000      0.60000000      0.60000000      0.60000000      0.60000000      0.60000000      0.60000000      0.60000000      0.60000000      0.60000000      0.60000000      0.60000000      0.60000000      0.60000000      0.60000000      0.60000000      0.60000000      0.60000000
      0.60000000      0.60000000      0.60000000      0.60000000      0.60000000      0.60000000      0.60000000      0.60000000      0.60000000      0.60000000      0.60000000      0.60000000      0.60000000      0.60000000      0.60000000      0.60000000      0.60000000      0.60000000      0.60000000      0.60000000
      0.60000000      0.60000000      0.60000000      0.60000000      0.60000000      0.60000000      0.60000000      0.60000000      0.60000000      0.60000000      0.60000000      0.60000000      0.60000000      0.60000000      0.60000000      0.60000000      0.60000000      0.60000000      0.60000000      0.60000000
      0.60000000      0.60000000      0.60000000      0.60000000      0.60000000      0.60000000      0.60000000      0.60000000      0.60000000      0.60000000      0.60000000      0.60000000      0.60000000      0.60000000      0.60000000      0.60000000      0.60000000      0.60000000      0.60000000      0.60000000
      0.60000000      0.60000000      0.60000000      0.60000000      0.60000000      0.60000000      0.60000000      0.60000000      0.60000000      0.60000000      0.60000000      0.60000000      0.60000000      0.60000000      0.60000000      0.60000000      0.60000000      0.60000000      0.60000000</v>
    <i name="NUPDOWN">     -1.00000000</i>
    <i type="logical" name="LSORBIT"> F  </i>
    <v name="SAXIS">      0.00000000      0.00000000      1.00000000</v>
    <i type="logical" name="LSPIRAL"> F  </i>
    <v name="QSPIRAL">      0.00000000      0.00000000      0.00000000</v>
    <i type="logical" name="LZEROZ"> F  </i>
   </separator>
   <separator name="electronic exchange-correlation" >
    <i type="logical" name="LASPH"> T  </i>
    <i type="logical" name="LMETAGGA"> F  </i>
   </separator>
   <separator name="electronic convergence" >
    <i type="int" name="NELM">   200</i>
    <i type="int" name="NELMDL">    -5</i>
    <i type="int" name="NELMIN">     2</i>
    <i name="ENINI">    520.00000000</i>
    <separator name="electronic convergence detail" >
     <i type="logical" name="LDIAG"> T  </i>
     <i type="logical" name="LSUBROT"> F  </i>
     <i name="WEIMIN">      0.00100000</i>
     <i name="EBREAK">      0.00000000</i>
     <i name="DEPER">      0.30000000</i>
     <i type="int" name="NRMM">     4</i>
     <i name="TIME">      0.40000000</i>
    </separator>
   </separator>
   <separator name="electronic mixer" >
    <i name="AMIX">      0.20000000</i>
    <i name="BMIX">      0.00010000</i>
    <i name="AMIN">      0.10000000</i>
    <i name="AMIX_MAG">      0.80000000</i>
    <i name="BMIX_MAG">      0.00010000</i>
    <separator name="electronic mixer details" >
     <i type="int" name="IMIX">     4</i>
     <i type="logical" name="MIXFIRST"> F  </i>
     <i type="int" name="MAXMIX">   -45</i>
     <i name="WC">    100.00000000</i>
     <i type="int" name="INIMIX">     1</i>
     <i type="int" name="MIXPRE">     1</i>
     <i type="int" name="MREMOVE">     5</i>
    </separator>
   </separator>
   <separator name="electronic dipolcorrection" >
    <i type="logical" name="LDIPOL"> F  </i>
    <i type="logical" name="LMONO"> F  </i>
    <i type="int" name="IDIPOL">     0</i>
    <i name="EPSILON">      1.00000000</i>
    <v name="DIPOL">   -100.00000000   -100.00000000   -100.00000000</v>
    <i name="EFIELD">      0.00000000</i>
   </separator>
  </separator>
  <separator name="grids" >
   <i type="int" name="NGX">    96</i>
   <i type="int" name="NGY">    96</i>
   <i type="int" name="NGZ">    84</i>
   <i type="int" name="NGXF">   192</i>
   <i type="int" name="NGYF">   192</i>
   <i type="int" name="NGZF">   168</i>
   <i type="logical" name="ADDGRID"> T  </i>
  </separator>
  <separator name="ionic" >
   <i type="int" name="NSW">  1000</i>
   <i type="int" name="IBRION">     3</i>
   <i type="int" name="MDALGO">     0</i>
   <i type="int" name="ISIF">     2</i>
   <i name="PSTRESS">      0.00000000</i>
   <i name="EDIFFG">     -0.03000000</i>
   <i type="int" name="NFREE">     0</i>
   <i name="POTIM">      0.00000000</i>
   <i name="SMASS">     -3.00000000</i>
   <i name="SCALEE">      1.00000000</i>
  </separator>
  <separator name="ionic md" >
   <i name="TEBEG">      0.00010000</i>
   <i name="TEEND">      0.00010000</i>
   <i type="int" name="NBLOCK">     1</i>
   <i type="int" name="KBLOCK">  1000</i>
   <i type="int" name="NPACO">   256</i>
   <i name="APACO">     10.00000000</i>
  </separator>
  <separator name="symmetry" >
   <i type="int" name="ISYM">     0</i>
   <i name="SYMPREC">      0.00001000</i>
  </separator>
  <separator name="dos" >
   <i type="int" name="LORBIT">     0</i>
   <v name="RWIGS">     -1.00000000     -1.00000000     -1.00000000     -1.00000000</v>
   <i type="int" name="NEDOS">   301</i>
   <i name="EMIN">     10.00000000</i>
   <i name="EMAX">    -10.00000000</i>
   <i name="EFERMI">      0.00000000</i>
  </separator>
  <separator name="writing" >
   <i type="int" name="NWRITE">     2</i>
   <i type="logical" name="LWAVE"> F  </i>
   <i type="logical" name="LDOWNSAMPLE"> F  </i>
   <i type="logical" name="LCHARG"> F  </i>
   <i type="logical" name="LPARD"> F  </i>
   <i type="logical" name="LVTOT"> F  </i>
   <i type="logical" name="LVHAR"> F  </i>
   <i type="logical" name="LELF"> F  </i>
   <i type="logical" name="LOPTICS"> F  </i>
   <v name="STM">      0.00000000      0.00000000      0.00000000      0.00000000      0.00000000      0.00000000      0.00000000</v>
  </separator>
  <separator name="performance" >
   <i type="int" name="NPAR">     5</i>
   <i type="int" name="NSIM">     4</i>
   <i type="int" name="NBLK">    -1</i>
   <i type="logical" name="LPLANE"> T  </i>
   <i type="logical" name="LSCALAPACK"> T  </i>
   <i type="logical" name="LSCAAWARE"> F  </i>
   <i type="logical" name="LSCALU"> F  </i>
   <i type="logical" name="LASYNC"> F  </i>
   <i type="logical" name="LORBITALREAL"> F  </i>
  </separator>
  <separator name="miscellaneous" >
   <i type="int" name="IDIOT">     3</i>
   <i type="int" name="PHON_NSTRUCT">    -1</i>
   <i type="logical" name="LMUSIC"> F  </i>
   <v name="POMASS">     12.01100000      1.00000000     18.99800000     16.00000000</v>
   <v name="DARWINR">      0.00000000      0.00000000      0.00000000      0.00000000</v>
   <v name="DARWINV">      1.00000000      1.00000000      1.00000000      1.00000000</v>
   <i type="logical" name="LCORR"> T  </i>
  </separator>
  <i type="logical" name="GGA_COMPAT"> T  </i>
  <i type="logical" name="LBERRY"> F  </i>
  <i type="int" name="ICORELEVEL">     0</i>
  <i type="logical" name="LDAU"> F  </i>
  <i type="int" name="I_CONSTRAINED_M">     0</i>
  <separator name="electronic exchange-correlation" >
   <i type="string" name="GGA">--</i>
   <i type="int" name="VOSKOWN">     0</i>
   <i type="logical" name="LHFCALC"> F  </i>
   <i type="string" name="PRECFOCK"></i>
   <i type="logical" name="LSYMGRAD"> F  </i>
   <i type="logical" name="LHFONE"> F  </i>
   <i type="logical" name="LRHFCALC"> F  </i>
   <i type="logical" name="LTHOMAS"> F  </i>
   <i type="logical" name="LMODELHF"> F  </i>
   <i type="logical" name="LFOCKACE"> F  </i>
   <i name="ENCUT4O">     -1.00000000</i>
   <i type="int" name="EXXOEP">     0</i>
   <i type="int" name="FOURORBIT">     0</i>
   <i name="AEXX">      0.00000000</i>
   <i name="HFALPHA">      0.00000000</i>
   <i name="MCALPHA">      0.00000000</i>
   <i name="ALDAX">      1.00000000</i>
   <i name="AGGAX">      1.00000000</i>
   <i name="ALDAC">      1.00000000</i>
   <i name="AGGAC">      1.00000000</i>
   <i type="int" name="NKREDX">     1</i>
   <i type="int" name="NKREDY">     1</i>
   <i type="int" name="NKREDZ">     1</i>
   <i type="logical" name="SHIFTRED"> F  </i>
   <i type="logical" name="ODDONLY"> F  </i>
   <i type="logical" name="EVENONLY"> F  </i>
   <i type="int" name="LMAXFOCK">     0</i>
   <i type="int" name="NMAXFOCKAE">     0</i>
   <i type="logical" name="LFOCKAEDFT"> F  </i>
   <i name="HFSCREEN">      0.00000000</i>
   <i name="HFSCREENC">      0.00000000</i>
   <i type="int" name="NBANDSGWLOW">     0</i>
  </separator>
  <separator name="vdW DFT" >
   <i type="logical" name="LUSE_VDW"> F  </i>
   <i type="int" name="IVDW_NL">     1</i>
   <i type="logical" name="LSPIN_VDW"> F  </i>
   <i name="Zab_VDW">     -0.84910000</i>
   <i name="PARAM1">      0.12340000</i>
   <i name="PARAM2">      1.00000000</i>
   <i name="PARAM3">      0.00000000</i>
  </separator>
  <separator name="model GW" >
   <i type="int" name="MODEL_GW">     0</i>
   <i name="MODEL_EPS0">     23.48414909</i>
   <i name="MODEL_ALPHA">      1.00000000</i>
  </separator>
  <separator name="linear response parameters" >
   <i type="logical" name="LEPSILON"> F  </i>
   <i type="logical" name="LRPA"> F  </i>
   <i type="logical" name="LNABLA"> F  </i>
   <i type="logical" name="LVEL"> F  </i>
   <i name="CSHIFT">      0.10000000</i>
   <i name="OMEGAMAX">     -1.00000000</i>
   <i name="DEG_THRESHOLD">      0.00200000</i>
   <i name="RTIME">     -0.10000000</i>
   <i name="WPLASMAI">      0.00000000</i>
   <v name="DFIELD">      0.00000000      0.00000000      0.00000000</v>
   <v name="WPLASMA">      0.00000000      0.00000000      0.00000000      0.00000000      0.00000000      0.00000000      0.00000000      0.00000000      0.00000000</v>
  </separator>
  <separator name="orbital magnetization" >
   <i type="logical" name="NUCIND"> F  </i>
   <v name="MAGPOS">      0.00000000      0.00000000      0.00000000</v>
   <i type="logical" name="LNICSALL"> T  </i>
   <i type="logical" name="ORBITALMAG"> F  </i>
   <i type="logical" name="LMAGBLOCH"> F  </i>
   <i type="logical" name="LCHIMAG"> F  </i>
   <i type="logical" name="LGAUGE"> T  </i>
   <i type="int" name="MAGATOM">     0</i>
   <v name="MAGDIPOL">      0.00000000      0.00000000      0.00000000</v>
   <v name="AVECCONST">      0.00000000      0.00000000      0.00000000</v>
  </separator>
  <separator name="response functions" >
   <i type="logical" name="LALL_IN_ONE"> F  </i>
   <i type="int" name="IALL_IN_ONE">    -1</i>
   <i type="int" name="NBANDS_WAVE">    -1</i>
   <i type="logical" name="LFINITE_TEMPERATURE"> F  </i>
   <i type="logical" name="LADDER"> F  </i>
   <i type="logical" name="LRPAFORCE"> F  </i>
   <i type="logical" name="LFXC"> F  </i>
   <i type="logical" name="LHARTREE"> T  </i>
   <i type="int" name="IBSE">     0</i>
   <v type="int" name="KPOINT">    -1     0     0     0</v>
   <i type="logical" name="LTCTC"> F  </i>
   <i type="logical" name="LTCTE"> F  </i>
   <i type="logical" name="LTETE"> F  </i>
   <i type="logical" name="LTRIPLET"> F  </i>
   <i type="logical" name="LFXCEPS"> F  </i>
   <i type="logical" name="LFXHEG"> F  </i>
   <i type="int" name="NATURALO">     2</i>
   <i type="logical" name="LHOLEGF"> F  </i>
   <i type="logical" name="L2ORDER"> F  </i>
   <i type="logical" name="LDMP1"> F  </i>
   <i type="logical" name="LMP2LT"> F  </i>
   <i type="logical" name="LSMP2LT"> F  </i>
   <i type="logical" name="LGWLF"> F  </i>
   <i name="ENCUTGW">     -1.60000002</i>
   <i name="ENCUTGWSOFT">     -1.60000002</i>
   <i name="ENCUTLF">     -1.00000000</i>
   <i type="logical" name="LESF_SPLINES"> F  </i>
   <i type="int" name="LMAXMP2">    -1</i>
   <i name="SCISSOR">      0.00000000</i>
   <i type="int" name="NOMEGA">     0</i>
   <i type="int" name="NOMEGAR">     0</i>
   <i type="int" name="NBANDSGW">    -1</i>
   <i type="int" name="NBANDSO">    -1</i>
   <i type="int" name="NBANDSV">    -1</i>
   <i type="int" name="NELMGW">     1</i>
   <i type="int" name="NELMHF">     1</i>
   <i type="int" name="DIM">     3</i>
   <i type="int" name="IESPILON">     4</i>
   <i type="int" name="ANTIRES">     0</i>
   <i name="OMEGAMAX">    -30.00000000</i>
   <i name="OMEGAMIN">    -30.00000000</i>
   <i name="OMEGATL">   -200.00000000</i>
   <i type="int" name="OMEGAGRID">     0</i>
   <i name="CSHIFT">     -0.10000000</i>
   <i type="logical" name="LSELFENERGY"> F  </i>
   <i type="logical" name="LSPECTRAL"> F  </i>
   <i type="logical" name="LSPECTRALGW"> F  </i>
   <i type="logical" name="LSINGLES"> F  </i>
   <i type="logical" name="LFERMIGW"> F  </i>
   <i type="logical" name="ODDONLYGW"> F  </i>
   <i type="logical" name="EVENONLYGW"> F  </i>
   <i type="int" name="NKREDLFX">     1</i>
   <i type="int" name="NKREDLFY">     1</i>
   <i type="int" name="NKREDLFZ">     1</i>
   <i type="int" name="MAXMEM">  2800</i>
   <i type="int" name="TELESCOPE">     0</i>
   <i type="int" name="NTAUPAR">    -1</i>
   <i type="int" name="NOMEGAPAR">    -1</i>
   <i name="DAMP_NEWTON">      0.80000001</i>
   <i name="LAMBDA">      1.00000000</i>
  </separator>
  <separator name="External order field" >
   <i name="OFIELD_KAPPA">      0.00000000</i>
   <v name="OFIELD_K">      0.00000000      0.00000000      0.00000000</v>
   <i name="OFIELD_Q6_NEAR">      0.00000000</i>
   <i name="OFIELD_Q6_FAR">      0.00000000</i>
   <i name="OFIELD_A">      0.00000000</i>
  </separator>
  <separator name="optional k-points parameters" >
   <i type="int" name="KPOINTS_OPT_MODE">     1</i>
   <i type="logical" name="LKPOINTS_OPT"> F  </i>
  </separator>
 </parameters>
 <atominfo>
  <atoms>      99 </atoms>
  <types>       4 </types>
  <array name="atoms" >
   <dimension dim="1">ion</dimension>
   <field type="string">element</field>
   <field type="int">atomtype</field>
   <set>
    <rc><c>C </c><c>   1</c></rc>
    <rc><c>C </c><c>   1</c></rc>
    <rc><c>C </c><c>   1</c></rc>
    <rc><c>C </c><c>   1</c></rc>
    <rc><c>C </c><c>   1</c></rc>
    <rc><c>C </c><c>   1</c></rc>
    <rc><c>C </c><c>   1</c></rc>
    <rc><c>C </c><c>   1</c></rc>
    <rc><c>C </c><c>   1</c></rc>
    <rc><c>C </c><c>   1</c></rc>
    <rc><c>C </c><c>   1</c></rc>
    <rc><c>C </c><c>   1</c></rc>
    <rc><c>C </c><c>   1</c></rc>
    <rc><c>C </c><c>   1</c></rc>
    <rc><c>C </c><c>   1</c></rc>
    <rc><c>C </c><c>   1</c></rc>
    <rc><c>C </c><c>   1</c></rc>
    <rc><c>C </c><c>   1</c></rc>
    <rc><c>C </c><c>   1</c></rc>
    <rc><c>C </c><c>   1</c></rc>
    <rc><c>C </c><c>   1</c></rc>
    <rc><c>C </c><c>   1</c></rc>
    <rc><c>C </c><c>   1</c></rc>
    <rc><c>C </c><c>   1</c></rc>
    <rc><c>C </c><c>   1</c></rc>
    <rc><c>C </c><c>   1</c></rc>
    <rc><c>C </c><c>   1</c></rc>
    <rc><c>C </c><c>   1</c></rc>
    <rc><c>C </c><c>   1</c></rc>
    <rc><c>C </c><c>   1</c></rc>
    <rc><c>C </c><c>   1</c></rc>
    <rc><c>C </c><c>   1</c></rc>
    <rc><c>C </c><c>   1</c></rc>
    <rc><c>C </c><c>   1</c></rc>
    <rc><c>C </c><c>   1</c></rc>
    <rc><c>C </c><c>   1</c></rc>
    <rc><c>C </c><c>   1</c></rc>
    <rc><c>C </c><c>   1</c></rc>
    <rc><c>C </c><c>   1</c></rc>
    <rc><c>C </c><c>   1</c></rc>
    <rc><c>C </c><c>   1</c></rc>
    <rc><c>C </c><c>   1</c></rc>
    <rc><c>C </c><c>   1</c></rc>
    <rc><c>C </c><c>   1</c></rc>
    <rc><c>C </c><c>   1</c></rc>
    <rc><c>C </c><c>   1</c></rc>
    <rc><c>C </c><c>   1</c></rc>
    <rc><c>C </c><c>   1</c></rc>
    <rc><c>C </c><c>   1</c></rc>
    <rc><c>C </c><c>   1</c></rc>
    <rc><c>C </c><c>   1</c></rc>
    <rc><c>C </c><c>   1</c></rc>
    <rc><c>C </c><c>   1</c></rc>
    <rc><c>C </c><c>   1</c></rc>
    <rc><c>C </c><c>   1</c></rc>
    <rc><c>C </c><c>   1</c></rc>
    <rc><c>C </c><c>   1</c></rc>
    <rc><c>C </c><c>   1</c></rc>
    <rc><c>C </c><c>   1</c></rc>
    <rc><c>C </c><c>   1</c></rc>
    <rc><c>C </c><c>   1</c></rc>
    <rc><c>C </c><c>   1</c></rc>
    <rc><c>C </c><c>   1</c></rc>
    <rc><c>C </c><c>   1</c></rc>
    <rc><c>C </c><c>   1</c></rc>
    <rc><c>C </c><c>   1</c></rc>
    <rc><c>C </c><c>   1</c></rc>
    <rc><c>C </c><c>   1</c></rc>
    <rc><c>C </c><c>   1</c></rc>
    <rc><c>C </c><c>   1</c></rc>
    <rc><c>C </c><c>   1</c></rc>
    <rc><c>C </c><c>   1</c></rc>
    <rc><c>C </c><c>   1</c></rc>
    <rc><c>C </c><c>   1</c></rc>
    <rc><c>C </c><c>   1</c></rc>
    <rc><c>C </c><c>   1</c></rc>
    <rc><c>C </c><c>   1</c></rc>
    <rc><c>C </c><c>   1</c></rc>
    <rc><c>C </c><c>   1</c></rc>
    <rc><c>C </c><c>   1</c></rc>
    <rc><c>C </c><c>   1</c></rc>
    <rc><c>C </c><c>   1</c></rc>
    <rc><c>C </c><c>   1</c></rc>
    <rc><c>C </c><c>   1</c></rc>
    <rc><c>C </c><c>   1</c></rc>
    <rc><c>C </c><c>   1</c></rc>
    <rc><c>C </c><c>   1</c></rc>
    <rc><c>C </c><c>   1</c></rc>
    <rc><c>H </c><c>   2</c></rc>
    <rc><c>H </c><c>   2</c></rc>
    <rc><c>H </c><c>   2</c></rc>
    <rc><c>H </c><c>   2</c></rc>
    <rc><c>H </c><c>   2</c></rc>
    <rc><c>H </c><c>   2</c></rc>
    <rc><c>H </c><c>   2</c></rc>
    <rc><c>H </c><c>   2</c></rc>
    <rc><c>H </c><c>   2</c></rc>
    <rc><c>F </c><c>   3</c></rc>
    <rc><c>O </c><c>   4</c></rc>
   </set>
  </array>
  <array name="atomtypes" >
   <dimension dim="1">type</dimension>
   <field type="int">atomspertype</field>
   <field type="string">element</field>
   <field>mass</field>
   <field>valence</field>
   <field type="string">pseudopotential</field>
   <set>
    <rc><c>  88</c><c>C </c><c>     12.01100000</c><c>      4.00000000</c><c>  PAW_PBE C 08Apr2002                   </c></rc>
    <rc><c>   9</c><c>H </c><c>      1.00000000</c><c>      1.00000000</c><c>  PAW_PBE H 15Jun2001                   </c></rc>
    <rc><c>   1</c><c>F </c><c>     18.99800000</c><c>      7.00000000</c><c>  PAW_PBE F 08Apr2002                   </c></rc>
    <rc><c>   1</c><c>O </c><c>     16.00000000</c><c>      6.00000000</c><c>  PAW_PBE O 08Apr2002                   </c></rc>
   </set>
  </array>
 </atominfo>
 <structure name="initialpos" >
  <crystal>
   <varray name="basis" >
    <v>      17.27103806       0.00000000       0.00000000 </v>
    <v>      -8.63551903      14.95715771       0.00000000 </v>
    <v>       0.00000000       0.00000000      15.00000000 </v>
   </varray>
   <i name="volume">   3874.88459904 </i>
   <varray name="rec_basis" >
    <v>       0.05790040       0.03342881       0.00000000 </v>
    <v>       0.00000000       0.06685762       0.00000000 </v>
    <v>       0.00000000       0.00000000       0.06666667 </v>
   </varray>
  </crystal>
  <varray name="positions" >
   <v>       0.00057461       0.00085551       0.50141795 </v>
   <v>       0.00021647       0.14355323       0.50294342 </v>
   <v>       0.00020164       0.28645769       0.50326450 </v>
   <v>       0.00070209       0.42954476       0.50211101 </v>
   <v>       0.00144816       0.57264796       0.50045069 </v>
   <v>       0.00235410       0.71590619       0.49930508 </v>
   <v>       0.00186559       0.85887889       0.49967039 </v>
   <v>       0.14390138       0.00148663       0.50566780 </v>
   <v>       0.14311763       0.14381894       0.50936742 </v>
   <v>       0.14233130       0.28600097       0.51263130 </v>
   <v>       0.14266366       0.42923968       0.51134300 </v>
   <v>       0.14384943       0.57234614       0.50715650 </v>
   <v>       0.14435602       0.71553162       0.50418360 </v>
   <v>       0.14428978       0.85867089       0.50331796 </v>
   <v>       0.28650716       0.00123047       0.50687837 </v>
   <v>       0.28624638       0.14383024       0.51267205 </v>
   <v>       0.28574453       0.28748470       0.52275357 </v>
   <v>       0.28358620       0.42816642       0.52796676 </v>
   <v>       0.28648010       0.57139436       0.51960183 </v>
   <v>       0.28659787       0.71571742       0.50995555 </v>
   <v>       0.28656940       0.85867506       0.50576538 </v>
   <v>       0.42940206       0.00157759       0.50528533 </v>
   <v>       0.42918940       0.14404992       0.50816679 </v>
   <v>       0.42747318       0.28372234       0.51493260 </v>
   <v>       0.42772699       0.71758612       0.51193060 </v>
   <v>       0.42911470       0.85887599       0.50616039 </v>
   <v>       0.57204648       0.00199868       0.50219669 </v>
   <v>       0.57212985       0.14415128       0.50335502 </v>
   <v>       0.57296662       0.28742239       0.50383481 </v>
   <v>       0.57267628       0.85994990       0.50198468 </v>
   <v>       0.71491903       0.00136204       0.49838075 </v>
   <v>       0.71507666       0.14418849       0.49929512 </v>
   <v>       0.71511066       0.28685476       0.49984165 </v>
   <v>       0.71483328       0.42875921       0.49841693 </v>
   <v>       0.71917920       0.57404675       0.49765948 </v>
   <v>       0.72139909       0.71683609       0.49718859 </v>
   <v>       0.71369254       0.85832058       0.49740096 </v>
   <v>       0.85769759       0.00100791       0.49796260 </v>
   <v>       0.85758336       0.14384494       0.49875560 </v>
   <v>       0.85773969       0.28663996       0.49907967 </v>
   <v>       0.85834390       0.42962786       0.49853052 </v>
   <v>       0.85925694       0.57295699       0.49720970 </v>
   <v>       0.86086360       0.71638919       0.49664222 </v>
   <v>       0.85817617       0.85787917       0.49704990 </v>
   <v>       0.04805427       0.09610857       0.50439350 </v>
   <v>       0.04730650       0.23846880       0.50587463 </v>
   <v>       0.04759929       0.38162870       0.50510683 </v>
   <v>       0.04880844       0.52487227       0.50295046 </v>
   <v>       0.04930482       0.66799984       0.50115514 </v>
   <v>       0.04925347       0.81105169       0.50065970 </v>
   <v>       0.04872755       0.95371840       0.50215926 </v>
   <v>       0.19104315       0.09623242       0.50971041 </v>
   <v>       0.19023094       0.23878224       0.51477038 </v>
   <v>       0.18888289       0.38081072       0.51680553 </v>
   <v>       0.19088121       0.52446707       0.51237058 </v>
   <v>       0.19152342       0.66791913       0.50745676 </v>
   <v>       0.19171270       0.81098747       0.50446742 </v>
   <v>       0.19157588       0.95376203       0.50540963 </v>
   <v>       0.33407163       0.09658817       0.50936214 </v>
   <v>       0.33442903       0.23895134       0.51788710 </v>
   <v>       0.32923579       0.37978653       0.53312622 </v>
   <v>       0.32975971       0.52241984       0.53038669 </v>
   <v>       0.33486530       0.66876251       0.51460450 </v>
   <v>       0.33411644       0.81089822       0.50730757 </v>
   <v>       0.33403438       0.95375058       0.50588828 </v>
   <v>       0.47696272       0.09656939       0.50541703 </v>
   <v>       0.47616960       0.23917156       0.50891692 </v>
   <v>       0.47613853       0.81092772       0.50657882 </v>
   <v>       0.47692502       0.95417794       0.50430244 </v>
   <v>       0.61967537       0.09680257       0.50135998 </v>
   <v>       0.61998937       0.23934218       0.50243389 </v>
   <v>       0.62178606       0.38061102       0.50007315 </v>
   <v>       0.62072619       0.81506191       0.49915053 </v>
   <v>       0.61981050       0.95465325       0.50061846 </v>
   <v>       0.76263750       0.09665938       0.49829308 </v>
   <v>       0.76273728       0.23913624       0.49903182 </v>
   <v>       0.76307260       0.38190084       0.49881153 </v>
   <v>       0.76361910       0.52588263       0.49725035 </v>
   <v>       0.76591883       0.66778197       0.49686718 </v>
   <v>       0.76179970       0.80935128       0.49670143 </v>
   <v>       0.76250903       0.95372807       0.49750396 </v>
   <v>       0.90505145       0.09589554       0.49939932 </v>
   <v>       0.90509067       0.23893290       0.49987396 </v>
   <v>       0.90551419       0.38203482       0.49951921 </v>
   <v>       0.90637090       0.52514331       0.49836691 </v>
   <v>       0.90730058       0.66811677       0.49730329 </v>
   <v>       0.90669374       0.81118519       0.49734865 </v>
   <v>       0.90532177       0.95303360       0.49842542 </v>
   <v>       0.46337564       0.35626067       0.51529197 </v>
   <v>       0.40129343       0.41802396       0.54249976 </v>
   <v>       0.40190570       0.55595941       0.53999757 </v>
   <v>       0.64680308       0.53961470       0.49884136 </v>
   <v>       0.58552795       0.41682662       0.49736373 </v>
   <v>       0.58355203       0.74323851       0.49889814 </v>
   <v>       0.46392625       0.68125382       0.51355077 </v>
   <v>       0.45438096       0.48289531       0.39249164 </v>
   <v>       0.54508392       0.56056442       0.42600136 </v>
   <v>       0.62929258       0.66370881       0.49900388 </v>
   <v>       0.50947261       0.49568764       0.42235436 </v>
  </varray>
  <varray name="selective"  type="logical" >
   <v type="logical" >  T  T  T </v>
   <v type="logical" >  T  T  T </v>
   <v type="logical" >  T  T  T </v>
   <v type="logical" >  T  T  T </v>
   <v type="logical" >  T  T  T </v>
   <v type="logical" >  T  T  T </v>
   <v type="logical" >  T  T  T </v>
   <v type="logical" >  T  T  T </v>
   <v type="logical" >  T  T  T </v>
   <v type="logical" >  T  T  T </v>
   <v type="logical" >  T  T  T </v>
   <v type="logical" >  T  T  T </v>
   <v type="logical" >  T  T  T </v>
   <v type="logical" >  T  T  T </v>
   <v type="logical" >  T  T  T </v>
   <v type="logical" >  T  T  T </v>
   <v type="logical" >  T  T  T </v>
   <v type="logical" >  T  T  T </v>
   <v type="logical" >  T  T  T </v>
   <v type="logical" >  T  T  T </v>
   <v type="logical" >  T  T  T </v>
   <v type="logical" >  T  T  T </v>
   <v type="logical" >  T  T  T </v>
   <v type="logical" >  T  T  T </v>
   <v type="logical" >  T  T  T </v>
   <v type="logical" >  T  T  T </v>
   <v type="logical" >  T  T  T </v>
   <v type="logical" >  T  T  T </v>
   <v type="logical" >  T  T  T </v>
   <v type="logical" >  T  T  T </v>
   <v type="logical" >  T  T  T </v>
   <v type="logical" >  T  T  T </v>
   <v type="logical" >  T  T  T </v>
   <v type="logical" >  T  T  T </v>
   <v type="logical" >  T  T  T </v>
   <v type="logical" >  T  T  T </v>
   <v type="logical" >  T  T  T </v>
   <v type="logical" >  T  T  T </v>
   <v type="logical" >  T  T  T </v>
   <v type="logical" >  T  T  T </v>
   <v type="logical" >  T  T  T </v>
   <v type="logical" >  T  T  T </v>
   <v type="logical" >  T  T  T </v>
   <v type="logical" >  T  T  T </v>
   <v type="logical" >  T  T  T </v>
   <v type="logical" >  T  T  T </v>
   <v type="logical" >  T  T  T </v>
   <v type="logical" >  T  T  T </v>
   <v type="logical" >  T  T  T </v>
   <v type="logical" >  T  T  T </v>
   <v type="logical" >  T  T  T </v>
   <v type="logical" >  T  T  T </v>
   <v type="logical" >  T  T  T </v>
   <v type="logical" >  T  T  T </v>
   <v type="logical" >  T  T  T </v>
   <v type="logical" >  T  T  T </v>
   <v type="logical" >  T  T  T </v>
   <v type="logical" >  T  T  T </v>
   <v type="logical" >  T  T  T </v>
   <v type="logical" >  T  T  T </v>
   <v type="logical" >  T  T  T </v>
   <v type="logical" >  T  T  T </v>
   <v type="logical" >  T  T  T </v>
   <v type="logical" >  T  T  T </v>
   <v type="logical" >  T  T  T </v>
   <v type="logical" >  T  T  T </v>
   <v type="logical" >  T  T  T </v>
   <v type="logical" >  T  T  T </v>
   <v type="logical" >  T  T  T </v>
   <v type="logical" >  T  T  T </v>
   <v type="logical" >  T  T  T </v>
   <v type="logical" >  T  T  T </v>
   <v type="logical" >  T  T  T </v>
   <v type="logical" >  T  T  T </v>
   <v type="logical" >  T  T  T </v>
   <v type="logical" >  T  T  T </v>
   <v type="logical" >  T  T  T </v>
   <v type="logical" >  T  T  T </v>
   <v type="logical" >  T  T  T </v>
   <v type="logical" >  T  T  T </v>
   <v type="logical" >  T  T  T </v>
   <v type="logical" >  T  T  T </v>
   <v type="logical" >  T  T  T </v>
   <v type="logical" >  T  T  T </v>
   <v type="logical" >  T  T  T </v>
   <v type="logical" >  T  T  T </v>
   <v type="logical" >  T  T  T </v>
   <v type="logical" >  T  T  T </v>
   <v type="logical" >  T  T  T </v>
   <v type="logical" >  T  T  T </v>
   <v type="logical" >  T  T  T </v>
   <v type="logical" >  T  T  T </v>
   <v type="logical" >  T  T  T </v>
   <v type="logical" >  T  T  T </v>
   <v type="logical" >  T  T  T </v>
   <v type="logical" >  T  T  T </v>
   <v type="logical" >  T  T  T </v>
   <v type="logical" >  T  T  T </v>
   <v type="logical" >  T  T  T </v>
  </varray>
  <nose>
   <v>      -3.00000000       0.00000000       0.00010000       0.00010000 </v>
  </nose>
 </structure>
 <calculation>
  <scstep>
   <time name="dav">   75.36   75.85</time>
   <time name="total">   80.73   81.30</time>
   <energy>
    <i name="alphaZ">    181.20502200 </i>
    <i name="ewald">  37204.33634452 </i>
    <i name="hartreedc"> -47773.15623398 </i>
    <i name="XCdc">   1251.95299146 </i>
    <i name="pawpsdc">  10449.77820547 </i>
    <i name="pawaedc"> -10506.58854235 </i>
    <i name="eentropy">     -0.04616076 </i>
    <i name="bandstr">  -1630.14329893 </i>
    <i name="atom">  14153.45850732 </i>
    <i name="e_fr_energy">   3330.79683476 </i>
    <i name="e_wo_entrp">   3330.84299552 </i>
    <i name="e_0_energy">   3330.81991514 </i>
   </energy>
  </scstep>
  <scstep>
   <time name="dav">   97.93   98.63</time>
   <time name="total">   97.93   98.64</time>
   <energy>
    <i name="e_fr_energy">   -255.27499449 </i>
    <i name="e_wo_entrp">   -255.26962750 </i>
    <i name="e_0_energy">   -255.27231099 </i>
   </energy>
  </scstep>
  <scstep>
   <time name="dav">   84.19   84.79</time>
   <time name="total">   84.19   84.80</time>
   <energy>
    <i name="e_fr_energy">   -875.56058662 </i>
    <i name="e_wo_entrp">   -875.56054088 </i>
    <i name="e_0_energy">   -875.56056375 </i>
   </energy>
  </scstep>
  <scstep>
   <time name="dav">   85.18   85.80</time>
   <time name="total">   85.18   85.82</time>
   <energy>
    <i name="e_fr_energy">   -897.61409748 </i>
    <i name="e_wo_entrp">   -897.61406879 </i>
    <i name="e_0_energy">   -897.61408313 </i>
   </energy>
  </scstep>
  <scstep>
   <time name="dav">   94.23   94.92</time>
   <time name="total">   99.60  100.33</time>
   <energy>
    <i name="e_fr_energy">   -898.26603535 </i>
    <i name="e_wo_entrp">   -898.26600586 </i>
    <i name="e_0_energy">   -898.26602061 </i>
   </energy>
  </scstep>
  <scstep>
   <time name="dav">   82.03   82.60</time>
   <time name="total">   92.66   93.33</time>
   <energy>
    <i name="e_fr_energy">   -879.90006134 </i>
    <i name="e_wo_entrp">   -879.89880753 </i>
    <i name="e_0_energy">   -879.89943444 </i>
   </energy>
  </scstep>
  <scstep>
   <time name="dav">   81.27   81.84</time>
   <time name="total">   92.18   92.89</time>
   <energy>
    <i name="e_fr_energy">   -856.92779502 </i>
    <i name="e_wo_entrp">   -856.92779130 </i>
    <i name="e_0_energy">   -856.92779316 </i>
   </energy>
  </scstep>
  <scstep>
   <time name="dav">   82.96   83.51</time>
   <time name="total">   94.21   94.88</time>
   <energy>
    <i name="e_fr_energy">   -851.94441163 </i>
    <i name="e_wo_entrp">   -851.94441159 </i>
    <i name="e_0_energy">   -851.94441161 </i>
   </energy>
  </scstep>
  <scstep>
   <time name="dav">   80.12   80.66</time>
   <time name="total">   91.10   91.75</time>
   <energy>
    <i name="e_fr_energy">   -851.84879240 </i>
    <i name="e_wo_entrp">   -851.84879238 </i>
    <i name="e_0_energy">   -851.84879239 </i>
   </energy>
  </scstep>
  <scstep>
   <time name="dav">   79.89   80.43</time>
   <time name="total">   90.97   91.71</time>
   <energy>
    <i name="e_fr_energy">   -851.75975728 </i>
    <i name="e_wo_entrp">   -851.75975726 </i>
    <i name="e_0_energy">   -851.75975727 </i>
   </energy>
  </scstep>
  <scstep>
   <time name="dav">   79.33   79.87</time>
   <time name="total">   90.50   91.18</time>
   <energy>
    <i name="e_fr_energy">   -851.74342079 </i>
    <i name="e_wo_entrp">   -851.74342078 </i>
    <i name="e_0_energy">   -851.74342079 </i>
   </energy>
  </scstep>
  <scstep>
   <time name="dav">   82.36   82.94</time>
   <time name="total">   92.99   93.68</time>
   <energy>
    <i name="e_fr_energy">   -851.74284874 </i>
    <i name="e_wo_entrp">   -851.74284873 </i>
    <i name="e_0_energy">   -851.74284873 </i>
   </energy>
  </scstep>
  <scstep>
   <time name="dav">   84.01   84.72</time>
   <time name="total">   95.20   96.03</time>
   <energy>
    <i name="e_fr_energy">   -851.74265310 </i>
    <i name="e_wo_entrp">   -851.74265309 </i>
    <i name="e_0_energy">   -851.74265310 </i>
   </energy>
  </scstep>
  <scstep>
   <time name="dav">   81.39   81.98</time>
   <time name="total">   92.26   93.02</time>
   <energy>
    <i name="e_fr_energy">   -851.74269224 </i>
    <i name="e_wo_entrp">   -851.74269222 </i>
    <i name="e_0_energy">   -851.74269223 </i>
   </energy>
  </scstep>
  <scstep>
   <time name="dav">   80.58   81.15</time>
   <time name="total">   91.60   92.28</time>
   <energy>
    <i name="e_fr_energy">   -851.74274137 </i>
    <i name="e_wo_entrp">   -851.74274136 </i>
    <i name="e_0_energy">   -851.74274137 </i>
   </energy>
  </scstep>
  <scstep>
   <time name="dav">   78.18   78.72</time>
   <time name="total">   89.58   90.27</time>
   <energy>
    <i name="e_fr_energy">   -851.74275806 </i>
    <i name="e_wo_entrp">   -851.74275805 </i>
    <i name="e_0_energy">   -851.74275805 </i>
   </energy>
  </scstep>
  <scstep>
   <time name="dav">   85.64   86.27</time>
   <time name="total">   94.89   95.59</time>
   <energy>
    <i name="e_fr_energy">   -851.74275643 </i>
    <i name="e_wo_entrp">   -851.74275641 </i>
    <i name="e_0_energy">   -851.74275642 </i>
   </energy>
  </scstep>
  <scstep>
   <time name="dav">   51.03   51.36</time>
   <time name="total">   55.32   55.71</time>
   <energy>
    <i name="alphaZ">    181.20502200 </i>
    <i name="ewald">  37204.33634452 </i>
    <i name="hartreedc"> -49319.94814676 </i>
    <i name="XCdc">   1303.00251671 </i>
    <i name="pawpsdc">  38031.61007932 </i>
    <i name="pawaedc"> -38099.44164602 </i>
    <i name="eentropy">     -0.00000001 </i>
    <i name="bandstr">  -4305.96543411 </i>
    <i name="atom">  14153.45850732 </i>
    <i name="e_fr_energy">   -851.74275703 </i>
    <i name="e_wo_entrp">   -851.74275702 </i>
    <i name="e_0_energy">   -851.74275703 </i>
   </energy>
  </scstep>
  <structure>
   <crystal>
    <varray name="basis" >
     <v>      17.27103806       0.00000000       0.00000000 </v>
     <v>      -8.63551903      14.95715771       0.00000000 </v>
     <v>       0.00000000       0.00000000      15.00000000 </v>
    </varray>
    <i name="volume">   3874.88459904 </i>
    <varray name="rec_basis" >
     <v>       0.05790040       0.03342881       0.00000000 </v>
     <v>       0.00000000       0.06685762       0.00000000 </v>
     <v>       0.00000000       0.00000000       0.06666667 </v>
    </varray>
   </crystal>
   <varray name="positions" >
    <v>       0.00057461       0.00085551       0.50141795 </v>
    <v>       0.00021647       0.14355323       0.50294342 </v>
    <v>       0.00020164       0.28645769       0.50326450 </v>
    <v>       0.00070209       0.42954476       0.50211101 </v>
    <v>       0.00144816       0.57264796       0.50045069 </v>
    <v>       0.00235410       0.71590619       0.49930508 </v>
    <v>       0.00186559       0.85887889       0.49967039 </v>
    <v>       0.14390138       0.00148663       0.50566780 </v>
    <v>       0.14311763       0.14381894       0.50936742 </v>
    <v>       0.14233130       0.28600097       0.51263130 </v>
    <v>       0.14266366       0.42923968       0.51134300 </v>
    <v>       0.14384943       0.57234614       0.50715650 </v>
    <v>       0.14435602       0.71553162       0.50418360 </v>
    <v>       0.14428978       0.85867089       0.50331796 </v>
    <v>       0.28650716       0.00123047       0.50687837 </v>
    <v>       0.28624638       0.14383024       0.51267205 </v>
    <v>       0.28574453       0.28748470       0.52275357 </v>
    <v>       0.28358620       0.42816642       0.52796676 </v>
    <v>       0.28648010       0.57139436       0.51960183 </v>
    <v>       0.28659787       0.71571742       0.50995555 </v>
    <v>       0.28656940       0.85867506       0.50576538 </v>
    <v>       0.42940206       0.00157759       0.50528533 </v>
    <v>       0.42918940       0.14404992       0.50816679 </v>
    <v>       0.42747318       0.28372234       0.51493260 </v>
    <v>       0.42772699       0.71758612       0.51193060 </v>
    <v>       0.42911470       0.85887599       0.50616039 </v>
    <v>       0.57204648       0.00199868       0.50219669 </v>
    <v>       0.57212985       0.14415128       0.50335502 </v>
    <v>       0.57296662       0.28742239       0.50383481 </v>
    <v>       0.57267628       0.85994990       0.50198468 </v>
    <v>       0.71491903       0.00136204       0.49838075 </v>
    <v>       0.71507666       0.14418849       0.49929512 </v>
    <v>       0.71511066       0.28685476       0.49984165 </v>
    <v>       0.71483328       0.42875921       0.49841693 </v>
    <v>       0.71917920       0.57404675       0.49765948 </v>
    <v>       0.72139909       0.71683609       0.49718859 </v>
    <v>       0.71369254       0.85832058       0.49740096 </v>
    <v>       0.85769759       0.00100791       0.49796260 </v>
    <v>       0.85758336       0.14384494       0.49875560 </v>
    <v>       0.85773969       0.28663996       0.49907967 </v>
    <v>       0.85834390       0.42962786       0.49853052 </v>
    <v>       0.85925694       0.57295699       0.49720970 </v>
    <v>       0.86086360       0.71638919       0.49664222 </v>
    <v>       0.85817617       0.85787917       0.49704990 </v>
    <v>       0.04805427       0.09610857       0.50439350 </v>
    <v>       0.04730650       0.23846880       0.50587463 </v>
    <v>       0.04759929       0.38162870       0.50510683 </v>
    <v>       0.04880844       0.52487227       0.50295046 </v>
    <v>       0.04930482       0.66799984       0.50115514 </v>
    <v>       0.04925347       0.81105169       0.50065970 </v>
    <v>       0.04872755       0.95371840       0.50215926 </v>
    <v>       0.19104315       0.09623242       0.50971041 </v>
    <v>       0.19023094       0.23878224       0.51477038 </v>
    <v>       0.18888289       0.38081072       0.51680553 </v>
    <v>       0.19088121       0.52446707       0.51237058 </v>
    <v>       0.19152342       0.66791913       0.50745676 </v>
    <v>       0.19171270       0.81098747       0.50446742 </v>
    <v>       0.19157588       0.95376203       0.50540963 </v>
    <v>       0.33407163       0.09658817       0.50936214 </v>
    <v>       0.33442903       0.23895134       0.51788710 </v>
    <v>       0.32923579       0.37978653       0.53312622 </v>
    <v>       0.32975971       0.52241984       0.53038669 </v>
    <v>       0.33486530       0.66876251       0.51460450 </v>
    <v>       0.33411644       0.81089822       0.50730757 </v>
    <v>       0.33403438       0.95375058       0.50588828 </v>
    <v>       0.47696272       0.09656939       0.50541703 </v>
    <v>       0.47616960       0.23917156       0.50891692 </v>
    <v>       0.47613853       0.81092772       0.50657882 </v>
    <v>       0.47692502       0.95417794       0.50430244 </v>
    <v>       0.61967537       0.09680257       0.50135998 </v>
    <v>       0.61998937       0.23934218       0.50243389 </v>
    <v>       0.62178606       0.38061102       0.50007315 </v>
    <v>       0.62072619       0.81506191       0.49915053 </v>
    <v>       0.61981050       0.95465325       0.50061846 </v>
    <v>       0.76263750       0.09665938       0.49829308 </v>
    <v>       0.76273728       0.23913624       0.49903182 </v>
    <v>       0.76307260       0.38190084       0.49881153 </v>
    <v>       0.76361910       0.52588263       0.49725035 </v>
    <v>       0.76591883       0.66778197       0.49686718 </v>
    <v>       0.76179970       0.80935128       0.49670143 </v>
    <v>       0.76250903       0.95372807       0.49750396 </v>
    <v>       0.90505145       0.09589554       0.49939932 </v>
    <v>       0.90509067       0.23893290       0.49987396 </v>
    <v>       0.90551419       0.38203482       0.49951921 </v>
    <v>       0.90637090       0.52514331       0.49836691 </v>
    <v>       0.90730058       0.66811677       0.49730329 </v>
    <v>       0.90669374       0.81118519       0.49734865 </v>
    <v>       0.90532177       0.95303360       0.49842542 </v>
    <v>       0.46337564       0.35626067       0.51529197 </v>
    <v>       0.40129343       0.41802396       0.54249976 </v>
    <v>       0.40190570       0.55595941       0.53999757 </v>
    <v>       0.64680308       0.53961470       0.49884136 </v>
    <v>       0.58552795       0.41682662       0.49736373 </v>
    <v>       0.58355203       0.74323851       0.49889814 </v>
    <v>       0.46392625       0.68125382       0.51355077 </v>
    <v>       0.45438096       0.48289531       0.39249164 </v>
    <v>       0.54508392       0.56056442       0.42600136 </v>
    <v>       0.62929258       0.66370881       0.49900388 </v>
    <v>       0.50947261       0.49568764       0.42235436 </v>
   </varray>
  </structure>
  <varray name="forces" >
   <v>      -0.00066258      -0.00431360       0.00073784 </v>
   <v>      -0.00193512      -0.00335186       0.00141010 </v>
   <v>      -0.00274856      -0.00162655       0.00384707 </v>
   <v>      -0.00110901       0.00096497       0.00554067 </v>
   <v>       0.00034085       0.00264960       0.00120420 </v>
   <v>      -0.00056489       0.00261155      -0.00106149 </v>
   <v>       0.00119946       0.00095286       0.00118267 </v>
   <v>       0.00167505      -0.00297551      -0.00035931 </v>
   <v>       0.00229407      -0.00531686      -0.00151689 </v>
   <v>       0.00009710      -0.00455115      -0.00169735 </v>
   <v>      -0.00054978       0.00160970       0.00137702 </v>
   <v>       0.00062893       0.00164609       0.00149218 </v>
   <v>      -0.00067940       0.00151467      -0.00082672 </v>
   <v>      -0.00063007       0.00113763      -0.00133494 </v>
   <v>       0.00035602      -0.00155531      -0.00020768 </v>
   <v>       0.00364429      -0.00591232      -0.00135846 </v>
   <v>       0.00275028      -0.00186831      -0.00414401 </v>
   <v>       0.00360590       0.00230659      -0.00509042 </v>
   <v>       0.00257712       0.00425244       0.00089326 </v>
   <v>       0.00286678       0.00120600       0.00069041 </v>
   <v>       0.00154886       0.00063707       0.00005355 </v>
   <v>       0.00286037      -0.00396873       0.00178355 </v>
   <v>       0.00085341      -0.00462535      -0.00011738 </v>
   <v>       0.00143330      -0.00481504      -0.00295570 </v>
   <v>       0.00377051       0.00220787       0.00144380 </v>
   <v>       0.00554053      -0.00581701       0.00107533 </v>
   <v>       0.00249207      -0.00533568       0.00312818 </v>
   <v>       0.00084680      -0.00495495       0.00218755 </v>
   <v>       0.00128760      -0.00546468       0.00041996 </v>
   <v>      -0.00090040      -0.00178192       0.00308879 </v>
   <v>      -0.00213548      -0.00180673       0.00629790 </v>
   <v>       0.00024992      -0.00705828       0.00195539 </v>
   <v>       0.00224176      -0.00316280       0.00169915 </v>
   <v>       0.00204328       0.00178033       0.00279920 </v>
   <v>       0.00148201       0.00320710      -0.00136598 </v>
   <v>      -0.00342760       0.00653268       0.00266650 </v>
   <v>      -0.00599436      -0.00122022       0.00446735 </v>
   <v>      -0.00206872      -0.00070930       0.00501861 </v>
   <v>      -0.00132503      -0.00128543       0.00372323 </v>
   <v>       0.00173002      -0.00132100       0.00231947 </v>
   <v>       0.00251230       0.00202768       0.00233826 </v>
   <v>       0.00266899       0.00272374       0.00128100 </v>
   <v>       0.00076885       0.00304041       0.00205459 </v>
   <v>       0.00020244       0.00079297       0.00362589 </v>
   <v>      -0.00066060       0.00404816       0.00037408 </v>
   <v>       0.00292949       0.00694842       0.00206920 </v>
   <v>       0.00144311       0.00226624       0.00438606 </v>
   <v>       0.00055041      -0.00047278       0.00326689 </v>
   <v>       0.00111667      -0.00087901       0.00004873 </v>
   <v>       0.00047836      -0.00064464      -0.00139963 </v>
   <v>      -0.00099777       0.00244016       0.00097193 </v>
   <v>      -0.00296873       0.00469815      -0.00066983 </v>
   <v>      -0.00129324       0.00519296      -0.00241217 </v>
   <v>       0.00002088      -0.00035830      -0.00213650 </v>
   <v>       0.00113020      -0.00228084       0.00112951 </v>
   <v>      -0.00146451      -0.00134950      -0.00033689 </v>
   <v>       0.00052922      -0.00134564      -0.00052013 </v>
   <v>      -0.00053409       0.00037680      -0.00038349 </v>
   <v>      -0.00245401       0.00396196      -0.00043042 </v>
   <v>       0.00003004       0.00544599      -0.00099434 </v>
   <v>       0.00044609       0.00149685      -0.00753330 </v>
   <v>       0.00205203      -0.00539081      -0.00170250 </v>
   <v>      -0.00377910      -0.00568761       0.00232397 </v>
   <v>      -0.00272881       0.00020888       0.00142051 </v>
   <v>      -0.00178677       0.00043464       0.00065265 </v>
   <v>      -0.00098774       0.00465787       0.00151638 </v>
   <v>      -0.00263899       0.00734046      -0.00174133 </v>
   <v>      -0.00184401       0.00125441       0.00122267 </v>
   <v>      -0.00399246       0.00605717       0.00159946 </v>
   <v>      -0.00266865       0.00621343       0.00301735 </v>
   <v>      -0.00185593       0.00595979       0.00052043 </v>
   <v>      -0.00303774       0.00470833      -0.00202131 </v>
   <v>       0.00545777       0.00237967       0.00354546 </v>
   <v>      -0.00034325       0.00401557       0.00478043 </v>
   <v>      -0.00022954       0.00344357       0.00529824 </v>
   <v>      -0.00380455       0.00458565       0.00295559 </v>
   <v>      -0.00344826       0.00188563       0.00171878 </v>
   <v>      -0.00202635      -0.00599187       0.00333028 </v>
   <v>       0.00029765      -0.00243438       0.00080927 </v>
   <v>       0.00338914      -0.00204600       0.00420924 </v>
   <v>       0.00278906       0.00076604       0.00559534 </v>
   <v>       0.00164118       0.00128952       0.00289691 </v>
   <v>      -0.00111055       0.00342784       0.00333142 </v>
   <v>      -0.00291416       0.00165564       0.00464206 </v>
   <v>      -0.00128806      -0.00074954       0.00064629 </v>
   <v>      -0.00079046      -0.00140617       0.00061730 </v>
   <v>       0.00054712      -0.00088241       0.00315362 </v>
   <v>       0.00128068       0.00129033       0.00323853 </v>
   <v>       0.00020918       0.00282106      -0.00532963 </v>
   <v>       0.00383188       0.00101256      -0.00748319 </v>
   <v>       0.00226358       0.00243636      -0.00607333 </v>
   <v>      -0.00134199       0.00059092       0.00234600 </v>
   <v>       0.00213238      -0.00039325      -0.00297345 </v>
   <v>       0.00056582      -0.00124586       0.00436911 </v>
   <v>      -0.00021436       0.00057798       0.00340779 </v>
   <v>       0.00722776      -0.01231456      -0.00800771 </v>
   <v>      -0.00924964      -0.00056595      -0.03701145 </v>
   <v>      -0.00091597      -0.00342211      -0.00425830 </v>
   <v>      -0.01082729      -0.01503115      -0.04175894 </v>
  </varray>
  <varray name="stress" >
   <v>       5.29924516       0.05296575       0.01125865 </v>
   <v>       0.05296204       3.61812247       0.02401720 </v>
   <v>       0.01126021       0.02401777      -0.28320999 </v>
  </varray>
  <energy>
   <i name="e_fr_energy">   -859.62934681 </i>
   <i name="e_wo_entrp">   -859.62934680 </i>
   <i name="e_0_energy">   -859.62934681 </i>
  </energy>
  <time name="totalsc"> 1956.59 1970.74</time>
 </calculation>
 <calculation>
  <scstep>
   <time name="dav">   74.93   75.42</time>
   <time name="total">   85.78   86.35</time>
   <energy>
    <i name="alphaZ">    181.20502200 </i>
    <i name="ewald">  37204.42777247 </i>
    <i name="hartreedc"> -49320.00934112 </i>
    <i name="XCdc">   1303.00173808 </i>
    <i name="pawpsdc">  38031.89754753 </i>
    <i name="pawaedc"> -38099.72862287 </i>
    <i name="eentropy">     -0.00000001 </i>
    <i name="bandstr">  -4305.99529894 </i>
    <i name="atom">  14153.45850732 </i>
    <i name="e_fr_energy">   -851.74267553 </i>
    <i name="e_wo_entrp">   -851.74267552 </i>
    <i name="e_0_energy">   -851.74267553 </i>
   </energy>
  </scstep>
  <scstep>
   <time name="dav">   73.52   74.02</time>
   <time name="total">   84.41   85.01</time>
   <energy>
    <i name="e_fr_energy">   -851.74270035 </i>
    <i name="e_wo_entrp">   -851.74270033 </i>
    <i name="e_0_energy">   -851.74270034 </i>
   </energy>
  </scstep>
  <scstep>
   <time name="dav">   76.44   76.95</time>
   <time name="total">   86.79   87.40</time>
   <energy>
    <i name="e_fr_energy">   -851.74269910 </i>
    <i name="e_wo_entrp">   -851.74269909 </i>
    <i name="e_0_energy">   -851.74269909 </i>
   </energy>
  </scstep>
  <scstep>
   <time name="dav">   61.92   62.28</time>
   <time name="total">   67.27   67.69</time>
   <energy>
    <i name="alphaZ">    181.20502200 </i>
    <i name="ewald">  37204.42777247 </i>
    <i name="hartreedc"> -49319.99160157 </i>
    <i name="XCdc">   1303.00167067 </i>
    <i name="pawpsdc">  38031.51315347 </i>
    <i name="pawaedc"> -38099.34443216 </i>
    <i name="eentropy">     -0.00000001 </i>
    <i name="bandstr">  -4306.01279228 </i>
    <i name="atom">  14153.45850732 </i>
    <i name="e_fr_energy">   -851.74270009 </i>
    <i name="e_wo_entrp">   -851.74270008 </i>
    <i name="e_0_energy">   -851.74270009 </i>
   </energy>
  </scstep>
  <structure>
   <crystal>
    <varray name="basis" >
     <v>      17.27103806       0.00000000       0.00000000 </v>
     <v>      -8.63551903      14.95715771       0.00000000 </v>
     <v>       0.00000000       0.00000000      15.00000000 </v>
    </varray>
    <i name="volume">   3874.88459904 </i>
    <varray name="rec_basis" >
     <v>       0.05790040       0.03342881       0.00000000 </v>
     <v>       0.00000000       0.06685762       0.00000000 </v>
     <v>       0.00000000       0.00000000       0.06666667 </v>
    </varray>
   </crystal>
   <varray name="positions" >
    <v>       0.00057286       0.00085270       0.50141585 </v>
    <v>       0.00021413       0.14355094       0.50294362 </v>
    <v>       0.00019931       0.28645653       0.50326781 </v>
    <v>       0.00070161       0.42954534       0.50211514 </v>
    <v>       0.00144916       0.57264970       0.50045041 </v>
    <v>       0.00235466       0.71590795       0.49930100 </v>
    <v>       0.00186670       0.85887957       0.49966707 </v>
    <v>       0.14390128       0.00148456       0.50566999 </v>
    <v>       0.14311694       0.14381520       0.50936936 </v>
    <v>       0.14232941       0.28599767       0.51263486 </v>
    <v>       0.14266348       0.42924055       0.51134939 </v>
    <v>       0.14385013       0.57234711       0.50716218 </v>
    <v>       0.14435606       0.71553254       0.50418671 </v>
    <v>       0.14428979       0.85867160       0.50331968 </v>
    <v>       0.28650687       0.00122939       0.50688212 </v>
    <v>       0.28624638       0.14382620       0.51267562 </v>
    <v>       0.28574477       0.28748292       0.52275855 </v>
    <v>       0.28358797       0.42816733       0.52797429 </v>
    <v>       0.28648252       0.57139689       0.51961143 </v>
    <v>       0.28659988       0.71571802       0.50996212 </v>
    <v>       0.28657056       0.85867536       0.50577006 </v>
    <v>       0.42940245       0.00157486       0.50528840 </v>
    <v>       0.42918840       0.14404700       0.50816789 </v>
    <v>       0.42747228       0.28371932       0.51493301 </v>
    <v>       0.42772989       0.71758717       0.51193627 </v>
    <v>       0.42911609       0.85887181       0.50616380 </v>
    <v>       0.57204612       0.00199487       0.50219735 </v>
    <v>       0.57212862       0.14414802       0.50335440 </v>
    <v>       0.57296541       0.28741915       0.50382943 </v>
    <v>       0.57267521       0.85994812       0.50198256 </v>
    <v>       0.71491712       0.00136066       0.49837860 </v>
    <v>       0.71507433       0.14418370       0.49929302 </v>
    <v>       0.71511072       0.28685275       0.49983658 </v>
    <v>       0.71483492       0.42876064       0.49840370 </v>
    <v>       0.71918246       0.57404930       0.49762241 </v>
    <v>       0.72140163       0.71684226       0.49715142 </v>
    <v>       0.71368890       0.85831983       0.49738732 </v>
    <v>       0.85769627       0.00100754       0.49795794 </v>
    <v>       0.85758209       0.14384406       0.49875450 </v>
    <v>       0.85774012       0.28663905       0.49907812 </v>
    <v>       0.85834594       0.42962923       0.49852542 </v>
    <v>       0.85925953       0.57295893       0.49719815 </v>
    <v>       0.86086547       0.71639150       0.49662632 </v>
    <v>       0.85817711       0.85788014       0.49703864 </v>
    <v>       0.04805517       0.09611125       0.50439380 </v>
    <v>       0.04731030       0.23847334       0.50587772 </v>
    <v>       0.04760066       0.38163011       0.50511217 </v>
    <v>       0.04880848       0.52487190       0.50295428 </v>
    <v>       0.04930511       0.66799922       0.50115539 </v>
    <v>       0.04925357       0.81105126       0.50065748 </v>
    <v>       0.04872781       0.95372003       0.50215887 </v>
    <v>       0.19104285       0.09623544       0.50971372 </v>
    <v>       0.19023147       0.23878539       0.51477374 </v>
    <v>       0.18888220       0.38081015       0.51681102 </v>
    <v>       0.19088075       0.52446535       0.51237782 </v>
    <v>       0.19152201       0.66791811       0.50746187 </v>
    <v>       0.19171254       0.81098649       0.50447117 </v>
    <v>       0.19157568       0.95376224       0.50541278 </v>
    <v>       0.33407154       0.09659086       0.50936533 </v>
    <v>       0.33443066       0.23895491       0.51789177 </v>
    <v>       0.32923507       0.37978642       0.53313342 </v>
    <v>       0.32975801       0.52241572       0.53039788 </v>
    <v>       0.33486112       0.66875843       0.51461315 </v>
    <v>       0.33411501       0.81089817       0.50731338 </v>
    <v>       0.33403354       0.95375079       0.50589240 </v>
    <v>       0.47696370       0.09657255       0.50541826 </v>
    <v>       0.47617050       0.23917682       0.50891512 </v>
    <v>       0.47613798       0.81092808       0.50658101 </v>
    <v>       0.47692475       0.95418178       0.50430454 </v>
    <v>       0.61967580       0.09680661       0.50135968 </v>
    <v>       0.61999009       0.23934633       0.50242933 </v>
    <v>       0.62178577       0.38061466       0.50006033 </v>
    <v>       0.62073035       0.81506313       0.49914149 </v>
    <v>       0.61981157       0.95465556       0.50061763 </v>
    <v>       0.76263840       0.09666158       0.49829230 </v>
    <v>       0.76273645       0.23913931       0.49902965 </v>
    <v>       0.76307109       0.38190221       0.49880309 </v>
    <v>       0.76361624       0.52587883       0.49723095 </v>
    <v>       0.76591930       0.66778100       0.49683548 </v>
    <v>       0.76180201       0.80935075       0.49668048 </v>
    <v>       0.76251099       0.95372859       0.49749701 </v>
    <v>       0.90505284       0.09589644       0.49939725 </v>
    <v>       0.90509107       0.23893516       0.49987432 </v>
    <v>       0.90551294       0.38203592       0.49951933 </v>
    <v>       0.90636989       0.52514284       0.49836115 </v>
    <v>       0.90729983       0.66811598       0.49729280 </v>
    <v>       0.90669412       0.81118483       0.49733907 </v>
    <v>       0.90532321       0.95303470       0.49841998 </v>
    <v>       0.46337658       0.35626283       0.51529111 </v>
    <v>       0.40129361       0.41802251       0.54251206 </v>
    <v>       0.40190627       0.55596042       0.54000866 </v>
    <v>       0.64680456       0.53961482       0.49879449 </v>
    <v>       0.58552920       0.41682728       0.49735028 </v>
    <v>       0.58355224       0.74323713       0.49888804 </v>
    <v>       0.46392615       0.68125356       0.51355791 </v>
    <v>       0.45437376       0.48290473       0.39253027 </v>
    <v>       0.54510109       0.56058020       0.42602114 </v>
    <v>       0.62929476       0.66371078       0.49894036 </v>
    <v>       0.50945910       0.49568980       0.42237614 </v>
   </varray>
  </structure>
  <varray name="forces" >
   <v>       0.00275369       0.00424171       0.00266825 </v>
   <v>      -0.00028583       0.00132827       0.00155493 </v>
   <v>      -0.00046545       0.00127095       0.00389493 </v>
   <v>      -0.00067169       0.00054495       0.00545281 </v>
   <v>       0.00019238       0.00063934       0.00118110 </v>
   <v>      -0.00014371       0.00031475      -0.00103848 </v>
   <v>       0.00055430       0.00077477       0.00113781 </v>
   <v>       0.00002995       0.00032357      -0.00027088 </v>
   <v>       0.00011842       0.00052558      -0.00128894 </v>
   <v>       0.00068296       0.00016050      -0.00145511 </v>
   <v>       0.00326755       0.00002740       0.00056046 </v>
   <v>       0.00078198      -0.00012433       0.00149670 </v>
   <v>       0.00056087       0.00092103      -0.00227495 </v>
   <v>       0.00013694      -0.00001260      -0.00132190 </v>
   <v>      -0.00028649       0.00021295      -0.00018822 </v>
   <v>      -0.00128456       0.00097946      -0.00003045 </v>
   <v>       0.00034513       0.00098180      -0.00551051 </v>
   <v>       0.00154615      -0.00076784      -0.00532005 </v>
   <v>       0.00162112      -0.00064672       0.00100732 </v>
   <v>      -0.00036167      -0.00053242       0.00064218 </v>
   <v>      -0.00015670       0.00024122       0.00007870 </v>
   <v>      -0.00047715       0.00029856       0.00175419 </v>
   <v>      -0.00038906       0.00097712      -0.00008670 </v>
   <v>      -0.00011929       0.00148027      -0.00274486 </v>
   <v>      -0.00045734      -0.00058358       0.00161897 </v>
   <v>      -0.00071485       0.00140383       0.00216236 </v>
   <v>      -0.00041270       0.00057484       0.00312804 </v>
   <v>      -0.00077016       0.00121284       0.00210831 </v>
   <v>      -0.00052123       0.00146114      -0.00003321 </v>
   <v>       0.00044329       0.00025676       0.00302906 </v>
   <v>       0.00024415       0.00051813       0.00619387 </v>
   <v>       0.00031778       0.00219149       0.00215695 </v>
   <v>      -0.00053251       0.00097415       0.00166597 </v>
   <v>       0.00142344      -0.00089304       0.00411680 </v>
   <v>      -0.00131642      -0.00030992      -0.00002808 </v>
   <v>       0.00086273      -0.00081428       0.00238979 </v>
   <v>       0.00144089       0.00102384       0.00557626 </v>
   <v>      -0.00010138       0.00026360       0.00488895 </v>
   <v>      -0.00027788       0.00095679       0.00374591 </v>
   <v>      -0.00097001       0.00077076       0.00250786 </v>
   <v>      -0.00084347       0.00087740       0.00232774 </v>
   <v>      -0.00068174      -0.00186157       0.00243359 </v>
   <v>      -0.00034229       0.00032761       0.00347301 </v>
   <v>       0.00119617       0.00081270       0.00367860 </v>
   <v>      -0.00065527      -0.00040896       0.00018983 </v>
   <v>      -0.00176537      -0.00176523       0.00192412 </v>
   <v>      -0.00166950       0.00180976       0.00306678 </v>
   <v>       0.00007102       0.00053850       0.00321110 </v>
   <v>      -0.00008380       0.00081417      -0.00008483 </v>
   <v>       0.00025445       0.00056084      -0.00133649 </v>
   <v>       0.00017134       0.00019888       0.00086060 </v>
   <v>       0.00013835      -0.00045493      -0.00091179 </v>
   <v>       0.00081967      -0.00019686      -0.00264237 </v>
   <v>       0.00058008      -0.00035366      -0.00212306 </v>
   <v>       0.00137498       0.00057461       0.00121490 </v>
   <v>       0.00007221       0.00035863      -0.00025841 </v>
   <v>       0.00023766       0.00019277      -0.00061656 </v>
   <v>       0.00008670      -0.00030534      -0.00045161 </v>
   <v>       0.00005782      -0.00053983      -0.00063159 </v>
   <v>       0.00024434      -0.00008286      -0.00297679 </v>
   <v>       0.00228586       0.00072040      -0.00724363 </v>
   <v>       0.00223830      -0.00062755      -0.00182427 </v>
   <v>       0.00173696       0.00262595       0.00088880 </v>
   <v>       0.00037895      -0.00154334       0.00015074 </v>
   <v>      -0.00033221      -0.00014651       0.00060030 </v>
   <v>      -0.00028742      -0.00026925       0.00148333 </v>
   <v>       0.00011265      -0.00010219      -0.00183761 </v>
   <v>       0.00109324      -0.00033169       0.00123379 </v>
   <v>       0.00013345      -0.00045476       0.00163329 </v>
   <v>      -0.00060326      -0.00075862       0.00292093 </v>
   <v>      -0.00018487      -0.00005029       0.00068079 </v>
   <v>       0.00011128      -0.00008098      -0.00156591 </v>
   <v>      -0.00169660      -0.00116967       0.00480236 </v>
   <v>      -0.00007367      -0.00051042       0.00473195 </v>
   <v>      -0.00189825      -0.00111042       0.00447328 </v>
   <v>      -0.00041853      -0.00081088       0.00272490 </v>
   <v>      -0.00001683       0.00048071       0.00181784 </v>
   <v>       0.00085063      -0.00133487       0.00285384 </v>
   <v>       0.00126853       0.00330915       0.00442997 </v>
   <v>      -0.00009999       0.00157334       0.00393624 </v>
   <v>      -0.00039375      -0.00010152       0.00561095 </v>
   <v>      -0.00057737      -0.00029202       0.00293625 </v>
   <v>      -0.00084254       0.00006158       0.00326757 </v>
   <v>      -0.00073032       0.00045201       0.00452231 </v>
   <v>       0.00044424       0.00111727       0.00078807 </v>
   <v>       0.00021958       0.00059780       0.00058881 </v>
   <v>       0.00090217       0.00101662       0.00304383 </v>
   <v>      -0.00013408      -0.00008148       0.00319882 </v>
   <v>       0.00020238       0.00047898      -0.00538968 </v>
   <v>       0.00313618       0.00063187      -0.00772448 </v>
   <v>       0.00165256       0.00154480      -0.00619287 </v>
   <v>      -0.00091352       0.00092674       0.00234402 </v>
   <v>       0.00024880       0.00050454      -0.00305041 </v>
   <v>       0.00066539      -0.00003432       0.00440859 </v>
   <v>       0.00052243       0.00032442       0.00330124 </v>
   <v>      -0.00056852      -0.01310294      -0.01251045 </v>
   <v>      -0.01099382      -0.01151686      -0.03858429 </v>
   <v>      -0.00103671      -0.00274059      -0.00580178 </v>
   <v>      -0.00227231      -0.00345930      -0.03712033 </v>
  </varray>
  <varray name="stress" >
   <v>       5.30620170       0.05160561       0.01425016 </v>
   <v>       0.05160190       3.61023039       0.02390575 </v>
   <v>       0.01425172       0.02390633      -0.27668529 </v>
  </varray>
  <energy>
   <i name="e_fr_energy">   -859.62930845 </i>
   <i name="e_wo_entrp">   -859.62930844 </i>
   <i name="e_0_energy">   -859.62930845 </i>
  </energy>
  <time name="totalsc">  525.84  529.61</time>
 </calculation>
 <calculation>
  <scstep>
   <time name="dav">   74.45   74.98</time>
[...]
       <r>   -17.2299     8.3009    34.8137 </r>
       <r>   -17.1050    10.7534    36.1571 </r>
       <r>   -16.9801     3.8840    36.6423 </r>
       <r>   -16.8551     8.5286    37.7078 </r>
       <r>   -16.7302     9.3074    38.8705 </r>
       <r>   -16.6053     2.8556    39.2273 </r>
       <r>   -16.4803     6.1435    39.9948 </r>
       <r>   -16.3554     9.6607    41.2017 </r>
       <r>   -16.2305    14.1289    42.9668 </r>
       <r>   -16.1056     6.9725    43.8378 </r>
       <r>   -15.9806     1.7912    44.0616 </r>
       <r>   -15.8557     4.2652    44.5944 </r>
       <r>   -15.7308     1.4600    44.7768 </r>
       <r>   -15.6058     3.6101    45.2278 </r>
       <r>   -15.4809     1.7155    45.4421 </r>
       <r>   -15.3560     8.0071    46.4424 </r>
       <r>   -15.2311     9.3389    47.6091 </r>
       <r>   -15.1061     6.6826    48.4440 </r>
       <r>   -14.9812     5.9499    49.1873 </r>
       <r>   -14.8563    16.6881    51.2721 </r>
       <r>   -14.7314     5.8600    52.0042 </r>
       <r>   -14.6064     3.5071    52.4423 </r>
       <r>   -14.4815    12.6323    54.0204 </r>
       <r>   -14.3566     9.9516    55.2636 </r>
       <r>   -14.2316     7.6767    56.2227 </r>
       <r>   -14.1067    10.6576    57.5541 </r>
       <r>   -13.9818     9.5472    58.7468 </r>
       <r>   -13.8569     5.9977    59.4961 </r>
       <r>   -13.7319     3.9328    59.9874 </r>
       <r>   -13.6070     5.8677    60.7204 </r>
       <r>   -13.4821     9.7975    61.9444 </r>
       <r>   -13.3572     6.9627    62.8142 </r>
       <r>   -13.2322     7.7022    63.7765 </r>
       <r>   -13.1073     7.1096    64.6646 </r>
       <r>   -12.9824     5.9466    65.4075 </r>
       <r>   -12.8574     3.5725    65.8538 </r>
       <r>   -12.7325     9.3688    67.0243 </r>
       <r>   -12.6076     5.1108    67.6628 </r>
       <r>   -12.4827    12.2255    69.1901 </r>
       <r>   -12.3577    13.9334    70.9307 </r>
       <r>   -12.2328    11.6697    72.3886 </r>
       <r>   -12.1079     5.4262    73.0665 </r>
       <r>   -11.9830     5.2948    73.7279 </r>
       <r>   -11.8580     7.1698    74.6236 </r>
       <r>   -11.7331     8.6881    75.7090 </r>
       <r>   -11.6082    10.9868    77.0816 </r>
       <r>   -11.4832     7.1902    77.9798 </r>
       <r>   -11.3583    14.4923    79.7903 </r>
       <r>   -11.2334    10.8962    81.1515 </r>
       <r>   -11.1085    13.8400    82.8805 </r>
       <r>   -10.9835     7.0619    83.7628 </r>
       <r>   -10.8586     9.9163    85.0016 </r>
       <r>   -10.7337    15.1406    86.8930 </r>
       <r>   -10.6087     4.8023    87.4930 </r>
       <r>   -10.4838     5.7105    88.2064 </r>
       <r>   -10.3589     4.0121    88.7076 </r>
       <r>   -10.2340    15.6236    90.6594 </r>
       <r>   -10.1090    14.3344    92.4502 </r>
       <r>    -9.9841    15.2635    94.3570 </r>
       <r>    -9.8592    17.6849    96.5663 </r>
       <r>    -9.7343    17.8823    98.8003 </r>
       <r>    -9.6093    17.7825   101.0219 </r>
       <r>    -9.4844     9.4300   102.1999 </r>
       <r>    -9.3595    18.5289   104.5147 </r>
       <r>    -9.2345    15.5961   106.4631 </r>
       <r>    -9.1096    17.3475   108.6303 </r>
       <r>    -8.9847    21.7094   111.3424 </r>
       <r>    -8.8598    25.7312   114.5569 </r>
       <r>    -8.7348    29.3782   118.2270 </r>
       <r>    -8.6099    24.7046   121.3133 </r>
       <r>    -8.4850    15.5391   123.2546 </r>
       <r>    -8.3601    18.6441   125.5837 </r>
       <r>    -8.2351    19.1245   127.9729 </r>
       <r>    -8.1102    19.8088   130.4476 </r>
       <r>    -7.9853    23.8006   133.4209 </r>
       <r>    -7.8603    17.9866   135.6680 </r>
       <r>    -7.7354    16.7410   137.7594 </r>
       <r>    -7.6105    20.0969   140.2700 </r>
       <r>    -7.4856    13.2934   141.9307 </r>
       <r>    -7.3606     6.0086   142.6814 </r>
       <r>    -7.2357    15.1385   144.5726 </r>
       <r>    -7.1108    24.1148   147.5852 </r>
       <r>    -6.9858    18.3553   149.8783 </r>
       <r>    -6.8609    14.9789   151.7496 </r>
       <r>    -6.7360    11.3619   153.1690 </r>
       <r>    -6.6111    10.1020   154.4310 </r>
       <r>    -6.4861    13.3091   156.0937 </r>
       <r>    -6.3612    10.5340   157.4097 </r>
       <r>    -6.2363    12.5655   158.9794 </r>
       <r>    -6.1114    18.6200   161.3056 </r>
       <r>    -5.9864    15.4026   163.2298 </r>
       <r>    -5.8615    12.5394   164.7963 </r>
       <r>    -5.7366    19.0543   167.1767 </r>
       <r>    -5.6116    16.4938   169.2373 </r>
       <r>    -5.4867     9.7410   170.4542 </r>
       <r>    -5.3618     6.8446   171.3092 </r>
       <r>    -5.2369     3.6589   171.7663 </r>
       <r>    -5.1119     2.0901   172.0274 </r>
       <r>    -4.9870    13.9948   173.7758 </r>
       <r>    -4.8621    20.9322   176.3908 </r>
       <r>    -4.7372    14.6508   178.2211 </r>
       <r>    -4.6122     5.1373   178.8629 </r>
       <r>    -4.4873     9.4206   180.0398 </r>
       <r>    -4.3624     1.6886   180.2507 </r>
       <r>    -4.2374     2.9153   180.6149 </r>
       <r>    -4.1125     8.3412   181.6570 </r>
       <r>    -3.9876     7.0907   182.5428 </r>
       <r>    -3.8627     6.7523   183.3863 </r>
       <r>    -3.7377     7.5778   184.3330 </r>
       <r>    -3.6128     5.2795   184.9926 </r>
       <r>    -3.4879     0.0595   185.0000 </r>
       <r>    -3.3630     0.1696   185.0212 </r>
       <r>    -3.2380     3.5814   185.4686 </r>
       <r>    -3.1131     5.9081   186.2067 </r>
       <r>    -2.9882     0.8888   186.3177 </r>
       <r>    -2.8632     1.4556   186.4996 </r>
       <r>    -2.7383     0.0035   186.5000 </r>
       <r>    -2.6134     0.5984   186.5748 </r>
       <r>    -2.4885     3.3734   186.9962 </r>
       <r>    -2.3635     0.0305   187.0000 </r>
       <r>    -2.2386     0.2992   187.0374 </r>
       <r>    -2.1137     3.5770   187.4843 </r>
       <r>    -1.9887     0.1260   187.5000 </r>
       <r>    -1.8638     0.0008   187.5001 </r>
       <r>    -1.7389     1.2435   187.6554 </r>
       <r>    -1.6140     2.8653   188.0134 </r>
       <r>    -1.4890     6.9729   188.8845 </r>
       <r>    -1.3641     0.9245   189.0000 </r>
       <r>    -1.2392     0.2235   189.0279 </r>
       <r>    -1.1143     6.8648   189.8855 </r>
       <r>    -0.9893     4.9200   190.5002 </r>
       <r>    -0.8644     4.5692   191.0710 </r>
       <r>    -0.7395    15.8328   193.0489 </r>
       <r>    -0.6145     7.7915   194.0223 </r>
       <r>    -0.4896     8.5335   195.0884 </r>
       <r>    -0.3647    10.6480   196.4186 </r>
       <r>    -0.2398     6.0193   197.1706 </r>
       <r>    -0.1148     4.8144   197.7720 </r>
       <r>     0.0101     9.7294   198.9875 </r>
       <r>     0.1350     8.3220   200.0272 </r>
       <r>     0.2599    11.8755   201.5107 </r>
       <r>     0.3849     8.7626   202.6054 </r>
       <r>     0.5098     3.0113   202.9816 </r>
       <r>     0.6347     3.1207   203.3715 </r>
       <r>     0.7597    12.5282   204.9366 </r>
       <r>     0.8846    10.2339   206.2151 </r>
       <r>     1.0095     5.1746   206.8615 </r>
       <r>     1.1344    10.6133   208.1874 </r>
       <r>     1.2594     6.9246   209.0525 </r>
       <r>     1.3843     9.9733   210.2984 </r>
       <r>     1.5092    10.7145   211.6370 </r>
       <r>     1.6341    18.5675   213.9566 </r>
       <r>     1.7591    14.4779   215.7652 </r>
       <r>     1.8840    10.6831   217.0999 </r>
       <r>     2.0089    13.8482   218.8299 </r>
       <r>     2.1339    19.7506   221.2973 </r>
       <r>     2.2588    17.0066   223.4219 </r>
       <r>     2.3837    20.5006   225.9830 </r>
       <r>     2.5086    23.0445   228.8618 </r>
       <r>     2.6336     7.1296   229.7525 </r>
       <r>     2.7585    14.0869   231.5124 </r>
       <r>     2.8834    29.4213   235.1879 </r>
       <r>     3.0084    36.1621   239.7055 </r>
       <r>     3.1333    17.2786   241.8641 </r>
       <r>     3.2582    26.2470   245.1431 </r>
       <r>     3.3831    19.9504   247.6354 </r>
       <r>     3.5081    22.0547   250.3907 </r>
       <r>     3.6330    17.7546   252.6087 </r>
       <r>     3.7579    18.7116   254.9463 </r>
       <r>     3.8828    25.8589   258.1768 </r>
       <r>     4.0078    23.0084   261.0512 </r>
       <r>     4.1327    19.7009   263.5124 </r>
       <r>     4.2576    13.3054   265.1746 </r>
       <r>     4.3826    29.8968   268.9095 </r>
       <r>     4.5075     8.6970   269.9960 </r>
       <r>     4.6324     0.0320   270.0000 </r>
       <r>     4.7573     0.0000   270.0000 </r>
       <r>     4.8823     0.0000   270.0000 </r>
       <r>     5.0072     0.0000   270.0000 </r>
       <r>     5.1321     0.0000   270.0000 </r>
       <r>     5.2570     0.0000   270.0000 </r>
       <r>     5.3820     0.0000   270.0000 </r>
       <r>     5.5069     0.0000   270.0000 </r>
       <r>     5.6318     0.0000   270.0000 </r>
       <r>     5.7568     0.0000   270.0000 </r>
       <r>     5.8817     0.0000   270.0000 </r>
       <r>     6.0066     0.0000   270.0000 </r>
       <r>     6.1315     0.0000   270.0000 </r>
      </set>
     </set>
    </array>
   </total>
  </dos>
 </calculation>
 <structure name="finalpos" >
  <crystal>
   <varray name="basis" >
    <v>      17.27103806       0.00000000       0.00000000 </v>
    <v>      -8.63551903      14.95715771       0.00000000 </v>
    <v>       0.00000000       0.00000000      15.00000000 </v>
   </varray>
   <i name="volume">   3874.88459904 </i>
   <varray name="rec_basis" >
    <v>       0.05790040       0.03342881       0.00000000 </v>
    <v>       0.00000000       0.06685762       0.00000000 </v>
    <v>       0.00000000       0.00000000       0.06666667 </v>
   </varray>
  </crystal>
  <varray name="positions" >
   <v>       0.00068671       0.00100937       0.50152640 </v>
   <v>       0.00032581       0.14370723       0.50372669 </v>
   <v>       0.00030511       0.28661851       0.50455198 </v>
   <v>       0.00073710       0.42966782       0.50328164 </v>
   <v>       0.00146209       0.57276793       0.50100131 </v>
   <v>       0.00240890       0.71602968       0.49916453 </v>
   <v>       0.00197526       0.85904198       0.49932041 </v>
   <v>       0.14401404       0.00161248       0.50588642 </v>
   <v>       0.14325068       0.14396626       0.50953466 </v>
   <v>       0.14246625       0.28615807       0.51321615 </v>
   <v>       0.14276671       0.42939655       0.51243997 </v>
   <v>       0.14386644       0.57245974       0.50831955 </v>
   <v>       0.14439555       0.71564817       0.50508904 </v>
   <v>       0.14435735       0.85877226       0.50385299 </v>
   <v>       0.28661938       0.00132082       0.50752917 </v>
   <v>       0.28636556       0.14394103       0.51264015 </v>
   <v>       0.28592750       0.28764351       0.52229457 </v>
   <v>       0.28383281       0.42835319       0.52785105 </v>
   <v>       0.28659793       0.57154935       0.52032323 </v>
   <v>       0.28664786       0.71582347       0.51109063 </v>
   <v>       0.28665843       0.85877640       0.50693023 </v>
   <v>       0.42952435       0.00167737       0.50607911 </v>
   <v>       0.42929747       0.14416167       0.50821079 </v>
   <v>       0.42758194       0.28385444       0.51402220 </v>
   <v>       0.42781227       0.71772432       0.51315093 </v>
   <v>       0.42920714       0.85896969       0.50725899 </v>
   <v>       0.57216246       0.00208710       0.50328472 </v>
   <v>       0.57222140       0.14427072       0.50391167 </v>
   <v>       0.57305147       0.28754039       0.50300223 </v>
   <v>       0.57280490       0.86004196       0.50305560 </v>
   <v>       0.71505313       0.00150066       0.49934051 </v>
   <v>       0.71517091       0.14430509       0.50057213 </v>
   <v>       0.71519541       0.28698185       0.50001225 </v>
   <v>       0.71486866       0.42889433       0.49673729 </v>
   <v>       0.71923072       0.57422149       0.49290637 </v>
   <v>       0.72149081       0.71706610       0.49173232 </v>
   <v>       0.71381050       0.85849098       0.49663901 </v>
   <v>       0.85782509       0.00117440       0.49820104 </v>
   <v>       0.85770273       0.14399767       0.49999773 </v>
   <v>       0.85782532       0.28678260       0.50020639 </v>
   <v>       0.85839227       0.42976284       0.49862995 </v>
   <v>       0.85929473       0.57309665       0.49602261 </v>
   <v>       0.86097774       0.71658961       0.49458393 </v>
   <v>       0.85828703       0.85806552       0.49598116 </v>
   <v>       0.04817337       0.09627071       0.50477726 </v>
   <v>       0.04741660       0.23862454       0.50687914 </v>
   <v>       0.04768074       0.38178893       0.50641227 </v>
   <v>       0.04882312       0.52498758       0.50402555 </v>
   <v>       0.04934239       0.66811731       0.50161876 </v>
   <v>       0.04932887       0.81117617       0.50064896 </v>
   <v>       0.04884510       0.95387449       0.50215344 </v>
   <v>       0.19116622       0.09636352       0.50983373 </v>
   <v>       0.19037303       0.23893689       0.51486431 </v>
   <v>       0.18903229       0.38097209       0.51740713 </v>
   <v>       0.19096277       0.52461411       0.51346621 </v>
   <v>       0.19156458       0.66803240       0.50852750 </v>
   <v>       0.19177470       0.81108984       0.50541420 </v>
   <v>       0.19167736       0.95386973       0.50590175 </v>
   <v>       0.33418752       0.09669719       0.50959115 </v>
   <v>       0.33457032       0.23908831       0.51739494 </v>
   <v>       0.32951015       0.37996900       0.53243956 </v>
   <v>       0.32997373       0.52257962       0.53037592 </v>
   <v>       0.33492799       0.66889547       0.51565854 </v>
   <v>       0.33420101       0.81099461       0.50845734 </v>
   <v>       0.33415333       0.95384749       0.50684148 </v>
   <v>       0.47706493       0.09667662       0.50587900 </v>
   <v>       0.47628096       0.23929639       0.50833066 </v>
   <v>       0.47625002       0.81104238       0.50779082 </v>
   <v>       0.47703124       0.95427213       0.50529749 </v>
   <v>       0.61976076       0.09690540       0.50242778 </v>
   <v>       0.62007496       0.23946753       0.50240858 </v>
   <v>       0.62182247       0.38071096       0.49828038 </v>
   <v>       0.62086839       0.81517090       0.49966542 </v>
   <v>       0.61993883       0.95475624       0.50166902 </v>
   <v>       0.76274934       0.09679821       0.49961294 </v>
   <v>       0.76282694       0.23926229       0.49997889 </v>
   <v>       0.76312042       0.38203521       0.49833854 </v>
   <v>       0.76364010       0.52602757       0.49466598 </v>
   <v>       0.76603035       0.66799971       0.49250851 </v>
   <v>       0.76192431       0.80955771       0.49426445 </v>
   <v>       0.76263560       0.95388160       0.49761018 </v>
   <v>       0.90517008       0.09605417       0.50023740 </v>
   <v>       0.90520916       0.23909981       0.50125575 </v>
   <v>       0.90556494       0.38217659       0.50038170 </v>
   <v>       0.90640128       0.52527492       0.49827025 </v>
   <v>       0.90736173       0.66826566       0.49615560 </v>
   <v>       0.90681730       0.81138203       0.49614858 </v>
   <v>       0.90544099       0.95319891       0.49832058 </v>
   <v>       0.46350441       0.35639856       0.51381978 </v>
   <v>       0.40162868       0.41816409       0.54154052 </v>
   <v>       0.40219534       0.55614821       0.53945874 </v>
   <v>       0.64681776       0.53986724       0.49225486 </v>
   <v>       0.58553734       0.41687425       0.49491986 </v>
   <v>       0.58376936       0.74332815       0.49981425 </v>
   <v>       0.46403110       0.68141295       0.51479786 </v>
   <v>       0.44990737       0.47921512       0.39176612 </v>
   <v>       0.54283560       0.55876505       0.41692706 </v>
   <v>       0.62942531       0.66403529       0.48940531 </v>
   <v>       0.50793257       0.49375490       0.41569156 </v>
  </varray>
  <varray name="selective"  type="logical" >
   <v type="logical" >  T  T  T </v>
   <v type="logical" >  T  T  T </v>
   <v type="logical" >  T  T  T </v>
   <v type="logical" >  T  T  T </v>
   <v type="logical" >  T  T  T </v>
   <v type="logical" >  T  T  T </v>
   <v type="logical" >  T  T  T </v>
   <v type="logical" >  T  T  T </v>
   <v type="logical" >  T  T  T </v>
   <v type="logical" >  T  T  T </v>
   <v type="logical" >  T  T  T </v>
   <v type="logical" >  T  T  T </v>
   <v type="logical" >  T  T  T </v>
   <v type="logical" >  T  T  T </v>
   <v type="logical" >  T  T  T </v>
   <v type="logical" >  T  T  T </v>
   <v type="logical" >  T  T  T </v>
   <v type="logical" >  T  T  T </v>
   <v type="logical" >  T  T  T </v>
   <v type="logical" >  T  T  T </v>
   <v type="logical" >  T  T  T </v>
   <v type="logical" >  T  T  T </v>
   <v type="logical" >  T  T  T </v>
   <v type="logical" >  T  T  T </v>
   <v type="logical" >  T  T  T </v>
   <v type="logical" >  T  T  T </v>
   <v type="logical" >  T  T  T </v>
   <v type="logical" >  T  T  T </v>
   <v type="logical" >  T  T  T </v>
   <v type="logical" >  T  T  T </v>
   <v type="logical" >  T  T  T </v>
   <v type="logical" >  T  T  T </v>
   <v type="logical" >  T  T  T </v>
   <v type="logical" >  T  T  T </v>
   <v type="logical" >  T  T  T </v>
   <v type="logical" >  T  T  T </v>
   <v type="logical" >  T  T  T </v>
   <v type="logical" >  T  T  T </v>
   <v type="logical" >  T  T  T </v>
   <v type="logical" >  T  T  T </v>
   <v type="logical" >  T  T  T </v>
   <v type="logical" >  T  T  T </v>
   <v type="logical" >  T  T  T </v>
   <v type="logical" >  T  T  T </v>
   <v type="logical" >  T  T  T </v>
   <v type="logical" >  T  T  T </v>
   <v type="logical" >  T  T  T </v>
   <v type="logical" >  T  T  T </v>
   <v type="logical" >  T  T  T </v>
   <v type="logical" >  T  T  T </v>
   <v type="logical" >  T  T  T </v>
   <v type="logical" >  T  T  T </v>
   <v type="logical" >  T  T  T </v>
   <v type="logical" >  T  T  T </v>
   <v type="logical" >  T  T  T </v>
   <v type="logical" >  T  T  T </v>
   <v type="logical" >  T  T  T </v>
   <v type="logical" >  T  T  T </v>
   <v type="logical" >  T  T  T </v>
   <v type="logical" >  T  T  T </v>
   <v type="logical" >  T  T  T </v>
   <v type="logical" >  T  T  T </v>
   <v type="logical" >  T  T  T </v>
   <v type="logical" >  T  T  T </v>
   <v type="logical" >  T  T  T </v>
   <v type="logical" >  T  T  T </v>
   <v type="logical" >  T  T  T </v>
   <v type="logical" >  T  T  T </v>
   <v type="logical" >  T  T  T </v>
   <v type="logical" >  T  T  T </v>
   <v type="logical" >  T  T  T </v>
   <v type="logical" >  T  T  T </v>
   <v type="logical" >  T  T  T </v>
   <v type="logical" >  T  T  T </v>
   <v type="logical" >  T  T  T </v>
   <v type="logical" >  T  T  T </v>
   <v type="logical" >  T  T  T </v>
   <v type="logical" >  T  T  T </v>
   <v type="logical" >  T  T  T </v>
   <v type="logical" >  T  T  T </v>
   <v type="logical" >  T  T  T </v>
   <v type="logical" >  T  T  T </v>
   <v type="logical" >  T  T  T </v>
   <v type="logical" >  T  T  T </v>
   <v type="logical" >  T  T  T </v>
   <v type="logical" >  T  T  T </v>
   <v type="logical" >  T  T  T </v>
   <v type="logical" >  T  T  T </v>
   <v type="logical" >  T  T  T </v>
   <v type="logical" >  T  T  T </v>
   <v type="logical" >  T  T  T </v>
   <v type="logical" >  T  T  T </v>
   <v type="logical" >  T  T  T </v>
   <v type="logical" >  T  T  T </v>
   <v type="logical" >  T  T  T </v>
   <v type="logical" >  T  T  T </v>
   <v type="logical" >  T  T  T </v>
   <v type="logical" >  T  T  T </v>
   <v type="logical" >  T  T  T </v>
  </varray>
  <nose>
   <v>      -3.00000000       0.00000000       0.00010000       0.00010000 </v>
  </nose>
 </structure>
</modeling>
