unknown system                          
           1
    17.271038    0.000000    0.000000
    -8.635519   14.957158    0.000000
     0.000000    0.000000   15.000000
   C    H    F    O 
    88     9     1     1
Direct configuration=     1
   0.00057286  0.00085270  0.50141585
   0.00021413  0.14355094  0.50294362
   0.00019931  0.28645653  0.50326781
   0.00070161  0.42954534  0.50211514
   0.00144916  0.57264970  0.50045041
   0.00235466  0.71590795  0.49930100
   0.00186670  0.85887957  0.49966707
   0.14390128  0.00148456  0.50566999
   0.14311694  0.14381520  0.50936936
   0.14232941  0.28599767  0.51263486
   0.14266348  0.42924055  0.51134939
   0.14385013  0.57234711  0.50716218
   0.14435606  0.71553254  0.50418671
   0.14428979  0.85867160  0.50331968
   0.28650687  0.00122939  0.50688212
   0.28624638  0.14382620  0.51267562
   0.28574477  0.28748292  0.52275855
   0.28358797  0.42816733  0.52797429
   0.28648252  0.57139689  0.51961143
   0.28659988  0.71571802  0.50996212
   0.28657056  0.85867536  0.50577006
   0.42940245  0.00157486  0.50528840
   0.42918840  0.14404700  0.50816789
   0.42747228  0.28371932  0.51493301
   0.42772989  0.71758717  0.51193627
   0.42911609  0.85887181  0.50616380
   0.57204612  0.00199487  0.50219735
   0.57212862  0.14414802  0.50335440
   0.57296541  0.28741915  0.50382943
   0.57267521  0.85994812  0.50198256
   0.71491712  0.00136066  0.49837860
   0.71507433  0.14418370  0.49929302
   0.71511072  0.28685275  0.49983658
   0.71483492  0.42876064  0.49840370
   0.71918246  0.57404930  0.49762241
   0.72140163  0.71684226  0.49715142
   0.71368890  0.85831983  0.49738732
   0.85769627  0.00100754  0.49795794
   0.85758209  0.14384406  0.49875450
   0.85774012  0.28663905  0.49907812
   0.85834594  0.42962923  0.49852542
   0.85925953  0.57295893  0.49719815
   0.86086547  0.71639150  0.49662632
   0.85817711  0.85788014  0.49703864
   0.04805517  0.09611125  0.50439380
   0.04731030  0.23847334  0.50587772
   0.04760066  0.38163011  0.50511217
   0.04880848  0.52487190  0.50295428
   0.04930511  0.66799922  0.50115539
   0.04925357  0.81105126  0.50065748
   0.04872781  0.95372003  0.50215887
   0.19104285  0.09623544  0.50971372
   0.19023147  0.23878539  0.51477374
   0.18888220  0.38081015  0.51681102
   0.19088075  0.52446535  0.51237782
   0.19152201  0.66791811  0.50746187
   0.19171254  0.81098649  0.50447117
   0.19157568  0.95376224  0.50541278
   0.33407154  0.09659086  0.50936533
   0.33443066  0.23895491  0.51789177
   0.32923507  0.37978642  0.53313342
   0.32975801  0.52241572  0.53039788
   0.33486112  0.66875843  0.51461315
   0.33411501  0.81089817  0.50731338
   0.33403354  0.95375079  0.50589240
   0.47696370  0.09657255  0.50541826
   0.47617050  0.23917682  0.50891512
   0.47613798  0.81092808  0.50658101
   0.47692475  0.95418178  0.50430454
   0.61967580  0.09680661  0.50135968
   0.61999009  0.23934633  0.50242933
   0.62178577  0.38061466  0.50006033
   0.62073035  0.81506313  0.49914149
   0.61981157  0.95465556  0.50061763
   0.76263840  0.09666158  0.49829230
   0.76273645  0.23913931  0.49902965
   0.76307109  0.38190221  0.49880309
   0.76361624  0.52587883  0.49723095
   0.76591930  0.66778100  0.49683548
   0.76180201  0.80935075  0.49668048
   0.76251099  0.95372859  0.49749701
   0.90505284  0.09589644  0.49939725
   0.90509107  0.23893516  0.49987432
   0.90551294  0.38203592  0.49951933
   0.90636989  0.52514284  0.49836115
   0.90729983  0.66811598  0.49729280
   0.90669412  0.81118483  0.49733907
   0.90532321  0.95303470  0.49841998
   0.46337658  0.35626283  0.51529111
   0.40129361  0.41802251  0.54251206
   0.40190627  0.55596042  0.54000866
   0.64680456  0.53961482  0.49879449
   0.58552920  0.41682728  0.49735028
   0.58355224  0.74323713  0.49888804
   0.46392615  0.68125356  0.51355791
   0.45437376  0.48290473  0.39253027
   0.54510109  0.56058020  0.42602114
   0.62929476  0.66371078  0.49894036
   0.50945910  0.49568980  0.42237614
Direct configuration=     2
   0.00057469  0.00085338  0.50141324
   0.00021224  0.14354983  0.50294417
   0.00019720  0.28645634  0.50327445
   0.00070077  0.42954621  0.50212334
   0.00145034  0.57265170  0.50044991
   0.00235518  0.71590979  0.49929303
   0.00186846  0.85888080  0.49966064
   0.14390125  0.00148285  0.50567429
   0.14311633  0.14381205  0.50937324
   0.14232776  0.28599454  0.51264189
   0.14266502  0.42924114  0.51136128
   0.14385099  0.57234775  0.50717331
   0.14435670  0.71553395  0.50419165
   0.14428986  0.85867216  0.50332300
   0.28650653  0.00122852  0.50688942
   0.28624578  0.14382320  0.51268349
   0.28574482  0.28748147  0.52276706
   0.28358912  0.42816692  0.52798855
   0.28648498  0.57139836  0.51963023
   0.28660121  0.71571796  0.50997491
   0.28657166  0.85867567  0.50577919
   0.42940266  0.00157254  0.50529442
   0.42918766  0.14404527  0.50817006
   0.42747180  0.28371792  0.51493385
   0.42773197  0.71758722  0.51194749
   0.42911753  0.85886880  0.50617128
   0.57204573  0.00199161  0.50219878
   0.57212741  0.14414602  0.50335321
   0.57296438  0.28741775  0.50381867
   0.57267465  0.85994608  0.50197853
   0.71491567  0.00135962  0.49837462
   0.71507312  0.14418095  0.49928918
   0.71511061  0.28685176  0.49982677
   0.71483686  0.42876152  0.49837905
   0.71918583  0.57405180  0.49755122
   0.72140661  0.71684910  0.49707900
   0.71368717  0.85831998  0.49736180
   0.85769524  0.00100752  0.49794899
   0.85758104  0.14384394  0.49875254
   0.85774004  0.28663879  0.49907537
   0.85834747  0.42963114  0.49851558
   0.85926089  0.57295943  0.49717661
   0.86086748  0.71639412  0.49659653
   0.85817963  0.85788208  0.49701693
   0.04805533  0.09611333  0.50439426
   0.04731170  0.23847600  0.50588373
   0.04760124  0.38163263  0.50512176
   0.04880863  0.52487190  0.50296180
   0.04930556  0.66799922  0.50115578
   0.04925407  0.81105129  0.50065315
   0.04872823  0.95372166  0.50215807
   0.19104233  0.09623768  0.50971995
   0.19023192  0.23878775  0.51478002
   0.18888122  0.38080903  0.51682161
   0.19088106  0.52446401  0.51239202
   0.19152080  0.66791733  0.50747185
   0.19171263  0.81098566  0.50447838
   0.19157544  0.95376213  0.50541883
   0.33407131  0.09659290  0.50937137
   0.33443204  0.23895797  0.51789933
   0.32923460  0.37978569  0.53314732
   0.32975656  0.52241102  0.53041947
   0.33485935  0.66875640  0.51462902
   0.33411348  0.81089677  0.50732380
   0.33403255  0.95375078  0.50590041
   0.47696428  0.09657522  0.50542069
   0.47617131  0.23918185  0.50891146
   0.47613817  0.81092766  0.50658532
   0.47692445  0.95418467  0.50430870
   0.61967541  0.09680956  0.50135915
   0.61999040  0.23935019  0.50242061
   0.62178542  0.38061839  0.50003565
   0.62073279  0.81506297  0.49912499
   0.61981222  0.95465684  0.50061619
   0.76263746  0.09666263  0.49829042
   0.76273496  0.23914147  0.49902540
   0.76306976  0.38190393  0.49878683
   0.76361405  0.52587461  0.49719300
   0.76592292  0.66778328  0.49677655
   0.76180571  0.80935231  0.49663969
   0.76251255  0.95372898  0.49748375
   0.90505361  0.09589706  0.49939337
   0.90509079  0.23893721  0.49987511
   0.90551141  0.38203724  0.49951969
   0.90636966  0.52514328  0.49835009
   0.90729969  0.66811588  0.49727241
   0.90669580  0.81118548  0.49732048
   0.90532466  0.95303588  0.49840953
   0.46337759  0.35626541  0.51528916
   0.40129352  0.41801945  0.54253549
   0.40190681  0.55596184  0.54002990
   0.64680782  0.53961532  0.49870342
   0.58553083  0.41682921  0.49732396
   0.58355316  0.74323529  0.49886862
   0.46392635  0.68125290  0.51357187
   0.45435454  0.48292195  0.39260178
   0.54512894  0.56060275  0.42605692
   0.62929908  0.66371499  0.49881545
   0.50944191  0.49570196  0.42242024
Direct configuration=     3
   0.00057931  0.00085844  0.50141041
   0.00021267  0.14355227  0.50294539
   0.00019741  0.28645906  0.50328456
   0.00069970  0.42954730  0.50213573
   0.00145110  0.57265271  0.50044942
   0.00235455  0.71590974  0.49928279
   0.00187026  0.85888239  0.49965149
   0.14390155  0.00148366  0.50568065
   0.14311637  0.14381435  0.50937786
   0.14232768  0.28599442  0.51265223
   0.14266724  0.42924063  0.51137833
   0.14385141  0.57234696  0.50718969
   0.14435740  0.71553454  0.50419840
   0.14429019  0.85867184  0.50332776
   0.28650794  0.00122866  0.50689903
   0.28624544  0.14382491  0.51269338
   0.28574393  0.28748246  0.52277682
   0.28358781  0.42816337  0.52800847
   0.28648842  0.57139869  0.51965564
   0.28659975  0.71571618  0.50999344
   0.28657156  0.85867542  0.50579250
   0.42940222  0.00157366  0.50530336
   0.42918818  0.14404833  0.50817329
   0.42747289  0.28372202  0.51493495
   0.42773088  0.71758526  0.51196412
   0.42911758  0.85886944  0.50618262
   0.57204568  0.00199288  0.50220135
   0.57212732  0.14414909  0.50335174
   0.57296482  0.28742257  0.50380259
   0.57267622  0.85994687  0.50197430
   0.71491633  0.00136017  0.49836957
   0.71507329  0.14418300  0.49928570
   0.71511036  0.28685557  0.49981374
   0.71483719  0.42876087  0.49834512
   0.71918855  0.57405315  0.49744987
   0.72141304  0.71685246  0.49697677
   0.71369170  0.85832327  0.49732628
   0.85769609  0.00100831  0.49793655
   0.85758095  0.14384550  0.49875031
   0.85773852  0.28664048  0.49907220
   0.85834643  0.42963278  0.49850183
   0.85926008  0.57295631  0.49714861
   0.86087050  0.71639696  0.49655571
   0.85818409  0.85788501  0.49698630
   0.04805443  0.09611303  0.50439501
   0.04730800  0.23847396  0.50589241
   0.04760029  0.38163482  0.50513574
   0.04880909  0.52487313  0.50297308
   0.04930626  0.66800108  0.50115611
   0.04925483  0.81105280  0.50064815
   0.04872934  0.95372228  0.50215703
   0.19104165  0.09623582  0.50972872
   0.19023082  0.23878604  0.51478732
   0.18888079  0.38080718  0.51683678
   0.19088348  0.52446494  0.51241289
   0.19152124  0.66791776  0.50748641
   0.19170969  0.81098452  0.50448816
   0.19157566  0.95376137  0.50542625
   0.33407085  0.09659162  0.50938002
   0.33443080  0.23895575  0.51790791
   0.32923540  0.37978394  0.53316688
   0.32975634  0.52241035  0.53044871
   0.33486315  0.66875843  0.51465159
   0.33411412  0.81089478  0.50733857
   0.33403234  0.95375025  0.50591211
   0.47696326  0.09657415  0.50542447
   0.47617105  0.23918176  0.50890611
   0.47613986  0.81092577  0.50659197
   0.47692434  0.95418247  0.50431519
   0.61967361  0.09680734  0.50135872
   0.61998943  0.23935001  0.50240852
   0.62178558  0.38061899  0.50000071
   0.62073180  0.81506037  0.49910363
   0.61981132  0.95465435  0.50061469
   0.76263629  0.09666137  0.49828849
   0.76273352  0.23913995  0.49901934
   0.76307033  0.38190473  0.49876399
   0.76361548  0.52587379  0.49713828
   0.76592881  0.66778936  0.49669319
   0.76180996  0.80935811  0.49658149
   0.76251173  0.95372886  0.49746554
   0.90505213  0.09589678  0.49938844
   0.90508912  0.23893709  0.49987678
   0.90551045  0.38203795  0.49952066
   0.90637170  0.52514554  0.49833465
   0.90730097  0.66811732  0.49724326
   0.90669875  0.81118832  0.49729553
   0.90532604  0.95303716  0.49839505
   0.46337796  0.35626688  0.51528575
   0.40129291  0.41801483  0.54256746
   0.40190686  0.55596300  0.54005922
   0.64681249  0.53961636  0.49857492
   0.58553197  0.41683295  0.49728629
   0.58355514  0.74323385  0.49884187
   0.46392722  0.68125174  0.51359205
   0.45432040  0.48294481  0.39269752
   0.54515836  0.56062173  0.42610065
   0.62930386  0.66371972  0.49863503
   0.50943003  0.49572831  0.42248207
Direct configuration=     4
   0.00057881  0.00086023  0.50140582
   0.00021327  0.14355560  0.50294744
   0.00019840  0.28646326  0.50329817
   0.00069861  0.42954894  0.50215247
   0.00145223  0.57265366  0.50044918
   0.00235549  0.71590660  0.49927129
   0.00187211  0.85888455  0.49964015
   0.14390236  0.00148571  0.50568871
   0.14311653  0.14381935  0.50938279
   0.14232732  0.28599572  0.51266515
   0.14266872  0.42924001  0.51140013
   0.14385180  0.57234541  0.50721120
   0.14435735  0.71553378  0.50420689
   0.14429003  0.85867103  0.50333364
   0.28650969  0.00122922  0.50691062
   0.28624518  0.14382740  0.51270302
   0.28574235  0.28748392  0.52278664
   0.28358569  0.42815878  0.52803294
   0.28649304  0.57140077  0.51968428
   0.28659733  0.71571349  0.51001712
   0.28656954  0.85867351  0.50580958
   0.42940155  0.00157658  0.50531515
   0.42918903  0.14405357  0.50817738
   0.42747413  0.28372820  0.51493550
   0.42773007  0.71758328  0.51198577
   0.42911669  0.85886951  0.50619643
   0.57204553  0.00199620  0.50220556
   0.57212773  0.14415430  0.50335022
   0.57296628  0.28742957  0.50378252
   0.57267889  0.85994787  0.50197085
   0.71491767  0.00136125  0.49836449
   0.71507335  0.14418702  0.49928351
   0.71510957  0.28686088  0.49979814
   0.71483517  0.42875960  0.49830405
   0.71918982  0.57405447  0.49732521
   0.72142098  0.71685463  0.49684921
   0.71369492  0.85832788  0.49728448
   0.85769750  0.00100771  0.49792225
   0.85758088  0.14384734  0.49874855
   0.85773572  0.28664289  0.49906966
   0.85834318  0.42963394  0.49848633
   0.85926029  0.57295367  0.49711607
   0.86087767  0.71640197  0.49650601
   0.85818970  0.85788922  0.49694861
   0.04805444  0.09611343  0.50439630
   0.04730215  0.23847045  0.50590386
   0.04759948  0.38163663  0.50515455
   0.04880985  0.52487531  0.50298820
   0.04930702  0.66800385  0.50115608
   0.04925677  0.81105625  0.50064393
   0.04873158  0.95372311  0.50215596
   0.19104105  0.09623239  0.50973945
   0.19022903  0.23878259  0.51479483
   0.18888159  0.38080445  0.51685422
   0.19088798  0.52446947  0.51243707
   0.19152353  0.66791641  0.50750276
   0.19171096  0.81098615  0.50450031
   0.19157691  0.95376085  0.50543466
   0.33407074  0.09658904  0.50939093
   0.33442849  0.23895157  0.51791656
   0.32923733  0.37978173  0.53319033
   0.32975777  0.52241244  0.53048378
   0.33486963  0.66876301  0.51467887
   0.33411575  0.81089318  0.50735742
   0.33403324  0.95374915  0.50592716
   0.47696129  0.09657156  0.50542971
   0.47617014  0.23917962  0.50889930
   0.47614280  0.81092643  0.50660002
   0.47692411  0.95417746  0.50432436
   0.61967158  0.09680320  0.50135889
   0.61998793  0.23934871  0.50239394
   0.62178560  0.38061598  0.49995859
   0.62073061  0.81505820  0.49907900
   0.61981019  0.95465110  0.50061388
   0.76263566  0.09665970  0.49828728
   0.76273233  0.23913770  0.49901192
   0.76307258  0.38190525  0.49873621
   0.76361839  0.52587627  0.49707185
   0.76593712  0.66779591  0.49659120
   0.76181464  0.80936547  0.49651009
   0.76251040  0.95372987  0.49744407
   0.90504972  0.09589690  0.49938347
   0.90508719  0.23893675  0.49988000
   0.90550984  0.38203876  0.49952265
   0.90637728  0.52514710  0.49831900
   0.90730247  0.66811835  0.49720704
   0.90670319  0.81119295  0.49726534
   0.90532875  0.95304061  0.49837920
   0.46337816  0.35626833  0.51528012
   0.40129218  0.41800906  0.54260458
   0.40190664  0.55596371  0.54009391
   0.64681725  0.53961759  0.49841682
   0.58553296  0.41683788  0.49723885
   0.58355773  0.74323255  0.49881033
   0.46392848  0.68125029  0.51361778
   0.45427683  0.48297272  0.39281139
   0.54518418  0.56063652  0.42614134
   0.62930612  0.66372759  0.49840923
   0.50941792  0.49575943  0.42255022
Direct configuration=     5
   0.00057566  0.00085849  0.50140060
   0.00021034  0.14355276  0.50294855
   0.00019642  0.28646506  0.50331571
   0.00069777  0.42955136  0.50217423
   0.00145575  0.57265604  0.50045016
   0.00235640  0.71590874  0.49925821
   0.00187549  0.85888819  0.49962814
   0.14390376  0.00148587  0.50569812
   0.14311588  0.14381959  0.50938764
   0.14232359  0.28599359  0.51267954
   0.14266990  0.42924191  0.51142619
   0.14385249  0.57234644  0.50723574
   0.14435851  0.71553290  0.50421709
   0.14428711  0.85867091  0.50333910
   0.28651052  0.00122823  0.50692400
   0.28624412  0.14382462  0.51271155
   0.28574073  0.28748199  0.52279485
   0.28358578  0.42815682  0.52805844
   0.28649936  0.57140651  0.51971337
   0.28659882  0.71571266  0.51004496
   0.28656902  0.85867103  0.50583005
   0.42940163  0.00157576  0.50533003
   0.42918806  0.14405279  0.50818060
   0.42747352  0.28372817  0.51493264
   0.42773601  0.71758612  0.51201188
   0.42911685  0.85886654  0.50621260
   0.57204417  0.00199453  0.50221251
   0.57212675  0.14415433  0.50334938
   0.57296504  0.28742911  0.50375922
   0.57268013  0.85994643  0.50196996
   0.71491691  0.00136136  0.49836140
   0.71507163  0.14418642  0.49928414
   0.71510839  0.28686137  0.49978122
   0.71483198  0.42875906  0.49825780
   0.71919411  0.57405967  0.49718457
   0.72143004  0.71686104  0.49670424
   0.71369258  0.85833031  0.49723989
   0.85769761  0.00100731  0.49790809
   0.85758137  0.14384468  0.49874980
   0.85773504  0.28664134  0.49907104
   0.85834326  0.42963502  0.49847114
   0.85926574  0.57295628  0.49708218
   0.86088772  0.71640866  0.49645223
   0.85819446  0.85789463  0.49690744
   0.04805567  0.09611699  0.50439846
   0.04730307  0.23847523  0.50591827
   0.04760123  0.38163940  0.50517922
   0.04881081  0.52487719  0.50300766
   0.04930863  0.66800470  0.50115570
   0.04925801  0.81105717  0.50064072
   0.04873348  0.95372558  0.50215526
   0.19104083  0.09623348  0.50975127
   0.19022813  0.23878376  0.51480164
   0.18888310  0.38080138  0.51687136
   0.19089359  0.52447419  0.51246237
   0.19152428  0.66791303  0.50752066
   0.19170929  0.81098485  0.50451350
   0.19157888  0.95376157  0.50544384
   0.33407157  0.09658974  0.50940357
   0.33442830  0.23895247  0.51792397
   0.32923695  0.37977945  0.53321357
   0.32976208  0.52241338  0.53051920
   0.33487274  0.66876595  0.51471027
   0.33411443  0.81089148  0.50738026
   0.33403424  0.95374782  0.50594532
   0.47696060  0.09657356  0.50543694
   0.47617010  0.23918350  0.50889165
   0.47614466  0.81092885  0.50660896
   0.47692302  0.95417615  0.50433695
   0.61967104  0.09680509  0.50136098
   0.61998749  0.23935253  0.50237856
   0.62178540  0.38061899  0.49991343
   0.62073281  0.81506061  0.49905582
   0.61981110  0.95465252  0.50061541
   0.76263577  0.09666142  0.49828853
   0.76273047  0.23914035  0.49900457
   0.76307553  0.38190708  0.49870757
   0.76361952  0.52587865  0.49699958
   0.76594388  0.66779580  0.49647929
   0.76181981  0.80937051  0.49643032
   0.76251191  0.95373342  0.49742251
   0.90504877  0.09589803  0.49938035
   0.90508665  0.23894003  0.49988623
   0.90550835  0.38204086  0.49952683
   0.90638039  0.52514416  0.49830528
   0.90730593  0.66811611  0.49716800
   0.90670877  0.81119840  0.49723192
   0.90533251  0.95304532  0.49836395
   0.46337930  0.35627220  0.51527132
   0.40129249  0.41800292  0.54264164
   0.40190744  0.55596430  0.54012995
   0.64681931  0.53961821  0.49824210
   0.58553520  0.41684150  0.49718471
   0.58356029  0.74323128  0.49877840
   0.46392963  0.68124906  0.51364833
   0.45423345  0.48300370  0.39293440
   0.54520220  0.56065228  0.42616211
   0.62931387  0.66374554  0.49814930
   0.50939101  0.49577610  0.42260266
Direct configuration=     6
   0.00058141  0.00086252  0.50139810
   0.00020810  0.14355106  0.50295001
   0.00019404  0.28646635  0.50333559
   0.00069758  0.42955377  0.50220160
   0.00145993  0.57265791  0.50045339
   0.00236143  0.71590943  0.49924694
   0.00188180  0.85889773  0.49962118
   0.14390596  0.00148575  0.50570800
   0.14311566  0.14381671  0.50939182
   0.14231999  0.28599045  0.51269370
   0.14267393  0.42924672  0.51145514
   0.14385446  0.57234841  0.50726213
   0.14436098  0.71553157  0.50422813
   0.14428554  0.85867190  0.50334382
   0.28651115  0.00122626  0.50693859
   0.28624360  0.14382041  0.51271824
   0.28574010  0.28747841  0.52279916
   0.28359051  0.42815988  0.52808131
   0.28650669  0.57141228  0.51974149
   0.28660149  0.71571325  0.51007306
   0.28656937  0.85866914  0.50585287
   0.42940274  0.00157216  0.50534814
   0.42918665  0.14404954  0.50818300
   0.42747119  0.28372653  0.51492668
   0.42774594  0.71759349  0.51204145
   0.42911676  0.85886327  0.50623060
   0.57204212  0.00198797  0.50222171
   0.57212502  0.14415189  0.50334989
   0.57296138  0.28742499  0.50373326
   0.57267990  0.85994672  0.50197339
   0.71491562  0.00136339  0.49836254
   0.71506971  0.14418423  0.49928882
   0.71511015  0.28685988  0.49976608
   0.71483455  0.42876278  0.49821254
   0.71920060  0.57406611  0.49703943
   0.72143407  0.71687107  0.49655830
   0.71369035  0.85833154  0.49719854
   0.85769523  0.00101054  0.49789846
   0.85757940  0.14384656  0.49875461
   0.85773559  0.28663979  0.49907780
   0.85834740  0.42963507  0.49845876
   0.85927001  0.57295942  0.49705238
   0.86089630  0.71641188  0.49639797
   0.85819761  0.85790050  0.49686711
   0.04805472  0.09611861  0.50440080
   0.04730519  0.23848131  0.50593483
   0.04760555  0.38164123  0.50520864
   0.04881272  0.52487841  0.50303158
   0.04931138  0.66800498  0.50115458
   0.04925655  0.81105570  0.50063782
   0.04873424  0.95372901  0.50215490
   0.19104077  0.09623747  0.50976204
   0.19022752  0.23878732  0.51480569
   0.18888383  0.38080173  0.51688694
   0.19089856  0.52447677  0.51248791
   0.19152223  0.66791161  0.50753808
   0.19170518  0.81098107  0.50452639
   0.19157983  0.95376268  0.50545301
   0.33407197  0.09659121  0.50941604
   0.33443325  0.23895701  0.51792485
   0.32923566  0.37977704  0.53323231
   0.32976539  0.52241212  0.53054974
   0.33487839  0.66876869  0.51474273
   0.33411143  0.81088954  0.50740658
   0.33403433  0.95374578  0.50596585
   0.47696136  0.09657765  0.50544602
   0.47617044  0.23918901  0.50888253
   0.47614653  0.81093039  0.50662040
   0.47692104  0.95417771  0.50435132
   0.61967055  0.09681000  0.50136639
   0.61998691  0.23935747  0.50236384
   0.62178296  0.38062445  0.49986808
   0.62073409  0.81506104  0.49903945
   0.61981255  0.95465619  0.50062118
   0.76263632  0.09666501  0.49829433
   0.76272821  0.23914425  0.49899923
   0.76307409  0.38190918  0.49868132
   0.76362297  0.52587867  0.49692799
   0.76595323  0.66780579  0.49637003
   0.76182381  0.80937563  0.49635193
   0.76251470  0.95373710  0.49740457
   0.90504956  0.09589688  0.49938076
   0.90508683  0.23894164  0.49989727
   0.90550749  0.38204156  0.49953478
   0.90638283  0.52514475  0.49829577
   0.90731288  0.66811609  0.49713028
   0.90671233  0.81120262  0.49719847
   0.90533367  0.95304797  0.49835095
   0.46338017  0.35627611  0.51525743
   0.40129327  0.41799643  0.54267114
   0.40191221  0.55596554  0.54016174
   0.64681877  0.53961925  0.49806667
   0.58553772  0.41684350  0.49712726
   0.58356377  0.74323334  0.49875153
   0.46393147  0.68124869  0.51368228
   0.45418316  0.48302903  0.39304420
   0.54519995  0.56066067  0.42613986
   0.62932610  0.66376203  0.49787281
   0.50935497  0.49576891  0.42262218
Direct configuration=     7
   0.00058102  0.00086261  0.50139824
   0.00020884  0.14355213  0.50295053
   0.00019460  0.28646664  0.50333617
   0.00069790  0.42955354  0.50220252
   0.00145972  0.57265772  0.50045380
   0.00236174  0.71590922  0.49924702
   0.00188128  0.85889700  0.49962143
   0.14390600  0.00148616  0.50570802
   0.14311573  0.14381730  0.50939172
   0.14232080  0.28599127  0.51269340
   0.14267407  0.42924637  0.51145539
   0.14385463  0.57234824  0.50726244
   0.14436077  0.71553156  0.50422817
   0.14428569  0.85867169  0.50334377
   0.28651121  0.00122639  0.50693880
   0.28624397  0.14382129  0.51271804
   0.28574033  0.28747884  0.52279852
   0.28359048  0.42815981  0.52808073
   0.28650684  0.57141213  0.51974123
   0.28660131  0.71571316  0.51007289
   0.28656893  0.85866911  0.50585322
   0.42940270  0.00157268  0.50534866
   0.42918693  0.14405030  0.50818300
   0.42747181  0.28372749  0.51492606
   0.42774576  0.71759325  0.51204176
   0.42911648  0.85886367  0.50623094
   0.57204233  0.00198911  0.50222237
   0.57212520  0.14415265  0.50335013
   0.57296163  0.28742607  0.50373284
   0.57268016  0.85994718  0.50197409
   0.71491602  0.00136381  0.49836326
   0.71506979  0.14418489  0.49928940
   0.71510994  0.28686007  0.49976650
   0.71483451  0.42876286  0.49821246
   0.71920048  0.57406586  0.49703915
   0.72143436  0.71687186  0.49655835
   0.71369090  0.85833168  0.49719919
   0.85769546  0.00101067  0.49789908
   0.85757987  0.14384661  0.49875539
   0.85773522  0.28664049  0.49907832
   0.85834708  0.42963527  0.49845949
   0.85926969  0.57295894  0.49705289
   0.86089630  0.71641197  0.49639836
   0.85819729  0.85790030  0.49686758
   0.04805476  0.09611839  0.50440081
   0.04730433  0.23847985  0.50593490
   0.04760533  0.38164134  0.50520947
   0.04881287  0.52487834  0.50303227
   0.04931172  0.66800497  0.50115453
   0.04925664  0.81105607  0.50063782
   0.04873481  0.95372942  0.50215506
   0.19104087  0.09623704  0.50976179
   0.19022748  0.23878668  0.51480524
   0.18888406  0.38080227  0.51688693
   0.19089873  0.52447700  0.51248817
   0.19152266  0.66791204  0.50753800
   0.19170624  0.81098169  0.50452646
   0.19157975  0.95376261  0.50545304
   0.33407214  0.09659089  0.50941554
   0.33443229  0.23895606  0.51792412
   0.32923594  0.37977699  0.53323155
   0.32976558  0.52241254  0.53054878
   0.33487907  0.66876912  0.51474295
   0.33411180  0.81088960  0.50740710
   0.33403432  0.95374567  0.50596624
   0.47696121  0.09657688  0.50544627
   0.47617014  0.23918801  0.50888217
   0.47614677  0.81093012  0.50662054
   0.47692115  0.95417719  0.50435171
   0.61967028  0.09680901  0.50136694
   0.61998697  0.23935669  0.50236415
   0.62178318  0.38062380  0.49986791
   0.62073370  0.81506101  0.49904038
   0.61981238  0.95465577  0.50062188
   0.76263615  0.09666486  0.49829511
   0.76272855  0.23914360  0.49899969
   0.76307412  0.38190904  0.49868168
   0.76362339  0.52587910  0.49692810
   0.76595280  0.66780663  0.49637043
   0.76182390  0.80937612  0.49635214
   0.76251408  0.95373687  0.49740521
   0.90504941  0.09589712  0.49938130
   0.90508659  0.23894112  0.49989782
   0.90550791  0.38204117  0.49953547
   0.90638303  0.52514525  0.49829636
   0.90731317  0.66811661  0.49713057
   0.90671235  0.81120291  0.49719860
   0.90533368  0.95304812  0.49835128
   0.46337995  0.35627572  0.51525657
   0.40129319  0.41799629  0.54266981
   0.40191266  0.55596556  0.54016095
   0.64681896  0.53961961  0.49806662
   0.58553741  0.41684359  0.49712674
   0.58356379  0.74323364  0.49875244
   0.46393170  0.68124892  0.51368281
   0.45418010  0.48302711  0.39304094
   0.54519585  0.56065735  0.42613275
   0.62932581  0.66376190  0.49787173
   0.50935616  0.49576801  0.42261744
Direct configuration=     8
   0.00058032  0.00086278  0.50139849
   0.00020993  0.14355380  0.50295128
   0.00019555  0.28646711  0.50333734
   0.00069849  0.42955311  0.50220439
   0.00145938  0.57265737  0.50045463
   0.00236236  0.71590886  0.49924714
   0.00188035  0.85889573  0.49962186
   0.14390607  0.00148693  0.50570812
   0.14311584  0.14381831  0.50939156
   0.14232226  0.28599272  0.51269288
   0.14267431  0.42924577  0.51145598
   0.14385495  0.57234796  0.50726314
   0.14436046  0.71553158  0.50422829
   0.14428602  0.85867134  0.50334372
   0.28651132  0.00122661  0.50693929
   0.28624462  0.14382282  0.51271767
   0.28574071  0.28747957  0.52279736
   0.28359047  0.42815974  0.52807975
   0.28650714  0.57141192  0.51974086
   0.28660105  0.71571305  0.51007269
   0.28656821  0.85866909  0.50585401
   0.42940261  0.00157356  0.50534974
   0.42918742  0.14405159  0.50818301
   0.42747286  0.28372912  0.51492485
   0.42774550  0.71759285  0.51204247
   0.42911599  0.85886437  0.50623168
   0.57204264  0.00199080  0.50222346
   0.57212549  0.14415394  0.50335061
   0.57296208  0.28742794  0.50373191
   0.57268060  0.85994802  0.50197542
   0.71491670  0.00136457  0.49836460
   0.71506993  0.14418603  0.49929054
   0.71510956  0.28686034  0.49976726
   0.71483448  0.42876302  0.49821204
   0.71920030  0.57406551  0.49703795
   0.72143487  0.71687342  0.49655778
   0.71369183  0.85833194  0.49720021
   0.85769586  0.00101095  0.49790020
   0.85758070  0.14384667  0.49875691
   0.85773482  0.28664137  0.49907957
   0.85834654  0.42963563  0.49846086
   0.85926915  0.57295814  0.49705370
   0.86089630  0.71641218  0.49639885
   0.85819671  0.85789999  0.49686828
   0.04805486  0.09611804  0.50440084
   0.04730334  0.23847779  0.50593505
   0.04760499  0.38164153  0.50521121
   0.04881315  0.52487820  0.50303369
   0.04931233  0.66800492  0.50115444
   0.04925680  0.81105671  0.50063780
   0.04873580  0.95373016  0.50215535
   0.19104109  0.09623632  0.50976137
   0.19022745  0.23878561  0.51480440
   0.18888451  0.38080329  0.51688700
   0.19089902  0.52447740  0.51248879
   0.19152343  0.66791284  0.50753793
   0.19170815  0.81098280  0.50452666
   0.19157958  0.95376248  0.50545315
   0.33407249  0.09659037  0.50941463
   0.33443061  0.23895445  0.51792276
   0.32923645  0.37977690  0.53323020
   0.32976595  0.52241331  0.53054708
   0.33488030  0.66876990  0.51474350
   0.33411244  0.81088973  0.50740822
   0.33403427  0.95374549  0.50596709
   0.47696095  0.09657556  0.50544679
   0.47616961  0.23918630  0.50888142
   0.47614719  0.81092964  0.50662086
   0.47692135  0.95417632  0.50435253
   0.61966978  0.09680732  0.50136801
   0.61998710  0.23935534  0.50236469
   0.62178356  0.38062270  0.49986734
   0.62073307  0.81506102  0.49904205
   0.61981209  0.95465509  0.50062322
   0.76263588  0.09666465  0.49829660
   0.76272915  0.23914248  0.49900056
   0.76307417  0.38190882  0.49868223
   0.76362415  0.52587987  0.49692793
   0.76595201  0.66780819  0.49637065
   0.76182413  0.80937710  0.49635218
   0.76251297  0.95373649  0.49740634
   0.90504919  0.09589759  0.49938234
   0.90508618  0.23894022  0.49989892
   0.90550866  0.38204053  0.49953683