 vasp.6.4.2 20Jul23 (build Jan 24 2024 13:44:02) complex                         
 executed on              LinuxNV date 2025.11.03  23:18:52
 running   24 mpi-ranks, with    1 threads/rank, on    1 nodes
 distrk:  each k-point on   12 cores,    2 groups
 distr:  one band on NCORE=  12 cores,    1 groups
 OpenACC runtime initialized ...    0 GPUs detected


--------------------------------------------------------------------------------------------------------


 INCAR:
   ENCUT = 500
   EDIFF = 1E-6
   NELM = 200
   ALGO = Normal
   ISMEAR = 0
   SIGMA = 0.05
   LASPH = .TRUE.
   ADDGRID = .TRUE.
   LREAL = Auto
   ISYM = 0
   ISPIN = 2
   MAGMOM = 80*0 1 -1 1 -1 1 -1 1 -1 7*0
   IBRION = 2
   ISIF = 2
   EDIFFG = -0.01
   NSW = 300
   LDIPOL = .TRUE.
   IDIPOL = 3
   IVDW = 12
   ISTART = 0
   ICHARG = 2
   LWAVE = .FALSE.
   LCHARG = .FALSE.
   KPAR = 2
   NCORE = 26

 POTCAR:    PAW_PBE C 08Apr2002                   
 POTCAR:    PAW_PBE H 15Jun2001                   
 POTCAR:    PAW_PBE N 08Apr2002                   
 POTCAR:    PAW_PBE C 08Apr2002                   
   SHA256 =  253f7b50bb8d59471dbedb8285d89021f4a42ed1a2c5d38a03a736e69125dd95 C/POTCAR              
   COPYR  = (c) Copyright 08Apr2002 Georg Kresse                                                    
   COPYR  = This file is part of the software VASP. Any use, copying, and all other rights are regul
   COPYR  = If you do not have a valid VASP license, you may not use, copy or distribute this file. 
   VRHFIN =C: s2p2                                                                                  
   LEXCH  = PE                                                                                      
   EATOM  =   147.1560 eV,   10.8157 Ry                                                             
                                                                                                    
   TITEL  = PAW_PBE C 08Apr2002                                                                     
   LULTRA =        F    use ultrasoft PP ?                                                          
   IUNSCR =        1    unscreen: 0-lin 1-nonlin 2-no                                               
   RPACOR =    1.200    partial core radius                                                         
   POMASS =   12.011; ZVAL   =    4.000    mass and valenz                                          
   RCORE  =    1.500    outmost cutoff radius                                                       
   RWIGS  =    1.630; RWIGS  =    0.863    wigner-seitz radius (au A)                               
   ENMAX  =  400.000; ENMIN  =  300.000 eV                                                          
   ICORE  =        2    local potential                                                             
   LCOR   =        T    correct aug charges                                                         
   LPAW   =        T    paw PP                                                                      
   EAUG   =  644.873                                                                                
   DEXC   =    0.000                                                                                
   RMAX   =    1.529    core radius for proj-oper                                                   
   RAUG   =    1.300    factor for augmentation sphere                                              
   RDEP   =    1.501    radius for radial grids                                                     
   RDEPT  =    1.300    core radius for aug-charge                                                  
                                                                                                    
   Atomic configuration                                                                             
    4 entries                                                                                       
     n  l   j            E        occ.                                                              
     1  0  0.50      -273.3789   2.0000                                                             
     2  0  0.50       -13.7508   2.0000                                                             
     2  1  0.50        -5.2854   2.0000                                                             
     3  2  1.50        -5.4423   0.0000                                                             
   Description                                                                                      
     l       E           TYP  RCUT    TYP  RCUT                                                     
     0    -13.7508458     23  1.200                                                                 
     0     -8.2022199     23  1.200                                                                 
     1     -5.2854383     23  1.500                                                                 
     1     34.0145650     23  1.500                                                                 
     2     -5.4423304      7  1.500                                                                 
  local pseudopotential read in
  partial core-charges read in
  partial kinetic energy density read in
  atomic valenz-charges read in
  non local Contribution for L=            0  read in
    real space projection operators read in
  non local Contribution for L=            0  read in
    real space projection operators read in
  non local Contribution for L=            1  read in
    real space projection operators read in
  non local Contribution for L=            1  read in
    real space projection operators read in
    PAW grid and wavefunctions read in
 
   number of l-projection  operators is LMAX  =            4
   number of lm-projection operators is LMMAX =            8
 
 POTCAR:    PAW_PBE H 15Jun2001                   
   SHA256 =  030f79b5d3ab3cf0e668861823c8fb652ff669f3e15e46930bd03bfd63a607b6 H/POTCAR              
   COPYR  = (c) Copyright 15Jun2001 Georg Kresse                                                    
   COPYR  = This file is part of the software VASP. Any use, copying, and all other rights are regul
   COPYR  = If you do not have a valid VASP license, you may not use, copy or distribute this file. 
   VRHFIN =H: ultrasoft test                                                                        
   LEXCH  = PE                                                                                      
   EATOM  =    12.4884 eV,    0.9179 Ry                                                             
                                                                                                    
   TITEL  = PAW_PBE H 15Jun2001                                                                     
   LULTRA =        F    use ultrasoft PP ?                                                          
   IUNSCR =        0    unscreen: 0-lin 1-nonlin 2-no                                               
   RPACOR =    0.000    partial core radius                                                         
   POMASS =    1.000; ZVAL   =    1.000    mass and valenz                                          
   RCORE  =    1.100    outmost cutoff radius                                                       
   RWIGS  =    0.700; RWIGS  =    0.370    wigner-seitz radius (au A)                               
   ENMAX  =  250.000; ENMIN  =  200.000 eV                                                          
   RCLOC  =    0.701    cutoff for local pot                                                        
   LCOR   =        T    correct aug charges                                                         
   LPAW   =        T    paw PP                                                                      
   EAUG   =  400.000                                                                                
   RMAX   =    1.123    core radius for proj-oper                                                   
   RAUG   =    1.200    factor for augmentation sphere                                              
   RDEP   =    1.112    radius for radial grids                                                     
   RDEPT  =    0.926    core radius for aug-charge                                                  
                                                                                                    
   Atomic configuration                                                                             
    2 entries                                                                                       
     n  l   j            E        occ.                                                              
     1  0  0.50        -6.4927   1.0000                                                             
     2  1  0.50        -3.4015   0.0000                                                             
   Description                                                                                      
     l       E           TYP  RCUT    TYP  RCUT                                                     
     0     -6.4927494     23  1.100                                                                 
     0      6.8029130     23  1.100                                                                 
     1     -4.0817478     23  1.100                                                                 
  local pseudopotential read in
  atomic valenz-charges read in
  non local Contribution for L=            0  read in
    real space projection operators read in
  non local Contribution for L=            0  read in
    real space projection operators read in
  non local Contribution for L=            1  read in
    real space projection operators read in
    PAW grid and wavefunctions read in
 
   number of l-projection  operators is LMAX  =            3
   number of lm-projection operators is LMMAX =            5
 
 POTCAR:    PAW_PBE N 08Apr2002                   
   SHA256 =  e053789ff3a61a86a1b75d8a110fcc91f86041011e7b0817c7c99e4e8a6349d7 N/POTCAR              
   COPYR  = (c) Copyright 08Apr2002 Georg Kresse                                                    
   COPYR  = This file is part of the software VASP. Any use, copying, and all other rights are regul
   COPYR  = If you do not have a valid VASP license, you may not use, copy or distribute this file. 
   VRHFIN =N: s2p3                                                                                  
   LEXCH  = PE                                                                                      
   EATOM  =   264.5486 eV,   19.4438 Ry                                                             
                                                                                                    
   TITEL  = PAW_PBE N 08Apr2002                                                                     
   LULTRA =        F    use ultrasoft PP ?                                                          
   IUNSCR =        1    unscreen: 0-lin 1-nonlin 2-no                                               
   RPACOR =    1.200    partial core radius                                                         
   POMASS =   14.001; ZVAL   =    5.000    mass and valenz                                          
   RCORE  =    1.500    outmost cutoff radius                                                       
   RWIGS  =    1.400; RWIGS  =    0.741    wigner-seitz radius (au A)                               
   ENMAX  =  400.000; ENMIN  =  300.000 eV                                                          
   ICORE  =        2    local potential                                                             
   LCOR   =        T    correct aug charges                                                         
   LPAW   =        T    paw PP                                                                      
   EAUG   =  627.112                                                                                
   DEXC   =    0.000                                                                                
   RMAX   =    1.529    core radius for proj-oper                                                   
   RAUG   =    1.300    factor for augmentation sphere                                              
   RDEP   =    1.514    radius for radial grids                                                     
   RDEPT  =    1.338    core radius for aug-charge                                                  
                                                                                                    
   Atomic configuration                                                                             
    4 entries                                                                                       
     n  l   j            E        occ.                                                              
     1  0  0.50      -384.7179   2.0000                                                             
     2  0  0.50       -18.5828   2.0000                                                             
     2  1  0.50        -7.0898   3.0000                                                             
     3  2  1.50        -6.8029   0.0000                                                             
   Description                                                                                      
     l       E           TYP  RCUT    TYP  RCUT                                                     
     0    -18.5828119     23  1.200                                                                 
     0    -13.5018863     23  1.200                                                                 
     1     -7.0897853     23  1.500                                                                 
     1      9.5240782     23  1.500                                                                 
     2     -6.8029130      7  1.500                                                                 
  local pseudopotential read in
  partial core-charges read in
  partial kinetic energy density read in
  atomic valenz-charges read in
  non local Contribution for L=            0  read in
    real space projection operators read in
  non local Contribution for L=            0  read in
    real space projection operators read in
  non local Contribution for L=            1  read in
    real space projection operators read in
  non local Contribution for L=            1  read in
    real space projection operators read in
    PAW grid and wavefunctions read in
 
   number of l-projection  operators is LMAX  =            4
   number of lm-projection operators is LMMAX =            8
 
 Optimization of the real space projectors (new method)

 maximal supplied QI-value         = 25.13
 optimisation between [QCUT,QGAM] = [ 11.31, 22.87] = [ 35.82,146.48] Ry 
 Optimized for a Real-space Cutoff    1.00 Angstroem

   l    n(q)    QCUT    max X(q) W(low)/X(q) W(high)/X(q)  e(spline) 
   0      7    11.310   115.676    0.43E-03    0.13E-02    0.19E-06
   0      7    11.310    87.132    0.43E-03    0.13E-02    0.18E-06
   1      6    11.310     4.429    0.42E-03    0.74E-03    0.11E-06
   1      6    11.310     2.733    0.34E-03    0.55E-03    0.92E-07
 Optimization of the real space projectors (new method)

 maximal supplied QI-value         = 34.20
 optimisation between [QCUT,QGAM] = [ 11.29, 22.57] = [ 35.68,142.71] Ry 
 Optimized for a Real-space Cutoff    1.16 Angstroem

   l    n(q)    QCUT    max X(q) W(low)/X(q) W(high)/X(q)  e(spline) 
   0      8    11.287    19.460    0.40E-03    0.73E-03    0.16E-06
   0      8    11.287    12.209    0.38E-03    0.70E-03    0.15E-06
   1      7    11.287     4.655    0.22E-03    0.25E-04    0.22E-06
 Optimization of the real space projectors (new method)

 maximal supplied QI-value         = 25.13
 optimisation between [QCUT,QGAM] = [ 11.31, 22.87] = [ 35.82,146.48] Ry 
 Optimized for a Real-space Cutoff    1.27 Angstroem

   l    n(q)    QCUT    max X(q) W(low)/X(q) W(high)/X(q)  e(spline) 
   0      9    11.310    79.467    0.75E-04    0.16E-03    0.36E-06
   0      9    11.310    66.151    0.74E-04    0.16E-03    0.36E-06
   1      8    11.310    17.416    0.35E-03    0.12E-03    0.95E-06
   1      8    11.310    12.382    0.37E-03    0.13E-03    0.98E-06
  PAW_PBE C 08Apr2002                   :
 energy of atom  1       EATOM= -147.1560
 kinetic energy error for atom=    0.0076 (will be added to EATOM!!)
  PAW_PBE H 15Jun2001                   :
 energy of atom  2       EATOM=  -12.4884
 kinetic energy error for atom=    0.0020 (will be added to EATOM!!)
  PAW_PBE N 08Apr2002                   :
 energy of atom  3       EATOM= -264.5486
 kinetic energy error for atom=    0.0138 (will be added to EATOM!!)
 
 
 POSCAR: C4
  positions in cartesian coordinates
  No initial velocities read in
 exchange correlation table for  LEXCH =        8
   RHO(1)=    0.500       N(1)  =     2000
   RHO(2)=  100.500       N(2)  =     4000
 


--------------------------------------------------------------------------------------------------------


 ion  position               nearest neighbor table
   1  0.000  1.000  0.250-  87 1.42  44 1.43  50 1.43
   2  1.000  0.143  0.250-  45 1.42  81 1.42  44 1.43
   3  0.999  0.285  0.250-  82 1.42  45 1.42  46 1.42
   4  1.000  0.428  0.250-  46 1.42  83 1.42  47 1.43
   5  1.000  0.571  0.250-  84 1.42  47 1.42  48 1.43
   6  0.001  0.715  0.250-  48 1.42  49 1.42  85 1.43
   7  0.001  0.858  0.250-  50 1.42  49 1.42  86 1.42
   8  0.143  0.000  0.250-  51 1.42  50 1.42  57 1.43
   9  0.143  0.143  0.250-  52 1.42  44 1.42  51 1.43
  10  0.142  0.285  0.250-  53 1.42  52 1.42  45 1.42
  11  0.142  0.428  0.250-  53 1.42  54 1.42  46 1.42
  12  0.143  0.571  0.250-  54 1.42  47 1.42  55 1.43
  13  0.143  0.714  0.250-  55 1.42  48 1.42  56 1.43
  14  0.143  0.857  0.250-  56 1.42  57 1.42  49 1.42
  15  0.286  1.000  0.250-  57 1.42  64 1.42  58 1.43
  16  0.286  0.143  0.250-  58 1.42  51 1.42  59 1.42
  17  0.286  0.287  0.250-  60 1.39  52 1.43  59 1.45
  18  0.284  0.428  0.250-  61 1.41  60 1.41  53 1.43
  19  0.286  0.570  0.250-  61 1.39  54 1.43  62 1.45
  20  0.285  0.714  0.250-  63 1.42  55 1.42  62 1.42
  21  0.286  0.857  0.250-  56 1.42  64 1.42  63 1.43
  22  0.429  1.000  0.250-  65 1.42  68 1.42  64 1.43
  23  0.428  0.142  0.250-  66 1.42  58 1.42  65 1.43
  24  0.427  0.282  0.250-  88 1.08  59 1.39  66 1.40
  25  0.427  0.716  0.250-  94 1.08  62 1.39  67 1.39
  26  0.428  0.857  0.250-  67 1.42  63 1.42  68 1.42
  27  0.571  0.000  0.250-  69 1.42  68 1.42  73 1.42
  28  0.571  0.142  0.250-  69 1.42  65 1.42  70 1.42
  29  0.572  0.286  0.250-  71 1.39  70 1.42  66 1.45
  30  0.572  0.858  0.250-  72 1.39  73 1.42  67 1.45
  31  0.714  1.000  0.250-  80 1.42  73 1.42  74 1.43
  32  0.714  0.143  0.250-  74 1.42  75 1.42  69 1.43
  33  0.714  0.286  0.250-  70 1.42  76 1.42  75 1.43
  34  0.714  0.428  0.250-  71 1.39  76 1.42  77 1.45
  35  0.718  0.574  0.250-  91 1.09  77 1.39  78 1.41
  36  0.714  0.857  0.250-  72 1.39  80 1.42  79 1.45
  37  0.857  0.000  0.250-  81 1.42  80 1.42  87 1.43
  38  0.857  0.143  0.250-  74 1.42  82 1.42  81 1.43
  39  0.857  0.285  0.250-  75 1.42  82 1.42  83 1.43
  40  0.857  0.428  0.250-  83 1.42  76 1.42  84 1.43
  41  0.858  0.572  0.250-  84 1.42  85 1.42  77 1.43
  42  0.859  0.715  0.250-  86 1.42  85 1.42  78 1.43
  43  0.858  0.857  0.250-  87 1.42  86 1.42  79 1.43
  44  0.048  0.095  0.250-   9 1.42   1 1.43   2 1.43
  45  0.047  0.238  0.250-   2 1.42   3 1.42  10 1.42
  46  0.047  0.381  0.250-   4 1.42   3 1.42  11 1.42
  47  0.048  0.524  0.250-  12 1.42   5 1.42   4 1.43
  48  0.048  0.667  0.250-   6 1.42  13 1.42   5 1.43
  49  0.048  0.810  0.250-  14 1.42   6 1.42   7 1.42
  50  0.048  0.953  0.250-   7 1.42   8 1.42   1 1.43
  51  0.190  0.095  0.250-   8 1.42  16 1.42   9 1.43
  52  0.190  0.238  0.250-   9 1.42  10 1.42  17 1.43
  53  0.188  0.380  0.250-  10 1.42  11 1.42  18 1.43
  54  0.190  0.523  0.250-  12 1.42  11 1.42  19 1.43
  55  0.190  0.667  0.250-  13 1.42  20 1.42  12 1.43
  56  0.191  0.810  0.250-  21 1.42  14 1.42  13 1.43
  57  0.191  0.952  0.250-  15 1.42  14 1.42   8 1.43
  58  0.333  0.095  0.250-  23 1.42  16 1.42  15 1.43
  59  0.334  0.238  0.250-  24 1.39  16 1.42  17 1.45
  60  0.330  0.380  0.250-  89 1.09  17 1.39  18 1.41
  61  0.330  0.522  0.250-  90 1.09  19 1.39  18 1.41
  62  0.334  0.668  0.250-  25 1.39  20 1.42  19 1.45
  63  0.333  0.810  0.250-  26 1.42  20 1.42  21 1.43
  64  0.333  0.952  0.250-  21 1.42  15 1.42  22 1.43
  65  0.476  0.095  0.250-  22 1.42  28 1.42  23 1.43
  66  0.475  0.237  0.250-  24 1.40  23 1.42  29 1.45
  67  0.475  0.809  0.250-  25 1.39  26 1.42  30 1.45
  68  0.476  0.953  0.250-  22 1.42  27 1.42  26 1.42
  69  0.619  0.095  0.250-  28 1.42  27 1.42  32 1.43
  70  0.619  0.238  0.250-  29 1.42  33 1.42  28 1.42
  71  0.621  0.379  0.250-  92 1.08  34 1.39  29 1.39
  72  0.621  0.813  0.250-  93 1.08  36 1.39  30 1.39
  73  0.619  0.953  0.250-  30 1.42  31 1.42  27 1.42
  74  0.762  0.095  0.250-  38 1.42  32 1.42  31 1.43
  75  0.762  0.238  0.250-  39 1.42  32 1.42  33 1.43
  76  0.762  0.381  0.250-  40 1.42  33 1.42  34 1.42
  77  0.762  0.525  0.250-  35 1.39  41 1.43  34 1.45
  78  0.764  0.668  0.250-  95 1.41  35 1.41  42 1.43
  79  0.762  0.808  0.250-  95 1.39  43 1.43  36 1.45
  80  0.762  0.953  0.250-  31 1.42  37 1.42  36 1.42
  81  0.904  0.095  0.250-  37 1.42   2 1.42  38 1.43
  82  0.904  0.238  0.250-   3 1.42  39 1.42  38 1.42
  83  0.904  0.381  0.250-  40 1.42   4 1.42  39 1.43
  84  0.905  0.524  0.250-  41 1.42   5 1.42  40 1.43
  85  0.906  0.667  0.250-  42 1.42  41 1.42   6 1.43
  86  0.906  0.810  0.250-  42 1.42  43 1.42   7 1.42
  87  0.905  0.952  0.250-  43 1.42   1 1.42  37 1.43
  88  0.463  0.354  0.250-  24 1.08
  89  0.403  0.419  0.250-  60 1.09
  90  0.403  0.555  0.250-  61 1.09
  91  0.645  0.540  0.250-  35 1.09
  92  0.585  0.415  0.250-  71 1.08
  93  0.585  0.741  0.250-  72 1.08
  94  0.463  0.680  0.250-  25 1.08
  95  0.718  0.716  0.250-  79 1.39  78 1.41
 

IMPORTANT INFORMATION: All symmetrisations will be switched off!
NOSYMM: (Re-)initialisation of all symmetry stuff for point group C_1.


----------------------------------------------------------------------------------------

                                     Primitive cell                                     

  volume of cell :    3874.8846

  direct lattice vectors                    reciprocal lattice vectors
    17.271038055  0.000000000  0.000000000     0.057900399  0.033428811 -0.000000000
    -8.635519028 14.957157706  0.000000000     0.000000000  0.066857622  0.000000000
     0.000000000  0.000000000 15.000000000     0.000000000 -0.000000000  0.066666667

  length of vectors
    17.271038055 17.271038055 15.000000000     0.066857622  0.066857622  0.066666667

  position of ions in fractional coordinates (direct lattice)
     0.000056439  0.999947817  0.249999989
     0.999638606  0.142639781  0.249999990
     0.999406295  0.285389279  0.249999985
     0.999560537  0.428380115  0.249999986
     0.999969565  0.571395861  0.249999986
     0.000873195  0.714619658  0.249999978
     0.000891980  0.857599662  0.249999979
     0.143185575  0.000250342  0.249999996
     0.142712008  0.142960684  0.249999986
     0.141874432  0.285116981  0.249999976
     0.141882223  0.428152473  0.249999995
     0.142686416  0.571158143  0.249999998
     0.143091110  0.714231034  0.249999998
     0.143267092  0.857288838  0.249999996
     0.285649940  0.999740968  0.250000007
     0.285530941  0.142503193  0.249999999
     0.285659118  0.286869374  0.249999968
     0.283778120  0.427593820  0.250000025
     0.285703086  0.570259409  0.250000042
     0.285478062  0.714456694  0.249999983
     0.285600647  0.857261162  0.249999991
     0.428643691  0.999946129  0.249999997
     0.428395224  0.142332422  0.250000012
     0.426662296  0.281862733  0.250000003
     0.426625088  0.716161800  0.249999976
     0.428333772  0.857303727  0.249999977
     0.571367452  0.000129061  0.249999983
     0.571375054  0.142479442  0.250000014
     0.572168604  0.285654289  0.250000014
     0.572193761  0.857657967  0.249999973
     0.714309383  0.999977295  0.249999981
     0.714331398  0.142812854  0.249999998
     0.714251551  0.285548221  0.250000009
     0.713725183  0.427610041  0.249999995
     0.717623642  0.573513480  0.249999983
     0.713808334  0.857409579  0.249999982
     0.857185755  0.000055280  0.249999987
     0.856886113  0.142712562  0.249999987
     0.856802596  0.285445151  0.249999993
     0.857063797  0.428393758  0.249999982
     0.857566143  0.571806956  0.249999963
     0.858996672  0.715206194  0.249999964
     0.857624310  0.857128059  0.249999983
     0.047574428  0.095260885  0.249999990
     0.046660944  0.237517547  0.249999986
     0.046646653  0.380548716  0.249999988
     0.047519400  0.523700086  0.249999992
     0.047914878  0.666730739  0.249999990
     0.048189755  0.809745334  0.249999985
     0.047989396  0.952526510  0.249999987
     0.190346358  0.095058684  0.249999993
     0.189870977  0.238021471  0.249999977
     0.188456505  0.379910931  0.249999976
     0.189878888  0.523284330  0.249999994
     0.190315102  0.666665480  0.250000000
     0.190668339  0.809622146  0.249999995
     0.190713050  0.952364998  0.250000002
     0.333285659  0.095123681  0.250000008
     0.333793963  0.237739355  0.249999990
     0.329795863  0.379611834  0.249999963
     0.329837186  0.521591648  0.250000981
     0.333775053  0.667529867  0.249999979
     0.333244391  0.809569204  0.249999982
     0.333201647  0.952253547  0.249999999
     0.476211460  0.094874202  0.250000011
     0.475469775  0.237376368  0.250000013
     0.475462501  0.809382355  0.249999974
     0.476194474  0.952554749  0.249999982
     0.618901012  0.095067500  0.250000000
     0.619188658  0.237670100  0.250000015
     0.620928466  0.378869927  0.250000005
     0.620980729  0.813221130  0.249999976
     0.619193870  0.952686348  0.249999978
     0.761909791  0.095354985  0.249999987
     0.761837537  0.237851670  0.250000003
     0.761967734  0.380662746  0.249999997
     0.761723682  0.524807559  0.249999977
     0.763648488  0.667513152  0.249999977
     0.761872887  0.808299949  0.249999985
     0.762031194  0.952591000  0.249999982
     0.904473842  0.094871371  0.249999989
     0.904302274  0.237829803  0.249999988
     0.904353168  0.380862723  0.249999985
     0.904801478  0.523938113  0.249999972
     0.905599936  0.666975515  0.249999962
     0.905657661  0.810034095  0.249999973
     0.904863166  0.952206809  0.249999988
     0.462846285  0.354363853  0.249999995
     0.402547419  0.418634407  0.249999978
     0.402584656  0.555271075  0.250000006
     0.644872195  0.539813488  0.249999995
     0.584758872  0.415201154  0.249999994
     0.584821636  0.740722684  0.249999984
     0.462735854  0.679770642  0.249999986
     0.717734972  0.715565738  0.249999986

  ion indices of the primitive-cell ions
   primitive index   ion index
                 1           1
                 2           2
                 3           3
                 4           4
                 5           5
                 6           6
                 7           7
                 8           8
                 9           9
                10          10
                11          11
                12          12
                13          13
                14          14
                15          15
                16          16
                17          17
                18          18
                19          19
                20          20
                21          21
                22          22
                23          23
                24          24
                25          25
                26          26
                27          27
                28          28
                29          29
                30          30
                31          31
                32          32
                33          33
                34          34
                35          35
                36          36
                37          37
                38          38
                39          39
                40          40
                41          41
                42          42
                43          43
                44          44
                45          45
                46          46
                47          47
                48          48
                49          49
                50          50
                51          51
                52          52
                53          53
                54          54
                55          55
                56          56
                57          57
                58          58
                59          59
                60          60
                61          61
                62          62
                63          63
                64          64
                65          65
                66          66
                67          67
                68          68
                69          69
                70          70
                71          71
                72          72
                73          73
                74          74
                75          75
                76          76
                77          77
                78          78
                79          79
                80          80
                81          81
                82          82
                83          83
                84          84
                85          85
                86          86
                87          87
                88          88
                89          89
                90          90
                91          91
                92          92
                93          93
                94          94
                95          95

----------------------------------------------------------------------------------------

 
 
 KPOINTS: Automatic mesh                          

Automatic generation of k-mesh.
 Grid dimensions read from file:
 generate k-points for:    2    2    1

 Generating k-lattice:

  Cartesian coordinates                     Fractional coordinates (reciprocal lattice)
     0.028950200  0.016714406 -0.000000000     0.500000000  0.000000000  0.000000000
     0.000000000  0.033428811  0.000000000     0.000000000  0.500000000  0.000000000
     0.000000000 -0.000000000  0.066666667     0.000000000  0.000000000  1.000000000

  Length of vectors
     0.033428811  0.033428811  0.066666667

  Shift w.r.t. Gamma in fractional coordinates (k-lattice)
     0.000000000  0.000000000  0.000000000

 
 Subroutine IBZKPT returns following result:
 ===========================================
 
 Found      4 irreducible k-points:
 
 Following reciprocal coordinates:
            Coordinates               Weight
  0.000000  0.000000  0.000000      1.000000
  0.500000  0.000000  0.000000      1.000000
  0.000000  0.500000  0.000000      1.000000
  0.500000  0.500000  0.000000      1.000000
 
 Following cartesian coordinates:
            Coordinates               Weight
  0.000000  0.000000  0.000000      1.000000
  0.028950  0.016714  0.000000      1.000000
  0.000000  0.033429  0.000000      1.000000
  0.028950  0.050143  0.000000      1.000000
 


--------------------------------------------------------------------------------------------------------




 Dimension of arrays:
   k-points           NKPTS =      4   k-points in BZ     NKDIM =      4   number of bands    NBANDS=    228
   number of dos      NEDOS =    301   number of ions     NIONS =     95
   non local maximal  LDIM  =      4   non local SUM 2l+1 LMDIM =      8
   total plane-waves  NPLWV = 774144
   max r-space proj   IRMAX =   1771   max aug-charges    IRDMAX=  19865
   dimension x,y,z NGX =    96 NGY =   96 NGZ =   84
   dimension x,y,z NGXF=   192 NGYF=  192 NGZF=  168
   support grid    NGXF=   384 NGYF=  384 NGZF=  336
   ions per type =              87   7   1
   NGX,Y,Z   is equivalent  to a cutoff of   9.24,  9.24,  9.31 a.u.
   NGXF,Y,Z  is equivalent  to a cutoff of  18.48, 18.48, 18.62 a.u.

 SYSTEM =  unknown system                          
 POSCAR =  C4                                      

 Startparameter for this run:
   NWRITE =      2    write-flag & timer
   PREC   = normal    normal or accurate (medium, high low for compatibility)
   ISTART =      0    job   : 0-new  1-cont  2-samecut
   ICHARG =      2    charge: 1-file 2-atom 10-const
   ISPIN  =      2    spin polarized calculation?
   LNONCOLLINEAR =      F non collinear calculations
   LSORBIT =      F    spin-orbit coupling
   INIWAV =      1    electr: 0-lowe 1-rand  2-diag
   LASPH  =      T    aspherical Exc in radial PAW
 Electronic Relaxation 1
   ENCUT  =  500.0 eV  36.75 Ry    6.06 a.u.  31.49 31.49 27.35*2*pi/ulx,y,z
   ENINI  =  500.0     initial cutoff
   ENAUG  =  644.9 eV  augmentation charge cutoff
   NELM   =    200;   NELMIN=  2; NELMDL= -5     # of ELM steps 
   EDIFF  = 0.1E-05   stopping-criterion for ELM
   LREAL  =      T    real-space projection
   NLSPLINE    = F    spline interpolate recip. space projectors
   LCOMPAT=      F    compatible to vasp.4.4
   GGA_COMPAT  = T    GGA compatible to vasp.4.4-vasp.4.6
   LMAXPAW     = -100 max onsite density
   LMAXMIX     =    2 max onsite mixed and CHGCAR
   VOSKOWN=      0    Vosko Wilk Nusair interpolation
   ROPT   =   -0.00050  -0.00050  -0.00050
 Ionic relaxation
   EDIFFG = -.1E-01   stopping-criterion for IOM
   NSW    =    300    number of steps for IOM
   NBLOCK =      1;   KBLOCK =    300    inner block; outer block 
   IBRION =      2    ionic relax: 0-MD 1-quasi-New 2-CG
   NFREE  =      1    steps in history (QN), initial steepest desc. (CG)
   ISIF   =      2    stress and relaxation
   IWAVPR =     11    prediction:  0-non 1-charg 2-wave 3-comb
   ISYM   =      0    0-nonsym 1-usesym 2-fastsym
   LCORR  =      T    Harris-Foulkes like correction to forces

   POTIM  = 0.5000    time-step for ionic-motion
   TEIN   =    0.0    initial temperature
   TEBEG  =    0.0;   TEEND  =   0.0 temperature during run
   SMASS  =  -3.00    Nose mass-parameter (am)
   estimated Nose-frequenzy (Omega)   =  0.10E-29 period in steps = 0.13E+47 mass=  -0.682E-26a.u.
   SCALEE = 1.0000    scale energy and forces
   NPACO  =    256;   APACO  = 10.0  distance and # of slots for P.C.
   PSTRESS=    0.0 pullay stress

  Mass of Ions in am
   POMASS =  12.01  1.00 14.00
  Ionic Valenz
   ZVAL   =   4.00  1.00  5.00
  Atomic Wigner-Seitz radii
   RWIGS  =  -1.00 -1.00 -1.00
  virtual crystal weights 
   VCA    =   1.00  1.00  1.00
   NELECT =     360.0000    total number of electrons
   NUPDOWN=      -1.0000    fix difference up-down

 DOS related values:
   EMIN   =  10.00;   EMAX   =-10.00  energy-range for DOS
   EFERMI =   0.00;   METHOD = LEGACY      
   ISMEAR =     0;   SIGMA  =   0.05  broadening in eV -4-tet -1-fermi 0-gaus

 Electronic relaxation 2 (details)
   IALGO  =     38    algorithm
   LDIAG  =      T    sub-space diagonalisation (order eigenvalues)
   LSUBROT=      F    optimize rotation matrix (better conditioning)
   TURBO    =      0    0=normal 1=particle mesh
   IRESTART =      0    0=no restart 2=restart with 2 vectors
   NREBOOT  =      0    no. of reboots
   NMIN     =      0    reboot dimension
   EREF     =   0.00    reference energy to select bands
   IMIX   =      4    mixing-type and parameters
     AMIX     =   0.40;   BMIX     =  1.00
     AMIX_MAG =   1.60;   BMIX_MAG =  1.00
     AMIN     =   0.10
     WC   =   100.;   INIMIX=   1;  MIXPRE=   1;  MAXMIX= -45

 Intra band minimization:
   WEIMIN = 0.0010     energy-eigenvalue tresh-hold
   EBREAK =  0.11E-08  absolut break condition
   DEPER  =   0.30     relativ break condition  

   TIME   =   0.40     timestep for ELM

  volume/ion in A,a.u.               =      40.79       275.25
  Fermi-wavevector in a.u.,A,eV,Ry     =   0.741463  1.401162  7.480037  0.549767
  Thomas-Fermi vector in A             =   1.836110
 
 Write flags
   LWAVE        =      F    write WAVECAR
   LDOWNSAMPLE  =      F    k-point downsampling of WAVECAR
   LCHARG       =      F    write CHGCAR
   LVTOT        =      F    write LOCPOT, total local potential
   LVHAR        =      F    write LOCPOT, Hartree potential only
   LELF         =      F    write electronic localiz. function (ELF)
   LORBIT       =      0    0 simple, 1 ext, 2 COOP (PROOUT), +10 PAW based schemes


 Dipole corrections
   LMONO  =      F    monopole corrections only (constant potential shift)
   LDIPOL =      T    correct potential (dipole corrections)
   IDIPOL =      3    1-x, 2-y, 3-z, 4-all directions 
   EPSILON=  1.0000000 bulk dielectric constant

 Exchange correlation treatment:
   GGA     =    --    GGA type
   LEXCH   =     8    internal setting for exchange type
   LIBXC   =     F    Libxc                    
   VOSKOWN =     0    Vosko Wilk Nusair interpolation
   LHFCALC =     F    Hartree Fock is set to
   LHFONE  =     F    Hartree Fock one center treatment
   AEXX    =    0.0000 exact exchange contribution

 Linear response parameters
   LEPSILON=     F    determine dielectric tensor
   LRPA    =     F    only Hartree local field effects (RPA)
   LNABLA  =     F    use nabla operator in PAW spheres
   LVEL    =     F    velocity operator in full k-point grid
   CSHIFT  =0.1000    complex shift for real part using Kramers Kronig
   OMEGAMAX=  -1.0    maximum frequency
   DEG_THRESHOLD= 0.2000000E-02 threshold for treating states as degnerate
   RTIME   =   -0.100 relaxation time in fs
  (WPLASMAI=    0.000 imaginary part of plasma frequency in eV, 0.658/RTIME)
   DFIELD  = 0.0000000 0.0000000 0.0000000 field for delta impulse in time
 
  Optional k-point grid parameters
   LKPOINTS_OPT  =     F    use optional k-point grid
   KPOINTS_OPT_MODE=     1    mode for optional k-point grid
 
 Orbital magnetization related:
   ORBITALMAG=     F  switch on orbital magnetization
   LCHIMAG   =     F  perturbation theory with respect to B field
   DQ        =  0.001000  dq finite difference perturbation B field
   LLRAUG    =     F  two centre corrections for induced B field
   LBONE     =     F  B-component reconstruction in AE one-centre
   LVGVCALC  =     T  calculate vGv susceptibility
   LVGVAPPL  =     F  apply vGv susceptibility instead of pGv for G=0

 Random number generation:
   RANDOM_GENERATOR = DEFAULT
   PCG_SEED         = not used


--------------------------------------------------------------------------------------------------------


 conjugate gradient relaxation of ions
 charge density and potential will be updated during run
 spin polarized calculation
 Variant of blocked Davidson
 Davidson routine will perform the subspace rotation
 perform sub-space diagonalisation
    after iterative eigenvector-optimisation
 modified Broyden-mixing scheme, WC =      100.0
 initial mixing is a Kerker type mixing with AMIX =  0.4000 and BMIX =      1.0000
 Hartree-type preconditioning will be used
 using additional bands            48
 real space projection scheme for non local part
 use partial core corrections
 calculate Harris-corrections to forces 
   (improved forces if not selfconsistent)
 use gradient corrections 
 use of overlap-Matrix (Vanderbilt PP)
 Gauss-broadening in eV      SIGMA  =   0.05


--------------------------------------------------------------------------------------------------------


  energy-cutoff  :      500.00
  volume of cell :     3874.88
      direct lattice vectors                 reciprocal lattice vectors
    17.271038055  0.000000000  0.000000000     0.057900399  0.033428811 -0.000000000
    -8.635519028 14.957157706  0.000000000     0.000000000  0.066857622  0.000000000
     0.000000000  0.000000000 15.000000000     0.000000000 -0.000000000  0.066666667

  length of vectors
    17.271038055 17.271038055 15.000000000     0.066857622  0.066857622  0.066666667


 
 k-points in units of 2pi/SCALE and weight: Automatic mesh                          
   0.00000000  0.00000000  0.00000000       0.250
   0.02895020  0.01671441  0.00000000       0.250
   0.00000000  0.03342881  0.00000000       0.250
   0.02895020  0.05014322  0.00000000       0.250
 
 k-points in reciprocal lattice and weights: Automatic mesh                          
   0.00000000  0.00000000  0.00000000       0.250
   0.50000000  0.00000000  0.00000000       0.250
   0.00000000  0.50000000  0.00000000       0.250
   0.50000000  0.50000000  0.00000000       0.250
 
 position of ions in fractional coordinates (direct lattice) 
   0.00005644  0.99994782  0.24999999
   0.99963861  0.14263978  0.24999999
   0.99940630  0.28538928  0.24999998
   0.99956054  0.42838011  0.24999999
   0.99996957  0.57139586  0.24999999
   0.00087320  0.71461966  0.24999998
   0.00089198  0.85759966  0.24999998
   0.14318557  0.00025034  0.25000000
   0.14271201  0.14296068  0.24999999
   0.14187443  0.28511698  0.24999998
   0.14188222  0.42815247  0.24999999
   0.14268642  0.57115814  0.25000000
   0.14309111  0.71423103  0.25000000
   0.14326709  0.85728884  0.25000000
   0.28564994  0.99974097  0.25000001
   0.28553094  0.14250319  0.25000000
   0.28565912  0.28686937  0.24999997
   0.28377812  0.42759382  0.25000002
   0.28570309  0.57025941  0.25000004
   0.28547806  0.71445669  0.24999998
   0.28560065  0.85726116  0.24999999
   0.42864369  0.99994613  0.25000000
   0.42839522  0.14233242  0.25000001
   0.42666230  0.28186273  0.25000000
   0.42662509  0.71616180  0.24999998
   0.42833377  0.85730373  0.24999998
   0.57136745  0.00012906  0.24999998
   0.57137505  0.14247944  0.25000001
   0.57216860  0.28565429  0.25000001
   0.57219376  0.85765797  0.24999997
   0.71430938  0.99997729  0.24999998
   0.71433140  0.14281285  0.25000000
   0.71425155  0.28554822  0.25000001
   0.71372518  0.42761004  0.25000000
   0.71762364  0.57351348  0.24999998
   0.71380833  0.85740958  0.24999998
   0.85718575  0.00005528  0.24999999
   0.85688611  0.14271256  0.24999999
   0.85680260  0.28544515  0.24999999
   0.85706380  0.42839376  0.24999998
   0.85756614  0.57180696  0.24999996
   0.85899667  0.71520619  0.24999996
   0.85762431  0.85712806  0.24999998
   0.04757443  0.09526089  0.24999999
   0.04666094  0.23751755  0.24999999
   0.04664665  0.38054872  0.24999999
   0.04751940  0.52370009  0.24999999
   0.04791488  0.66673074  0.24999999
   0.04818975  0.80974533  0.24999999
   0.04798940  0.95252651  0.24999999
   0.19034636  0.09505868  0.24999999
   0.18987098  0.23802147  0.24999998
   0.18845650  0.37991093  0.24999998
   0.18987889  0.52328433  0.24999999
   0.19031510  0.66666548  0.25000000
   0.19066834  0.80962215  0.25000000
   0.19071305  0.95236500  0.25000000
   0.33328566  0.09512368  0.25000001
   0.33379396  0.23773936  0.24999999
   0.32979586  0.37961183  0.24999996
   0.32983719  0.52159165  0.25000098
   0.33377505  0.66752987  0.24999998
   0.33324439  0.80956920  0.24999998
   0.33320165  0.95225355  0.25000000
   0.47621146  0.09487420  0.25000001
   0.47546977  0.23737637  0.25000001
   0.47546250  0.80938236  0.24999997
   0.47619447  0.95255475  0.24999998
   0.61890101  0.09506750  0.25000000
   0.61918866  0.23767010  0.25000002
   0.62092847  0.37886993  0.25000000
   0.62098073  0.81322113  0.24999998
   0.61919387  0.95268635  0.24999998
   0.76190979  0.09535499  0.24999999
   0.76183754  0.23785167  0.25000000
   0.76196773  0.38066275  0.25000000
   0.76172368  0.52480756  0.24999998
   0.76364849  0.66751315  0.24999998
   0.76187289  0.80829995  0.24999999
   0.76203119  0.95259100  0.24999998
   0.90447384  0.09487137  0.24999999
   0.90430227  0.23782980  0.24999999
   0.90435317  0.38086272  0.24999999
   0.90480148  0.52393811  0.24999997
   0.90559994  0.66697552  0.24999996
   0.90565766  0.81003409  0.24999997
   0.90486317  0.95220681  0.24999999
   0.46284628  0.35436385  0.25000000
   0.40254742  0.41863441  0.24999998
   0.40258466  0.55527108  0.25000001
   0.64487220  0.53981349  0.25000000
   0.58475887  0.41520115  0.24999999
   0.58482164  0.74072268  0.24999998
   0.46273585  0.67977064  0.24999999
   0.71773497  0.71556574  0.24999999
 
 position of ions in cartesian coordinates  (Angst):
  -8.63409364 14.95637720  3.74999983
  16.03302786  2.13348571  3.74999985
  14.79629961  4.26861245  3.74999977
  13.56416345  6.40734893  3.74999979
  12.33621258  8.54645800  3.74999979
  -6.15603066 10.68867892  3.74999967
  -7.39041279 12.82725339  3.74999969
   2.47080168  0.00374440  3.74999994
   1.23024482  2.13828550  3.74999979
  -0.01181439  4.26453965  3.74999964
  -1.24686556  6.40394406  3.74999992
  -2.46790449  8.54290242  3.74999998
  -3.69642367 10.68286621  3.74999997
  -4.92876267 12.82260435  3.74999994
  -3.69981117 14.95328332  3.75000011
   3.70082672  2.13144273  3.74999998
   2.45636356  4.29075047  3.74999953
   1.20864815  6.39558820  3.75000037
   0.00990289  8.52945991  3.75000064
  -1.23920191 10.68624145  3.74999975
  -2.47027543 12.82219040  3.74999986
  -1.23193232 14.95635194  3.74999995
   6.16971589  2.12888848  3.75000018
   4.93486975  4.21586535  3.75000004
   1.18382928 10.71174498  3.74999964
  -0.00549377 12.82282705  3.74999965
   9.86699450  0.00193039  3.74999975
   8.63785637  2.13108748  3.75000021
   7.41517269  4.27257624  3.75000020
   2.47605853 12.82812548  3.74999959
   3.70154158 14.95681810  3.74999972
  11.10398163  2.13607438  3.74999997
   9.87000862  4.27098977  3.75000013
   8.63414014  6.39583083  3.74999993
   7.44151867  8.57813157  3.74999975
   4.92403417 12.82441030  3.74999974
  14.80401042  0.00082683  3.74999981
  13.56691563  2.13457430  3.74999981
  12.33290321  4.26944813  3.74999990
  11.10297900  6.40755300  3.74999973
   9.87320764  8.55260682  3.74999945
   8.65958752 10.69745184  3.74999946
   7.41031643 12.82019955  3.74999974
  -0.00096742  1.42483208  3.74999984
  -1.24520435  3.55258740  3.74999979
  -2.48059956  5.69192716  3.74999982
  -3.70171269  7.83306477  3.74999989
  -4.93002630  9.97239682  3.74999985
  -6.16028415 12.11148866  3.74999978
  -7.39673413 14.24708924  3.74999981
   2.46659812  1.42180773  3.74999990
   1.22382993  3.56012468  3.74999965
  -0.02588861  5.68238771  3.74999964
  -1.23942628  7.82684624  3.74999992
  -2.47006308  9.97142072  3.75000000
  -3.69846731 12.10964612  3.74999993
  -4.93035371 14.24467346  3.75000003
   4.93474694  1.42277989  3.75000012
   3.71196551  3.55590503  3.74999985
   2.41777168  5.67791407  3.74999944
   1.19241598  7.80152854  3.75001472
   0.00017477  9.98434950  3.74999968
  -1.23557371 12.10885426  3.74999973
  -2.46846530 14.24300647  3.74999998
   7.40537827  1.41904841  3.75000017
   6.16198844  3.55047577  3.75000020
   1.22229422 12.10605953  3.74999961
  -0.00143178 14.24751161  3.74999972
   9.86810573  1.42193958  3.75000000
   8.64162620  3.55486917  3.75000023
   7.45234071  5.66681724  3.75000007
   3.70239526 12.16347669  3.74999965
   2.46717980 14.24947995  3.74999967
  12.33553320  1.42623955  3.74999980
  11.10375248  3.55758494  3.75000005
   9.87275334  5.69363273  3.74999996
   8.62377304  7.84962942  3.74999965
   7.42467957  9.98409949  3.74999965
   6.17824603 12.08986981  3.74999978
   4.93495205 14.24805381  3.74999973
  14.80193861  1.41900605  3.74999983
  13.56445520  3.55725787  3.74999982
  12.33017069  5.69662382  3.74999978
  11.10238322  7.83662498  3.74999958
   9.88097120  9.97605796  3.74999942
   8.64658309 12.11580770  3.74999959
   7.40512615 14.24230740  3.74999982
   4.93372000  5.30027603  3.74999993
   3.33728640  6.26158085  3.74999967
   2.15800099  8.30527704  3.75000009
   6.47604258  8.07407547  3.74999993
   6.51391527  6.21022914  3.74999991
   3.70395190 11.07910600  3.74999975
   2.12175624 10.16743669  3.74999978
   6.21674647 10.70282960  3.74999979
 


--------------------------------------------------------------------------------------------------------


 k-point   1 :   0.0000 0.0000 0.0000  plane waves:   98419
 k-point   2 :   0.5000 0.0000 0.0000  plane waves:   98350
 k-point   3 :   0.0000 0.5000 0.0000  plane waves:   98350
 k-point   4 :   0.5000 0.5000 0.0000  plane waves:   98350

 maximum and minimum number of plane-waves per node :      8237     8161

 maximum number of plane-waves:     98419
 maximum index in each direction: 
   IXMAX=   31   IYMAX=   31   IZMAX=   27
   IXMIN=  -31   IYMIN=  -31   IZMIN=  -27


 real space projection operators:
  total allocation   :       4939.55 KBytes
  max/ min on nodes  :        421.66        399.48


 parallel 3D FFT for wavefunctions:
    minimum data exchange during FFTs selected (reduces bandwidth)
 parallel 3D FFT for charge:
    minimum data exchange during FFTs selected (reduces bandwidth)


 total amount of memory used by VASP MPI-rank0   404213. kBytes
=======================================================================

   base      :      30000. kBytes
   nonlr-proj:       3276. kBytes
   fftplans  :      77588. kBytes
   grid      :      51044. kBytes
   one-center:         49. kBytes
   wavefun   :     242256. kBytes
 
     INWAV:  cpu time      0.0000: real time      0.0000
 Broyden mixing: mesh for mixing (old mesh)
   NGX = 63   NGY = 63   NGZ = 55
  (NGX  =192   NGY  =192   NGZ  =168)
  gives a total of 218295 points

 initial charge density was supplied:
 charge density of overlapping atoms calculated
 number of electron     360.0000000 magnetization      -0.0000000
 keeping initial charge density in first step


--------------------------------------------------------------------------------------------------------


 Maximum index for non-local projection operator           131
 Maximum index for augmentation-charges          1681 (set IRDMAX)


--------------------------------------------------------------------------------------------------------


 First call to EWALD:  gamma=   0.113
 Maximum number of real-space cells 3x 3x 3
 Maximum number of reciprocal cells 3x 3x 3

    FEWALD:  cpu time      0.0053: real time      0.0053


--------------------------------------- Ionic step        1  -------------------------------------------




--------------------------------------- Iteration      1(   1)  ---------------------------------------


    POTLOK:  cpu time      1.1658: real time      1.1759
    SETDIJ:  cpu time      1.6811: real time      1.6954
     EDDAV:  cpu time     20.8685: real time     21.1677
       DOS:  cpu time      0.0019: real time      0.0019
    --------------------------------------------
      LOOP:  cpu time     23.7174: real time     24.0409

 eigenvalue-minimisations  :  4040
 total energy-change (2. order) : 0.3275593E+04  (-0.1335041E+05)
 number of electron     360.0000000 magnetization      -0.0000000
 augmentation part      360.0000000 magnetization      -0.0000000

 DIPCOR: dipole corrections for dipol
 direction  3 min pos   127,
 dipolmoment           0.000000      0.000000     -0.000000 electrons x Angstroem
 Tr[quadrupol]    -15770.527891

 energy correction for charged system         0.000000 eV
 dipol+quadrupol energy correction           -0.000000 eV
 added-field ion interaction          0.000000 eV  (added to PSCEN)


 Free energy of the ion-electron system (eV)
  ---------------------------------------------------
  alpha Z        PSCENC =       169.58069902
  Ewald energy   TEWEN  =     36070.89564753
  -Hartree energ DENC   =    -45763.21407120
  -exchange      EXHF   =         0.00000000
  -V(xc)+E(xc)   XCENC  =      1182.64189833
  PAW double counting   =      9660.05146153    -9710.78041263
  entropy T*S    EENTRO =        -0.03802560
  eigenvalues    EBANDS =     -1487.39653655
  atomic energy  EATOM  =     13153.85254414
  Solvation  Ediel_sol  =         0.00000000
  ---------------------------------------------------
  free energy    TOTEN  =      3275.59320458 eV

  energy without entropy =     3275.63123018  energy(sigma->0) =     3275.61221738


--------------------------------------------------------------------------------------------------------




--------------------------------------- Iteration      1(   2)  ---------------------------------------


     EDDAV:  cpu time     25.6975: real time     26.0783
       DOS:  cpu time      0.0017: real time      0.0017
    --------------------------------------------
      LOOP:  cpu time     25.6993: real time     26.0800

 eigenvalue-minimisations  :  5304
 total energy-change (2. order) :-0.3496291E+04  (-0.3327195E+04)
 number of electron     360.0000000 magnetization      -0.0000000
 augmentation part      360.0000000 magnetization      -0.0000000

 DIPCOR: dipole corrections for dipol
 direction  3 min pos   127,
 dipolmoment           0.000000      0.000000     -0.000000 electrons x Angstroem
 Tr[quadrupol]    -15770.527891

 energy correction for charged system         0.000000 eV
 dipol+quadrupol energy correction           -0.000000 eV
 added-field ion interaction          0.000000 eV  (added to PSCEN)


 Free energy of the ion-electron system (eV)
  ---------------------------------------------------
  alpha Z        PSCENC =       169.58069902
  Ewald energy   TEWEN  =     36070.89564753
  -Hartree energ DENC   =    -45763.21407120
  -exchange      EXHF   =         0.00000000
  -V(xc)+E(xc)   XCENC  =      1182.64189833
  PAW double counting   =      9660.05146153    -9710.78041263
  entropy T*S    EENTRO =        -0.00002012
  eigenvalues    EBANDS =     -4983.72505822
  atomic energy  EATOM  =     13153.85254414
  Solvation  Ediel_sol  =         0.00000000
  ---------------------------------------------------
  free energy    TOTEN  =      -220.69731161 eV

  energy without entropy =     -220.69729149  energy(sigma->0) =     -220.69730155


--------------------------------------------------------------------------------------------------------




--------------------------------------- Iteration      1(   3)  ---------------------------------------


     EDDAV:  cpu time     22.3998: real time     22.7991
       DOS:  cpu time      0.0013: real time      0.0013
    --------------------------------------------
      LOOP:  cpu time     22.4011: real time     22.8004

 eigenvalue-minimisations  :  4440
 total energy-change (2. order) :-0.6435991E+03  (-0.6409236E+03)
 number of electron     360.0000000 magnetization      -0.0000000
 augmentation part      360.0000000 magnetization      -0.0000000

 DIPCOR: dipole corrections for dipol
 direction  3 min pos   127,
 dipolmoment           0.000000      0.000000     -0.000000 electrons x Angstroem
 Tr[quadrupol]    -15770.527891

 energy correction for charged system         0.000000 eV
 dipol+quadrupol energy correction           -0.000000 eV
 added-field ion interaction          0.000000 eV  (added to PSCEN)


 Free energy of the ion-electron system (eV)
  ---------------------------------------------------
  alpha Z        PSCENC =       169.58069902
  Ewald energy   TEWEN  =     36070.89564753
  -Hartree energ DENC   =    -45763.21407120
  -exchange      EXHF   =         0.00000000
  -V(xc)+E(xc)   XCENC  =      1182.64189833
  PAW double counting   =      9660.05146153    -9710.78041263
  entropy T*S    EENTRO =        -0.00000000
  eigenvalues    EBANDS =     -5627.32413026
  atomic energy  EATOM  =     13153.85254414
  Solvation  Ediel_sol  =         0.00000000
  ---------------------------------------------------
  free energy    TOTEN  =      -864.29636353 eV

  energy without entropy =     -864.29636353  energy(sigma->0) =     -864.29636353


--------------------------------------------------------------------------------------------------------




--------------------------------------- Iteration      1(   4)  ---------------------------------------


     EDDAV:  cpu time     22.2275: real time     22.5768
       DOS:  cpu time      0.0013: real time      0.0013
    --------------------------------------------
      LOOP:  cpu time     22.2288: real time     22.5781

 eigenvalue-minimisations  :  4424
 total energy-change (2. order) :-0.2470691E+02  (-0.2455959E+02)
 number of electron     360.0000000 magnetization      -0.0000000
 augmentation part      360.0000000 magnetization      -0.0000000

 DIPCOR: dipole corrections for dipol
 direction  3 min pos   127,
 dipolmoment           0.000000      0.000000     -0.000000 electrons x Angstroem
 Tr[quadrupol]    -15770.527891

 energy correction for charged system         0.000000 eV
 dipol+quadrupol energy correction           -0.000000 eV
 added-field ion interaction          0.000000 eV  (added to PSCEN)


 Free energy of the ion-electron system (eV)
  ---------------------------------------------------
  alpha Z        PSCENC =       169.58069902
  Ewald energy   TEWEN  =     36070.89564753
  -Hartree energ DENC   =    -45763.21407120
  -exchange      EXHF   =         0.00000000
  -V(xc)+E(xc)   XCENC  =      1182.64189833
  PAW double counting   =      9660.05146153    -9710.78041263
  entropy T*S    EENTRO =        -0.00000001
  eigenvalues    EBANDS =     -5652.03104128
  atomic energy  EATOM  =     13153.85254414
  Solvation  Ediel_sol  =         0.00000000
  ---------------------------------------------------
  free energy    TOTEN  =      -889.00327457 eV

  energy without entropy =     -889.00327456  energy(sigma->0) =     -889.00327456


--------------------------------------------------------------------------------------------------------




--------------------------------------- Iteration      1(   5)  ---------------------------------------


     EDDAV:  cpu time     24.4917: real time     24.8933
       DOS:  cpu time      0.0013: real time      0.0013
    CHARGE:  cpu time      1.3069: real time      1.3259
    MIXING:  cpu time      0.0286: real time      0.0288
    --------------------------------------------
      LOOP:  cpu time     25.8285: real time     26.2493

 eigenvalue-minimisations  :  4984
 total energy-change (2. order) :-0.7249480E+00  (-0.7232785E+00)
 number of electron     359.9999996 magnetization       0.0000000
 augmentation part        9.7044838 magnetization       0.0005824

 DIPCOR: dipole corrections for dipol
 direction  3 min pos   127,
 dipolmoment           0.000000      0.000000     -0.000000 electrons x Angstroem
 Tr[quadrupol]    -15770.527891

 energy correction for charged system         0.000000 eV
 dipol+quadrupol energy correction           -0.000000 eV
 added-field ion interaction          0.000000 eV  (added to PSCEN)


 Broyden mixing:
  rms(total) = 0.44071E+01    rms(broyden)= 0.44065E+01
  rms(prec ) = 0.49369E+01
  weight for this iteration     100.00

 Free energy of the ion-electron system (eV)
  ---------------------------------------------------
  alpha Z        PSCENC =       169.58069902
  Ewald energy   TEWEN  =     36070.89564753
  -Hartree energ DENC   =    -45763.21407120
  -exchange      EXHF   =         0.00000000
  -V(xc)+E(xc)   XCENC  =      1182.64189833
  PAW double counting   =      9660.05146153    -9710.78041263
  entropy T*S    EENTRO =        -0.00000002
  eigenvalues    EBANDS =     -5652.75598926
  atomic energy  EATOM  =     13153.85254414
  Solvation  Ediel_sol  =         0.00000000
  ---------------------------------------------------
  free energy    TOTEN  =      -889.72822255 eV

  energy without entropy =     -889.72822253  energy(sigma->0) =     -889.72822254


--------------------------------------------------------------------------------------------------------




--------------------------------------- Iteration      1(   6)  ---------------------------------------


    POTLOK:  cpu time      1.1827: real time      1.1965
    SETDIJ:  cpu time      1.8705: real time      1.8869
     EDDAV:  cpu time     20.6003: real time     20.9077
       DOS:  cpu time      0.0012: real time      0.0012
    CHARGE:  cpu time      1.3084: real time      1.3239
    MIXING:  cpu time      0.0290: real time      0.0291
    --------------------------------------------
      LOOP:  cpu time     24.9921: real time     25.3453

 eigenvalue-minimisations  :  4012
 total energy-change (2. order) : 0.4160147E+02  (-0.5251458E+01)
 number of electron     359.9999997 magnetization       0.0000000
 augmentation part        9.2504033 magnetization       0.0021831

 DIPCOR: dipole corrections for dipol
 direction  3 min pos   123,
 dipolmoment           0.000000      0.000000      0.057314 electrons x Angstroem
 Tr[quadrupol]    -15773.157788

 energy correction for charged system         0.000000 eV
 dipol+quadrupol energy correction           -0.000088 eV
 added-field ion interaction         -0.392870 eV  (added to PSCEN)


 Broyden mixing:
  rms(total) = 0.25268E+01    rms(broyden)= 0.25268E+01
  rms(prec ) = 0.27916E+01
  weight for this iteration     100.00

 eigenvalues of (default mixing * dielectric matrix)
  average eigenvalue GAMMA=   1.4998
  1.4998

 Free energy of the ion-electron system (eV)
  ---------------------------------------------------
  alpha Z        PSCENC =       169.18774137
  Ewald energy   TEWEN  =     36070.89564753
  -Hartree energ DENC   =    -46281.00541086
  -exchange      EXHF   =         0.00000000
  -V(xc)+E(xc)   XCENC  =      1205.02029264
  PAW double counting   =     17726.65239201   -17784.32512634
  entropy T*S    EENTRO =        -0.00000001
  eigenvalues    EBANDS =     -5108.40482834
  atomic energy  EATOM  =     13153.85254414
  Solvation  Ediel_sol  =         0.00000000
  ---------------------------------------------------
  free energy    TOTEN  =      -848.12674785 eV

  energy without entropy =     -848.12674785  energy(sigma->0) =     -848.12674785


--------------------------------------------------------------------------------------------------------




--------------------------------------- Iteration      1(   7)  ---------------------------------------


    POTLOK:  cpu time      1.1395: real time      1.1853
    SETDIJ:  cpu time      1.8612: real time      1.8744
     EDDAV:  cpu time     20.7022: real time     21.0044
       DOS:  cpu time      0.0017: real time      0.0017
    CHARGE:  cpu time      1.2903: real time      1.3051
    MIXING:  cpu time      0.0289: real time      0.0291
    --------------------------------------------
      LOOP:  cpu time     25.0239: real time     25.4002

 eigenvalue-minimisations  :  4040
 total energy-change (2. order) : 0.1585077E+02  (-0.4252420E+01)
 number of electron     359.9999997 magnetization       0.0000000
 augmentation part        8.8291789 magnetization      -0.0015801

 DIPCOR: dipole corrections for dipol
 direction  3 min pos   129,
 dipolmoment           0.000000      0.000000     -0.054547 electrons x Angstroem
 Tr[quadrupol]    -15776.985029

 energy correction for charged system         0.000000 eV
 dipol+quadrupol energy correction           -0.000079 eV
 added-field ion interaction         -0.186950 eV  (added to PSCEN)


 Broyden mixing:
  rms(total) = 0.91967E+00    rms(broyden)= 0.91952E+00
  rms(prec ) = 0.96570E+00
  weight for this iteration     100.00

 eigenvalues of (default mixing * dielectric matrix)
  average eigenvalue GAMMA=   1.4359
  0.7762  2.0956

 Free energy of the ion-electron system (eV)
  ---------------------------------------------------
  alpha Z        PSCENC =       169.39366940
  Ewald energy   TEWEN  =     36070.89564753
  -Hartree energ DENC   =    -46859.50107654
  -exchange      EXHF   =         0.00000000
  -V(xc)+E(xc)   XCENC  =      1230.37714335
  PAW double counting   =     30703.94831974   -30766.70281330
  entropy T*S    EENTRO =        -0.00000000
  eigenvalues    EBANDS =     -4534.53941565
  atomic energy  EATOM  =     13153.85254414
  Solvation  Ediel_sol  =         0.00000000
  ---------------------------------------------------
  free energy    TOTEN  =      -832.27598133 eV

  energy without entropy =     -832.27598133  energy(sigma->0) =     -832.27598133


--------------------------------------------------------------------------------------------------------




--------------------------------------- Iteration      1(   8)  ---------------------------------------


    POTLOK:  cpu time      1.1977: real time      1.2092
    SETDIJ:  cpu time      1.8661: real time      1.8847
     EDDAV:  cpu time     21.3246: real time     21.6935
       DOS:  cpu time      0.0020: real time      0.0020
    CHARGE:  cpu time      1.2905: real time      1.3232
    MIXING:  cpu time      0.0361: real time      0.0364
    --------------------------------------------
      LOOP:  cpu time     25.7170: real time     26.1491

 eigenvalue-minimisations  :  4192
 total energy-change (2. order) :-0.1866524E+00  (-0.2716380E+00)
 number of electron     359.9999997 magnetization       0.0000000
 augmentation part        8.7318576 magnetization      -0.0001414

 DIPCOR: dipole corrections for dipol
 direction  3 min pos   131,
 dipolmoment           0.000000      0.000000     -0.092421 electrons x Angstroem
 Tr[quadrupol]    -15778.717329

 energy correction for charged system         0.000000 eV
 dipol+quadrupol energy correction           -0.000228 eV
 added-field ion interaction         -0.633513 eV  (added to PSCEN)


 Broyden mixing:
  rms(total) = 0.46285E+00    rms(broyden)= 0.46281E+00
  rms(prec ) = 0.50239E+00
  weight for this iteration     100.00

 eigenvalues of (default mixing * dielectric matrix)
  average eigenvalue GAMMA=   1.4000
  2.3508  1.1606  0.6885

 Free energy of the ion-electron system (eV)
  ---------------------------------------------------
  alpha Z        PSCENC =       168.94695814
  Ewald energy   TEWEN  =     36070.89564753
  -Hartree energ DENC   =    -46989.95149872
  -exchange      EXHF   =         0.00000000
  -V(xc)+E(xc)   XCENC  =      1234.57306078
  PAW double counting   =     34772.75620216   -34835.46715450
  entropy T*S    EENTRO =        -0.00000001
  eigenvalues    EBANDS =     -4408.06839325
  atomic energy  EATOM  =     13153.85254414
  Solvation  Ediel_sol  =         0.00000000
  ---------------------------------------------------
  free energy    TOTEN  =      -832.46263373 eV

  energy without entropy =     -832.46263372  energy(sigma->0) =     -832.46263373


--------------------------------------------------------------------------------------------------------




--------------------------------------- Iteration      1(   9)  ---------------------------------------


    POTLOK:  cpu time      1.1968: real time      1.2118
    SETDIJ:  cpu time      1.8320: real time      1.8461
     EDDAV:  cpu time     21.8030: real time     22.1341
       DOS:  cpu time      0.0013: real time      0.0013
    CHARGE:  cpu time      1.2802: real time      1.2943
    MIXING:  cpu time      0.0380: real time      0.0382
    --------------------------------------------
      LOOP:  cpu time     26.1513: real time     26.5259

 eigenvalue-minimisations  :  4304
 total energy-change (2. order) : 0.3208224E-01  (-0.2577239E-01)
 number of electron     359.9999997 magnetization       0.0000000
 augmentation part        8.7136282 magnetization      -0.0000181

 DIPCOR: dipole corrections for dipol
 direction  3 min pos   127,
 dipolmoment           0.000000      0.000000      0.004026 electrons x Angstroem
 Tr[quadrupol]    -15780.443638

 energy correction for charged system         0.000000 eV
 dipol+quadrupol energy correction           -0.000000 eV
 added-field ion interaction         -0.000000 eV  (added to PSCEN)


 Broyden mixing:
  rms(total) = 0.17402E+00    rms(broyden)= 0.17401E+00
  rms(prec ) = 0.22151E+00
  weight for this iteration     100.00

 eigenvalues of (default mixing * dielectric matrix)
  average eigenvalue GAMMA=   1.4066
  2.3875  1.7578  0.8234  0.6579

 Free energy of the ion-electron system (eV)
  ---------------------------------------------------
  alpha Z        PSCENC =       169.58069859
  Ewald energy   TEWEN  =     36070.89564753
  -Hartree energ DENC   =    -47048.83422545
  -exchange      EXHF   =         0.00000000
  -V(xc)+E(xc)   XCENC  =      1235.47345394
  PAW double counting   =     36691.52478724   -36753.37465443
  entropy T*S    EENTRO =        -0.00000001
  eigenvalues    EBANDS =     -4351.54880304
  atomic energy  EATOM  =     13153.85254414
  Solvation  Ediel_sol  =         0.00000000
  ---------------------------------------------------
  free energy    TOTEN  =      -832.43055149 eV

  energy without entropy =     -832.43055148  energy(sigma->0) =     -832.43055149


--------------------------------------------------------------------------------------------------------




--------------------------------------- Iteration      1(  10)  ---------------------------------------


    POTLOK:  cpu time      1.1637: real time      1.1781
    SETDIJ:  cpu time      1.8494: real time      1.8778
     EDDAV:  cpu time     20.7186: real time     21.0912
       DOS:  cpu time      0.0016: real time      0.0016
    CHARGE:  cpu time      1.2988: real time      1.3148
    MIXING:  cpu time      0.0342: real time      0.0345
    --------------------------------------------
      LOOP:  cpu time     25.0663: real time     25.4979

 eigenvalue-minimisations  :  4032
 total energy-change (2. order) :-0.2877637E-01  (-0.6050719E-02)
 number of electron     359.9999997 magnetization       0.0000000
 augmentation part        8.7198793 magnetization       0.0000812

 DIPCOR: dipole corrections for dipol
 direction  3 min pos   126,
 dipolmoment           0.000000      0.000000      0.010876 electrons x Angstroem
 Tr[quadrupol]    -15781.871871

 energy correction for charged system         0.000000 eV
 dipol+quadrupol energy correction           -0.000003 eV
 added-field ion interaction         -0.018638 eV  (added to PSCEN)


 Broyden mixing:
  rms(total) = 0.62244E-01    rms(broyden)= 0.62240E-01
  rms(prec ) = 0.12112E+00
  weight for this iteration     100.00

 eigenvalues of (default mixing * dielectric matrix)
  average eigenvalue GAMMA=   1.3452
  2.2469  2.0968  0.9733  0.7924  0.6167

 Free energy of the ion-electron system (eV)
  ---------------------------------------------------
  alpha Z        PSCENC =       169.56205806
  Ewald energy   TEWEN  =     36070.89564753
  -Hartree energ DENC   =    -47084.80797048
  -exchange      EXHF   =         0.00000000
  -V(xc)+E(xc)   XCENC  =      1235.63798593
  PAW double counting   =     37212.68918362   -37274.02543512
  entropy T*S    EENTRO =        -0.00000001
  eigenvalues    EBANDS =     -4316.26334153
  atomic energy  EATOM  =     13153.85254414
  Solvation  Ediel_sol  =         0.00000000
  ---------------------------------------------------
  free energy    TOTEN  =      -832.45932787 eV

  energy without entropy =     -832.45932786  energy(sigma->0) =     -832.45932786


--------------------------------------------------------------------------------------------------------




--------------------------------------- Iteration      1(  11)  ---------------------------------------


    POTLOK:  cpu time      1.1905: real time      1.2024
    SETDIJ:  cpu time      1.8574: real time      1.8720
     EDDAV:  cpu time     21.4429: real time     21.7547
       DOS:  cpu time      0.0024: real time      0.0024
    CHARGE:  cpu time      1.3005: real time      1.3145
    MIXING:  cpu time      0.0369: real time      0.0372
    --------------------------------------------
      LOOP:  cpu time     25.8306: real time     26.1833

 eigenvalue-minimisations  :  4216
 total energy-change (2. order) :-0.3189495E-01  (-0.1732717E-02)
 number of electron     359.9999997 magnetization       0.0000000
 augmentation part        8.7200024 magnetization       0.0000228

 DIPCOR: dipole corrections for dipol
 direction  3 min pos   127,
 dipolmoment           0.000000      0.000000      0.000976 electrons x Angstroem
 Tr[quadrupol]    -15783.012945

 energy correction for charged system         0.000000 eV
 dipol+quadrupol energy correction           -0.000000 eV
 added-field ion interaction         -0.000000 eV  (added to PSCEN)


 Broyden mixing:
  rms(total) = 0.38691E-01    rms(broyden)= 0.38689E-01
  rms(prec ) = 0.93833E-01
  weight for this iteration     100.00

 eigenvalues of (default mixing * dielectric matrix)
  average eigenvalue GAMMA=   1.3115
  2.2173  2.2173  1.1065  0.9570  0.7538  0.6174

 Free energy of the ion-electron system (eV)
  ---------------------------------------------------
  alpha Z        PSCENC =       169.58069900
  Ewald energy   TEWEN  =     36070.89564753
  -Hartree energ DENC   =    -47112.92991164
  -exchange      EXHF   =         0.00000000
  -V(xc)+E(xc)   XCENC  =      1235.88194353
  PAW double counting   =     37226.15302780   -37287.38320218
  entropy T*S    EENTRO =        -0.00000001
  eigenvalues    EBANDS =     -4288.54197099
  atomic energy  EATOM  =     13153.85254414
  Solvation  Ediel_sol  =         0.00000000
  ---------------------------------------------------
  free energy    TOTEN  =      -832.49122282 eV

  energy without entropy =     -832.49122281  energy(sigma->0) =     -832.49122281


--------------------------------------------------------------------------------------------------------




--------------------------------------- Iteration      1(  12)  ---------------------------------------


    POTLOK:  cpu time      1.1435: real time      1.2009
    SETDIJ:  cpu time      1.8494: real time      1.8677
     EDDAV:  cpu time     20.9252: real time     21.2410
       DOS:  cpu time      0.0014: real time      0.0035
    CHARGE:  cpu time      1.3060: real time      1.3184
    MIXING:  cpu time      0.0401: real time      0.0405
    --------------------------------------------
      LOOP:  cpu time     25.2656: real time     25.6720

 eigenvalue-minimisations  :  4056
 total energy-change (2. order) :-0.1242434E-01  (-0.1673847E-02)
 number of electron     359.9999997 magnetization      -0.0000000
 augmentation part        8.7151074 magnetization       0.0000323

 DIPCOR: dipole corrections for dipol
 direction  3 min pos   127,
 dipolmoment           0.000000      0.000000      0.000594 electrons x Angstroem
 Tr[quadrupol]    -15784.838825

 energy correction for charged system         0.000000 eV
 dipol+quadrupol energy correction           -0.000000 eV
 added-field ion interaction         -0.000000 eV  (added to PSCEN)


 Broyden mixing:
  rms(total) = 0.24377E-01    rms(broyden)= 0.24375E-01
  rms(prec ) = 0.65974E-01
  weight for this iteration     100.00

 eigenvalues of (default mixing * dielectric matrix)
  average eigenvalue GAMMA=   1.4121
  2.4880  2.4880  1.6773  1.0257  0.8714  0.7167  0.6178

 Free energy of the ion-electron system (eV)
  ---------------------------------------------------
  alpha Z        PSCENC =       169.58069901
  Ewald energy   TEWEN  =     36070.89564753
  -Hartree energ DENC   =    -47154.61718559
  -exchange      EXHF   =         0.00000000
  -V(xc)+E(xc)   XCENC  =      1236.31786360
  PAW double counting   =     37145.53465253   -37206.71373291
  entropy T*S    EENTRO =        -0.00000001
  eigenvalues    EBANDS =     -4247.35413546
  atomic energy  EATOM  =     13153.85254414
  Solvation  Ediel_sol  =         0.00000000
  ---------------------------------------------------
  free energy    TOTEN  =      -832.50364715 eV

  energy without entropy =     -832.50364714  energy(sigma->0) =     -832.50364715


--------------------------------------------------------------------------------------------------------




--------------------------------------- Iteration      1(  13)  ---------------------------------------


    POTLOK:  cpu time      1.1918: real time      1.2044
    SETDIJ:  cpu time      1.8698: real time      1.8838
     EDDAV:  cpu time     20.4519: real time     20.7596
       DOS:  cpu time      0.0030: real time      0.0031
    CHARGE:  cpu time      1.2628: real time      1.3279
    MIXING:  cpu time      0.0348: real time      0.0351
    --------------------------------------------
      LOOP:  cpu time     24.8142: real time     25.2139

 eigenvalue-minimisations  :  3968
 total energy-change (2. order) : 0.7654489E-02  (-0.2220932E-02)
 number of electron     359.9999997 magnetization      -0.0000000
 augmentation part        8.7095308 magnetization       0.0000171

 DIPCOR: dipole corrections for dipol
 direction  3 min pos   127,
 dipolmoment           0.000000      0.000000      0.000243 electrons x Angstroem
 Tr[quadrupol]    -15787.569282

 energy correction for charged system         0.000000 eV
 dipol+quadrupol energy correction           -0.000000 eV
 added-field ion interaction         -0.000000 eV  (added to PSCEN)


 Broyden mixing:
  rms(total) = 0.14603E-01    rms(broyden)= 0.14596E-01
  rms(prec ) = 0.36095E-01
  weight for this iteration     100.00

 eigenvalues of (default mixing * dielectric matrix)
  average eigenvalue GAMMA=   1.4919
  3.3108  2.5191  1.8277  1.0617  1.0617  0.8346  0.6153  0.7043

 Free energy of the ion-electron system (eV)
  ---------------------------------------------------
  alpha Z        PSCENC =       169.58069902
  Ewald energy   TEWEN  =     36070.89564753
  -Hartree energ DENC   =    -47210.82159507
  -exchange      EXHF   =         0.00000000
  -V(xc)+E(xc)   XCENC  =      1236.91822648
  PAW double counting   =     37051.17782371   -37112.31437522
  entropy T*S    EENTRO =        -0.00000001
  eigenvalues    EBANDS =     -4191.78496325
  atomic energy  EATOM  =     13153.85254414
  Solvation  Ediel_sol  =         0.00000000
  ---------------------------------------------------
  free energy    TOTEN  =      -832.49599266 eV

  energy without entropy =     -832.49599266  energy(sigma->0) =     -832.49599266


--------------------------------------------------------------------------------------------------------




--------------------------------------- Iteration      1(  14)  ---------------------------------------


    POTLOK:  cpu time      1.1965: real time      1.2111
    SETDIJ:  cpu time      1.8699: real time      1.8859
     EDDAV:  cpu time     20.1116: real time     20.4275
       DOS:  cpu time      0.0015: real time      0.0015
    CHARGE:  cpu time      1.3165: real time      1.3342
    MIXING:  cpu time      0.0475: real time      0.0478
    --------------------------------------------
      LOOP:  cpu time     24.5436: real time     24.9080

 eigenvalue-minimisations  :  3896
 total energy-change (2. order) : 0.9661239E-02  (-0.1700299E-02)
 number of electron     359.9999997 magnetization      -0.0000000
 augmentation part        8.7070173 magnetization      -0.0000085

 DIPCOR: dipole corrections for dipol
 direction  3 min pos   116,
 dipolmoment           0.000000      0.000000     -0.304836 electrons x Angstroem
 Tr[quadrupol]    -15789.627988

 energy correction for charged system         0.000000 eV
 dipol+quadrupol energy correction           -0.002477 eV
 added-field ion interaction          5.746238 eV  (added to PSCEN)


 Broyden mixing:
  rms(total) = 0.12184E-01    rms(broyden)= 0.12180E-01
  rms(prec ) = 0.26233E-01
  weight for this iteration     100.00

 eigenvalues of (default mixing * dielectric matrix)
  average eigenvalue GAMMA=   1.5388
  4.1234  2.4216  1.9002  1.4083  1.0692  0.8764  0.7631  0.6146  0.6728

 Free energy of the ion-electron system (eV)
  ---------------------------------------------------
  alpha Z        PSCENC =       175.32445978
  Ewald energy   TEWEN  =     36070.89564753
  -Hartree energ DENC   =    -47237.65732314
  -exchange      EXHF   =         0.00000000
  -V(xc)+E(xc)   XCENC  =      1237.14567046
  PAW double counting   =     37032.08755060   -37093.22298833
[...]
   0.119E+02 -.154E+02 -.613E-03   -.118E+02 0.154E+02 0.615E-03   -.307E-01 0.176E-01 0.564E-05   0.403E-03 0.629E-03 -.101E-05
   0.641E+02 -.618E+02 -.492E-03   -.642E+02 0.620E+02 0.496E-03   0.114E+00 -.246E+00 0.619E-05   0.308E-03 0.212E-03 -.212E-05
   -.213E+02 0.881E+02 0.753E-03   0.216E+02 -.885E+02 -.756E-03   -.282E+00 0.359E+00 -.155E-05   -.749E-03 -.519E-03 0.175E-05
   0.366E+00 0.290E+02 0.197E-03   -.318E+00 -.292E+02 -.198E-03   -.493E-01 0.143E+00 -.758E-05   -.236E-03 -.624E-03 0.230E-05
   0.623E+01 0.331E+01 -.296E-03   -.621E+01 -.332E+01 0.296E-03   -.874E-02 0.122E-01 -.202E-05   0.346E-04 -.680E-03 0.812E-06
   0.251E+02 -.162E+02 -.505E-03   -.251E+02 0.163E+02 0.505E-03   0.883E-01 -.127E+00 0.298E-05   0.198E-03 0.794E-04 -.341E-06
   0.858E+02 -.374E+02 -.189E-03   -.860E+02 0.376E+02 0.189E-03   0.273E+00 -.115E+00 -.158E-06   0.195E-03 -.350E-03 -.699E-07
   0.177E+03 0.708E+02 0.189E-04   -.179E+03 -.711E+02 -.193E-04   0.144E+01 0.282E+00 -.387E-05   -.281E-03 -.254E-03 0.716E-06
   0.167E+02 0.875E+02 0.145E-03   -.168E+02 -.882E+02 -.146E-03   0.102E+00 0.665E+00 -.655E-05   -.728E-03 -.728E-03 0.196E-05
   0.804E+01 0.230E+02 0.130E-04   -.815E+01 -.230E+02 -.152E-04   0.108E+00 0.443E-02 -.831E-05   -.187E-03 -.356E-03 0.243E-05
   -.314E+00 0.633E+01 0.223E-03   0.286E+00 -.631E+01 -.223E-03   0.262E-01 -.108E-01 -.355E-05   0.375E-03 -.530E-03 0.171E-05
   0.568E+01 -.475E+01 0.209E-03   -.567E+01 0.475E+01 -.210E-03   -.475E-02 0.830E-03 0.198E-05   0.239E-03 -.669E-03 0.703E-06
   0.248E+02 -.698E+01 0.302E-03   -.248E+02 0.696E+01 -.306E-03   0.103E-01 0.238E-01 0.247E-05   0.663E-03 -.392E-03 0.106E-05
   0.478E+02 0.143E+02 0.513E-03   -.480E+02 -.144E+02 -.516E-03   0.167E+00 0.142E+00 -.437E-05   0.542E-03 -.796E-03 0.216E-05
   0.432E+02 0.352E+02 0.507E-03   -.434E+02 -.357E+02 -.512E-03   0.169E+00 0.424E+00 -.523E-05   -.692E-04 -.356E-03 0.236E-05
   0.327E+02 0.273E+02 0.631E-04   -.331E+02 -.272E+02 -.653E-04   0.414E+00 -.719E-01 -.451E-05   -.323E-03 0.341E-04 0.186E-05
   -.465E+01 -.647E+01 0.441E-03   0.467E+01 0.650E+01 -.441E-03   -.185E-01 -.201E-01 0.281E-07   -.924E-03 0.253E-03 0.107E-05
   -.146E+02 -.113E+02 0.273E-03   0.146E+02 0.112E+02 -.274E-03   0.429E-01 0.272E-01 0.145E-04   -.959E-04 0.801E-04 -.966E-06
   -.161E+02 -.796E+01 0.425E-03   0.161E+02 0.796E+01 -.432E-03   0.514E-01 0.377E-02 0.790E-05   0.655E-03 0.911E-04 0.254E-05
   -.660E+01 -.130E+01 0.646E-03   0.662E+01 0.131E+01 -.651E-03   -.135E-01 -.178E-01 -.104E-04   -.448E-03 -.127E-03 0.485E-05
   0.386E+01 0.636E+01 0.248E-03   -.387E+01 -.640E+01 -.255E-03   0.143E-01 0.417E-01 0.215E-05   0.116E-04 -.226E-03 0.161E-05
   0.900E+01 0.699E+01 0.310E-04   -.899E+01 -.706E+01 -.331E-04   -.871E-02 0.637E-01 -.528E-05   -.202E-03 0.264E-04 0.202E-05
   0.611E+01 -.600E+00 -.141E-03   -.614E+01 0.650E+00 0.140E-03   0.340E-01 -.511E-01 -.556E-05   -.634E-03 0.513E-06 0.169E-05
   -.647E+01 -.268E+02 0.456E-03   0.648E+01 0.268E+02 -.459E-03   -.724E-02 -.425E-01 0.661E-05   -.406E-03 0.162E-03 -.585E-06
   -.337E+02 -.378E+02 -.489E-03   0.338E+02 0.378E+02 0.521E-03   -.118E+00 -.353E-01 -.851E-04   -.685E-04 0.434E-03 -.224E-06
   -.514E+02 -.302E+02 -.185E-02   0.514E+02 0.302E+02 0.188E-02   -.316E-01 -.383E-01 -.782E-04   0.668E-03 0.140E-03 0.140E-05
   -.487E+02 -.105E+02 0.666E-03   0.488E+02 0.106E+02 -.649E-03   -.911E-01 -.822E-01 -.109E-04   -.616E-04 0.249E-03 -.766E-05
   -.259E+02 0.781E+01 -.830E-05   0.259E+02 -.781E+01 0.892E-05   -.266E-01 0.167E-02 -.899E-05   0.577E-04 0.105E-03 0.337E-05
   -.680E+01 0.493E+01 -.748E-04   0.684E+01 -.494E+01 0.770E-04   -.398E-01 0.112E-01 -.141E-05   0.246E-03 0.413E-03 0.202E-06
   0.526E+00 -.773E+01 -.254E-03   -.509E+00 0.775E+01 0.252E-03   -.201E-01 -.186E-01 -.110E-05   -.488E-03 -.445E-05 0.958E-06
   -.231E+00 -.305E+02 -.233E-03   0.231E+00 0.306E+02 0.234E-03   -.187E-02 -.978E-01 0.729E-05   0.743E-03 -.275E-03 -.105E-05
   -.118E+02 -.935E+02 0.224E-03   0.120E+02 0.938E+02 -.204E-03   -.177E+00 -.258E+00 -.666E-04   -.333E-03 -.692E-03 0.294E-08
   -.144E+03 -.127E+03 -.628E-02   0.145E+03 0.127E+03 0.655E-02   -.799E+00 -.594E+00 -.384E-03   0.299E-03 0.168E-03 -.685E-04
   -.181E+03 -.612E+02 -.336E-02   0.182E+03 0.617E+02 0.342E-02   -.953E+00 -.475E+00 -.101E-03   0.478E-03 0.447E-03 -.283E-05
   -.865E+02 0.360E+02 -.947E-03   0.868E+02 -.359E+02 0.946E-03   -.345E+00 -.598E-01 0.151E-04   0.284E-03 0.295E-03 -.371E-06
   -.268E+02 0.148E+02 0.126E-03   0.269E+02 -.148E+02 -.126E-03   -.123E+00 0.576E-01 0.308E-05   0.180E-03 0.555E-03 -.442E-06
   -.752E+01 -.448E+01 0.302E-04   0.753E+01 0.448E+01 -.323E-04   -.496E-02 -.104E-01 0.549E-06   0.943E-04 0.277E-03 0.725E-06
   0.647E+01 -.188E+02 -.519E-03   -.644E+01 0.188E+02 0.521E-03   -.249E-01 -.225E-01 0.220E-05   -.508E-04 -.251E-03 -.574E-06
   0.206E+02 -.869E+02 -.290E-03   -.207E+02 0.871E+02 0.294E-03   0.119E+00 -.265E+00 0.102E-04   0.261E-04 -.471E-04 -.218E-05
   -.654E+02 0.603E+02 0.417E-03   0.656E+02 -.605E+02 -.420E-03   -.267E+00 0.226E+00 0.371E-05   0.530E-03 0.512E-03 -.460E-07
   -.131E+02 0.146E+02 0.531E-03   0.131E+02 -.146E+02 -.535E-03   -.324E-01 -.369E-02 -.405E-06   0.136E-03 0.498E-03 0.136E-05
   0.330E+01 0.233E+01 -.262E-03   -.331E+01 -.237E+01 0.262E-03   0.427E-02 0.403E-01 0.102E-05   0.237E-03 0.254E-03 0.245E-06
   0.297E+02 -.248E+02 -.719E-03   -.298E+02 0.249E+02 0.723E-03   0.829E-01 -.619E-01 0.501E-05   0.307E-03 -.379E-03 -.156E-05
   0.147E+03 -.904E+02 -.289E-03   -.148E+03 0.909E+02 0.291E-03   0.774E+00 -.511E+00 0.361E-05   0.683E-03 -.493E-03 -.155E-05
   0.221E+01 0.174E+03 0.300E-03   -.223E+01 -.176E+03 -.300E-03   0.229E-01 0.184E+01 -.829E-05   0.256E-03 -.559E-03 0.202E-05
   -.556E+01 0.390E+02 0.603E-03   0.560E+01 -.392E+02 -.607E-03   -.379E-01 0.229E+00 -.453E-05   0.203E-03 0.131E-03 0.229E-05
   0.403E+01 0.147E+02 0.307E-04   -.405E+01 -.148E+02 -.340E-04   0.123E-01 0.418E-01 -.238E-05   -.310E-03 0.184E-03 0.176E-05
   0.144E+02 -.427E+01 -.256E-03   -.144E+02 0.424E+01 0.255E-03   0.314E-02 0.326E-01 0.791E-06   0.203E-03 0.388E-03 0.548E-06
   0.422E+02 -.163E+02 -.171E-03   -.423E+02 0.164E+02 0.170E-03   0.117E+00 -.110E+00 0.576E-06   0.499E-04 -.659E-03 0.403E-06
   0.972E+02 0.203E+02 0.153E-03   -.978E+02 -.202E+02 -.153E-03   0.566E+00 -.102E+00 -.448E-05   0.254E-03 -.451E-03 0.108E-05
   0.844E+02 0.833E+02 0.219E-03   -.824E+02 -.848E+02 -.222E-03   -.199E+01 0.154E+01 -.311E-05   0.203E-03 -.771E-04 0.130E-05
   0.684E+02 0.400E+02 0.529E-04   -.684E+02 -.377E+02 -.578E-04   0.187E-01 -.235E+01 -.150E-05   -.224E-03 0.107E-03 0.148E-05
   0.915E+01 0.431E+02 0.132E-03   -.914E+01 -.434E+02 -.136E-03   -.168E-01 0.226E+00 -.446E-05   -.539E-03 0.184E-04 0.223E-05
   0.155E+01 0.764E+01 0.315E-03   -.157E+01 -.773E+01 -.320E-03   0.227E-01 0.807E-01 -.656E-05   -.980E-03 0.104E-03 0.242E-05
   -.198E+00 -.818E+00 0.202E-03   0.171E+00 0.800E+00 -.206E-03   0.273E-01 0.228E-01 -.679E-06   -.328E-03 0.299E-03 0.853E-06
   0.850E+01 -.353E+01 0.207E-03   -.857E+01 0.356E+01 -.208E-03   0.741E-01 -.371E-01 -.175E-05   -.225E-03 0.542E-03 0.880E-06
   0.270E+02 0.232E+01 0.289E-03   -.271E+02 -.232E+01 -.291E-03   0.891E-01 0.621E-03 -.466E-05   -.834E-03 0.591E-04 0.171E-05
   0.338E+02 0.175E+02 0.634E-03   -.338E+02 -.177E+02 -.638E-03   -.101E-01 0.217E+00 -.786E-05   -.252E-03 0.287E-03 0.294E-05
   0.246E+02 0.204E+02 0.210E-03   -.246E+02 -.203E+02 -.213E-03   -.264E-01 -.427E-01 -.491E-05   -.197E-03 -.129E-03 0.195E-05
   0.147E+02 0.186E+02 -.593E-05   -.148E+02 -.185E+02 0.303E-05   0.110E+00 -.850E-01 -.583E-05   -.654E-03 -.406E-03 0.213E-05
   0.326E+01 -.761E+02 0.743E-04   -.328E+01 0.819E+02 -.758E-04   0.205E-01 -.581E+01 0.979E-06   -.902E-04 -.904E-04 -.154E-05
   -.575E+02 -.528E+02 0.934E-03   0.623E+02 0.559E+02 -.978E-03   -.481E+01 -.313E+01 0.116E-03   0.766E-04 -.131E-03 -.103E-04
   -.745E+02 -.234E+02 -.438E-03   0.796E+02 0.260E+02 0.452E-03   -.513E+01 -.263E+01 0.568E-05   -.364E-04 0.458E-04 -.126E-05
   0.749E+02 0.249E+02 -.952E-04   -.801E+02 -.274E+02 0.103E-03   0.522E+01 0.245E+01 -.828E-05   0.125E-04 -.568E-04 -.246E-06
   0.641E+02 -.409E+02 0.342E-04   -.691E+02 0.438E+02 -.380E-04   0.501E+01 -.293E+01 0.564E-05   0.127E-03 0.117E-03 -.577E-06
   -.261E+01 0.773E+02 -.395E-04   0.309E+01 -.832E+02 0.448E-04   -.475E+00 0.587E+01 -.826E-05   -.186E-03 0.400E-04 0.163E-06
   -.645E+02 0.408E+02 0.657E-04   0.696E+02 -.437E+02 -.708E-04   -.507E+01 0.290E+01 0.959E-05   0.590E-04 0.680E-04 -.384E-06
   0.214E+03 0.184E+03 -.164E-03   -.242E+03 -.201E+03 0.190E-03   0.276E+02 0.173E+02 -.305E-04   0.632E-03 -.366E-03 0.173E-05
 -----------------------------------------------------------------------------------------------
   -.194E+02 -.138E+02 0.107E-03   -.426E-12 -.398E-12 0.491E-15   0.194E+02 0.138E+02 -.807E-04   0.198E-02 0.422E-03 -.613E-04
 
 
 POSITION                                       TOTAL-FORCE (eV/Angst)
 -----------------------------------------------------------------------------------
      0.00506      0.00008      3.75000         0.001341      0.000025     -0.000004
     16.03222      2.13041      3.75000         0.001181      0.003001     -0.000001
     14.79198      4.26528      3.75000        -0.002553     -0.000338     -0.000010
     13.55752      6.40586      3.75000         0.001702      0.003511     -0.000017
     12.32736      8.54752      3.75000         0.004966      0.001488     -0.000016
     -6.15969     10.69224      3.75000         0.001212      0.005662     -0.000004
     -7.38069     12.83396      3.75000         0.003033     -0.000409     -0.000005
      2.47578      0.00721      3.75000         0.001135     -0.000266     -0.000003
      1.23070      2.13871      3.75000         0.006767      0.005624     -0.000009
     -0.01511      4.26230      3.75000         0.001158     -0.002691      0.000009
     -1.25256      6.40083      3.75000        -0.004898      0.001293      0.000018
     -2.47433      8.54054      3.75000         0.001491      0.001776      0.000021
     -3.69795     10.68286      3.75000         0.002104      0.003413     -0.000011
     -4.92295     12.82461      3.75000         0.002935     -0.005470      0.000000
     -3.69456     14.95424      3.75000         0.001915     -0.001096      0.000001
      3.70331      2.13372      3.75000        -0.001844      0.005242     -0.000007
      2.45448      4.29162      3.74999         0.002465     -0.003083      0.000178
      1.20258      6.39320      3.75000        -0.000444     -0.000790      0.000172
      0.00446      8.52603      3.75001        -0.000400     -0.000224      0.000024
     -1.23883     10.68337      3.75000         0.003016     -0.006130     -0.000008
     -2.46453     12.82105      3.75000         0.000264     -0.004137      0.000004
     -1.22562     14.95408      3.75000         0.003956      0.000792     -0.000000
      6.17310      2.13019      3.75000         0.000840     -0.001148      0.000006
      4.93425      4.21813      3.75000        -0.004946      0.005077      0.000001
      1.18767     10.70296      3.75000        -0.000899     -0.002950     -0.000002
      0.00315     12.81681      3.75000        -0.000011     -0.000742      0.000003
      9.87687     -0.00787      3.75000        -0.003819     -0.003417     -0.000003
      8.64215      2.12962      3.75000         0.003233     -0.000082      0.000006
      7.41313      4.27745      3.75000        -0.005903     -0.004325      0.000008
      2.49501     12.80645      3.75000        -0.001877     -0.003530     -0.000003
      3.71248     14.94181      3.75000        -0.002806     -0.003932     -0.000006
     11.10681      2.13135      3.75000         0.000960      0.003639     -0.000001
      9.86486      4.27752      3.75000         0.000894      0.002878      0.000003
      8.61795      6.41511      3.75000        -0.004383     -0.000907      0.000000
      7.40881      8.62149      3.75000         0.000361      0.000613     -0.000003
      4.94619     12.79607      3.75000        -0.000303      0.001327     -0.000005
     14.80807     -0.00662      3.75000         0.000939      0.001197     -0.000008
     13.56742      2.12925      3.75000        -0.001560      0.004938     -0.000002
     12.32830      4.26879      3.75000         0.001686      0.001332      0.000002
     11.09344      6.41293      3.75000         0.001835      0.005083      0.000000
      9.85654      8.56293      3.75000         0.000391     -0.003392     -0.000005
      8.65370     10.71227      3.75000        -0.004448      0.001170     -0.000007
      7.42281     12.81891      3.75000         0.000565      0.004777     -0.000004
      0.00029      1.42476      3.75000         0.000842      0.005141      0.000002
     -1.24837      3.54959      3.75000         0.001939      0.002006      0.000014
     -2.48658      5.68895      3.75000        -0.000438     -0.001752      0.000004
     -3.70942      7.83206      3.75000        -0.001272     -0.006406     -0.000010
     -4.93406      9.97418      3.75000         0.000670     -0.006707     -0.000003
     -6.15481     12.11494      3.75000        -0.001554     -0.003359     -0.000005
     -7.39118     14.25201      3.75000         0.005641     -0.000833     -0.000005
      2.46903      1.42465      3.75000        -0.000450     -0.001162      0.000003
      1.22214      3.56022      3.75000        -0.000831      0.001034     -0.000053
     -0.03098      5.67975      3.75001         0.006020      0.001027     -0.000049
     -1.24533      7.82382      3.75000         0.000256      0.000372     -0.000002
     -2.47227      9.96955      3.75000         0.000542     -0.002341     -0.000005
     -3.69418     12.11006      3.75000         0.001312     -0.000412      0.000001
     -4.92505     14.24687      3.75000        -0.003985     -0.001162     -0.000002
      4.93820      1.42433      3.75000        -0.000902      0.001773      0.000008
      3.71185      3.55815      3.75000        -0.007116     -0.005985     -0.000046
      2.41410      5.67866      3.75002         0.002653     -0.006756     -0.000184
      1.18707      7.79901      3.75001         0.007649      0.004418     -0.000036
      0.00009      9.98042      3.75000        -0.008142     -0.001726      0.000014
     -1.23022     12.10602      3.75000        -0.002990      0.001322      0.000004
     -2.46298     14.24227      3.75000         0.001488     -0.004771     -0.000000
      7.40980      1.41797      3.75000         0.000497     -0.003506      0.000004
      6.16203      3.55268      3.75000        -0.001239     -0.004829      0.000013
      1.23207     12.09645      3.75000         0.006834      0.003811      0.000001
      0.00628     14.24187      3.75000        -0.000457      0.000446     -0.000003
      9.87289      1.41554      3.75000         0.000000     -0.002226      0.000002
      8.64005      3.55706      3.75000        -0.002709     -0.003851      0.000007
      7.44265      5.67473      3.75000        -0.003175      0.001999      0.000004
      3.72538     12.13096      3.75000         0.005023     -0.001008     -0.000005
      2.47960     14.23246      3.75000        -0.001837      0.008256     -0.000006
     12.33952      1.41644      3.75000        -0.002936     -0.002917     -0.000004
     11.09990      3.55728      3.75000        -0.000282      0.003819      0.000001
      9.85988      5.70526      3.75000        -0.005606     -0.000691      0.000001
      8.59535      7.87844      3.75000         0.001796      0.002017     -0.000003
      7.39345     10.03618      3.75000        -0.001192      0.000838     -0.000005
      6.21239     12.05047      3.75000        -0.001127      0.000376     -0.000005
      4.94799     14.22690      3.75000        -0.000425      0.000354     -0.000006
     14.80230      1.41324      3.75000        -0.000582     -0.001059     -0.000008
     13.56055      3.55380      3.75000         0.000128      0.004542     -0.000003
     12.32227      5.69765      3.75000        -0.003268      0.002698     -0.000001
     11.08875      7.84230      3.75000        -0.003878     -0.002009     -0.000005
      9.87256      9.98418      3.75000        -0.005711      0.003578     -0.000009
      8.65874     12.12582      3.75000         0.002534     -0.001107     -0.000005
      7.40962     14.24061      3.75000         0.002821     -0.000559     -0.000006
      4.93270      5.30250      3.75000         0.000496     -0.003818     -0.000002
      3.33199      6.26469      3.75000        -0.002762      0.001810      0.000062
      2.15233      8.30295      3.75001        -0.000873     -0.001981      0.000019
      6.43488      8.13479      3.75000        -0.001337     -0.000398      0.000000
      6.50274      6.21663      3.75000        -0.001899     -0.002501      0.000002
      3.77578     11.04432      3.75000         0.001386      0.003293     -0.000002
      2.12685     10.16090      3.75000         0.004456     -0.000876      0.000004
      6.20304     10.71048      3.75000         0.002738      0.006976     -0.000003
 -----------------------------------------------------------------------------------
    total drift:                               -0.019378      0.020052     -0.000035


--------------------------------------------------------------------------------------------------------



  FREE ENERGIE OF THE ION-ELECTRON SYSTEM (eV)
  ---------------------------------------------------
  free  energy   TOTEN  =      -840.37841355 eV

  energy  without entropy=     -840.37841354  energy(sigma->0) =     -840.37841355
 
 d Force = 0.1894532E-04[ 0.329E-05, 0.346E-04]  d Energy = 0.1579420E-04 0.315E-05
 d Force =-0.8171302E-01[-0.818E-01,-0.817E-01]  d Ewald  =-0.8171362E-01 0.601E-06


--------------------------------------------------------------------------------------------------------


    POTLOK:  cpu time      3.0365: real time      3.0693


--------------------------------------------------------------------------------------------------------


 Conjugate gradient step on ions:
 trial-energy change:   -0.000016  1 .order   -0.000019   -0.000035   -0.000003
  (g-gl).g = 0.150E-03      g.g   = 0.147E-03  gl.gl    = 0.139E-03
 g(Force)  = 0.147E-03   g(Stress)= 0.000E+00 ortho     =-0.689E-05
 gamma     =   1.07690
 trial     =   0.24803
 opt step  =   0.27409  (harmonic =   0.27409) maximal distance =0.00023597
 next E    =  -840.378417   (d E  =  -0.00002)


--------------------------------------------------------------------------------------------------------


  
 reached required accuracy - stopping structural energy minimisation
     LOOP+:  cpu time    106.4643: real time    108.0387
    4ORBIT:  cpu time      0.0000: real time      0.0000

 total amount of memory used by VASP MPI-rank0   404213. kBytes
=======================================================================

   base      :      30000. kBytes
   nonlr-proj:       3276. kBytes
   fftplans  :      77588. kBytes
   grid      :      51044. kBytes
   one-center:         49. kBytes
   wavefun   :     242256. kBytes
 
  
  
 General timing and accounting informations for this job:
 ========================================================
  
                  Total CPU time used (sec):     7264.591
                            User time (sec):     7217.064
                          System time (sec):       47.527
                         Elapsed time (sec):     7376.021
  
                   Maximum memory used (kb):      753864.
                   Average memory used (kb):          N/A
  
                          Minor page faults:      5879000
                          Major page faults:            2
                 Voluntary context switches:         2971
