 running   50 mpi-ranks, with    1 threads/rank, on    1 nodes
 each image running on   10 cores
 distrk:  each k-point on    5 cores,    2 groups
 distr:  one band on    1 cores,    5 groups
 vasp.6.4.2 20Jul23 (build Jan 24 2024 13:44:02) complex                         
 POSCAR found type information on POSCAR C F N H O 
 01/POSCAR found :  5 types and      93 ions
 scaLAPACK will be used selectively (only on CPU)
 LDA part: xc-table for Pade appr. of Perdew
 POSCAR found type information on POSCAR C F N H O 
 00/POSCAR found :  5 types and      93 ions
 POSCAR found type information on POSCAR C F N H O 
 06/POSCAR found :  5 types and      93 ions
 POSCAR, INCAR and KPOINTS ok, starting setup
 FFT: planning ... GRIDC
 FFT: planning ... GRID_SOFT
 FFT: planning ... GRID
 WAVECAR not read
 entering main loop
       N       E                     dE             d eps       ncg     rms          rms(c)
DAV:   1     0.349101590018E+04    0.34910E+04   -0.14369E+05  4590   0.109E+03
DAV:   2    -0.183913183181E+03   -0.36749E+04   -0.34654E+04  6370   0.268E+02
DAV:   3    -0.840768674589E+03   -0.65686E+03   -0.65370E+03  5230   0.118E+02
DAV:   4    -0.863431045019E+03   -0.22662E+02   -0.22554E+02  5180   0.276E+01
DAV:   5    -0.864151108703E+03   -0.72006E+00   -0.71908E+00  6050   0.419E+00    0.513E+01
DAV:   6    -0.847712364163E+03    0.16439E+02   -0.20522E+01  5090   0.787E+00    0.333E+01
DAV:   7    -0.827774028727E+03    0.19938E+02   -0.30601E+01  4990   0.885E+00    0.202E+01
DAV:   8    -0.823108922518E+03    0.46651E+01   -0.21089E+01  4890   0.698E+00    0.795E+00
DAV:   9    -0.823148479594E+03   -0.39557E-01   -0.10408E+00  5040   0.186E+00    0.335E+00
DAV:  10    -0.823008191437E+03    0.14029E+00   -0.37611E-01  4810   0.111E+00    0.970E-01
DAV:  11    -0.822996366192E+03    0.11825E-01   -0.88093E-02  4850   0.556E-01    0.239E-01
DAV:  12    -0.822996536884E+03   -0.17069E-03   -0.78707E-03  5190   0.226E-01    0.121E-01
DAV:  13    -0.822996706606E+03   -0.16972E-03   -0.14116E-03  5060   0.794E-02    0.923E-02
DAV:  14    -0.822996726818E+03   -0.20212E-04   -0.21718E-04  4950   0.330E-02    0.595E-02
DAV:  15    -0.822996786648E+03   -0.59830E-04   -0.16557E-04  4760   0.298E-02    0.254E-02
DAV:  16    -0.822996792003E+03   -0.53557E-05   -0.24372E-05  4970   0.129E-02    0.143E-02
DAV:  17    -0.822996791950E+03    0.53617E-07   -0.16045E-05  4960   0.951E-03    0.669E-03
DAV:  18    -0.822996791276E+03    0.67358E-06   -0.32421E-06  4530   0.660E-03
   1 F= -.83052399E+03 E0= -.83052399E+03  d E =-.830524E+03  mag=     0.0000
quench:  g(F)=  0.356E-03 g(S)=  0.000E+00 dE (1.order)=-0.712E-03
 bond charge predicted
       N       E                     dE             d eps       ncg     rms          rms(c)
DAV:   1    -0.822996896726E+03   -0.10478E-03   -0.10007E-03  4480   0.638E-02    0.726E-03
DAV:   2    -0.822996898321E+03   -0.15956E-05   -0.22609E-05  4790   0.902E-03    0.619E-03
DAV:   3    -0.822996897943E+03    0.37857E-06   -0.76471E-07  2940   0.208E-03
   2 F= -.83052410E+03 E0= -.83052410E+03  d E =-.111115E-03  mag=    -0.0000
quench:  g(F)=  0.396E-03 g(S)=  0.000E+00 dE (1.order)=-0.104E-02
 bond charge predicted
       N       E                     dE             d eps       ncg     rms          rms(c)
DAV:   1    -0.822997041072E+03   -0.14275E-03   -0.22198E-03  4480   0.964E-02    0.111E-02
DAV:   2    -0.822997044603E+03   -0.35308E-05   -0.52300E-05  4880   0.138E-02    0.942E-03
DAV:   3    -0.822997043829E+03    0.77338E-06   -0.21679E-06  3690   0.309E-03
   3 F= -.83052426E+03 E0= -.83052426E+03  d E =-.150716E-03  mag=     0.0000
quench:  g(F)=  0.729E-03 g(S)=  0.000E+00 dE (1.order)=-0.140E-02
 bond charge predicted
       N       E                     dE             d eps       ncg     rms          rms(c)
DAV:   1    -0.822997148448E+03   -0.10385E-03   -0.30433E-03  4430   0.116E-01    0.128E-02
DAV:   2    -0.822997154242E+03   -0.57939E-05   -0.80781E-05  5190   0.175E-02    0.109E-02
DAV:   3    -0.822997152976E+03    0.12667E-05   -0.35354E-06  4130   0.379E-03    0.814E-03
DAV:   4    -0.822997152398E+03    0.57778E-06   -0.37681E-06  3930   0.395E-03
   4 F= -.83052437E+03 E0= -.83052437E+03  d E =-.113530E-03  mag=     0.0000
quench:  g(F)=  0.801E-03 g(S)=  0.000E+00 dE (1.order)=-0.107E-02
 bond charge predicted
       N       E                     dE             d eps       ncg     rms          rms(c)
DAV:   1    -0.822997230772E+03   -0.77796E-04   -0.17458E-03  4380   0.880E-02    0.933E-03
DAV:   2    -0.822997234000E+03   -0.32282E-05   -0.45923E-05  5290   0.131E-02    0.808E-03
DAV:   3    -0.822997233280E+03    0.72046E-06   -0.18558E-06  3140   0.282E-03
   5 F= -.83052445E+03 E0= -.83052445E+03  d E =-.838766E-04  mag=    -0.0000
quench:  g(F)=  0.350E-03 g(S)=  0.000E+00 dE (1.order)=-0.685E-03
 bond charge predicted
       N       E                     dE             d eps       ncg     rms          rms(c)
DAV:   1    -0.822997326800E+03   -0.92800E-04   -0.10454E-03  4320   0.664E-02    0.743E-03
DAV:   2    -0.822997328702E+03   -0.19013E-05   -0.26667E-05  4870   0.986E-03    0.630E-03
DAV:   3    -0.822997328329E+03    0.37235E-06   -0.93428E-07  2720   0.214E-03
   6 F= -.83052455E+03 E0= -.83052455E+03  d E =-.974592E-04  mag=     0.0000
quench:  g(F)=  0.376E-03 g(S)=  0.000E+00 dE (1.order)=-0.964E-03
 bond charge predicted
       N       E                     dE             d eps       ncg     rms          rms(c)
DAV:   1    -0.822997456401E+03   -0.12770E-03   -0.18094E-03  4320   0.868E-02    0.103E-02
DAV:   2    -0.822997459169E+03   -0.27676E-05   -0.41855E-05  4920   0.124E-02    0.877E-03
DAV:   3    -0.822997458515E+03    0.65353E-06   -0.17538E-06  3360   0.283E-03
   7 F= -.83052469E+03 E0= -.83052469E+03  d E =-.136709E-03  mag=    -0.0000
quench:  g(F)=  0.680E-03 g(S)=  0.000E+00 dE (1.order)=-0.131E-02
 bond charge predicted
       N       E                     dE             d eps       ncg     rms          rms(c)
DAV:   1    -0.822997570358E+03   -0.11119E-03   -0.27844E-03  4320   0.110E-01    0.126E-02
DAV:   2    -0.822997575191E+03   -0.48339E-05   -0.71447E-05  5200   0.164E-02    0.107E-02
DAV:   3    -0.822997573948E+03    0.12434E-05   -0.35006E-06  4050   0.376E-03    0.784E-03
DAV:   4    -0.822997573498E+03    0.44966E-06   -0.36048E-06  3850   0.382E-03
   8 F= -.83052481E+03 E0= -.83052481E+03  d E =-.118801E-03  mag=     0.0000
quench:  g(F)=  0.758E-03 g(S)=  0.000E+00 dE (1.order)=-0.102E-02
 bond charge predicted
       N       E                     dE             d eps       ncg     rms          rms(c)
DAV:   1    -0.822997652308E+03   -0.78360E-04   -0.18746E-03  4320   0.913E-02    0.977E-03
DAV:   2    -0.822997655770E+03   -0.34614E-05   -0.49519E-05  5410   0.136E-02    0.846E-03
DAV:   3    -0.822997654955E+03    0.81449E-06   -0.20743E-06  3270   0.299E-03
   9 F= -.83052489E+03 E0= -.83052489E+03  d E =-.850515E-04  mag=     0.0000
quench:  g(F)=  0.345E-03 g(S)=  0.000E+00 dE (1.order)=-0.662E-03
 bond charge predicted
       N       E                     dE             d eps       ncg     rms          rms(c)
DAV:   1    -0.822997736366E+03   -0.80596E-04   -0.97294E-04  4320   0.653E-02    0.715E-03
DAV:   2    -0.822997738354E+03   -0.19873E-05   -0.26654E-05  5000   0.100E-02    0.602E-03
DAV:   3    -0.822997737979E+03    0.37473E-06   -0.91013E-07  2690   0.212E-03
  10 F= -.83052498E+03 E0= -.83052498E+03  d E =-.856049E-04  mag=    -0.0000
quench:  g(F)=  0.362E-03 g(S)=  0.000E+00 dE (1.order)=-0.913E-03
 bond charge predicted
       N       E                     dE             d eps       ncg     rms          rms(c)
DAV:   1    -0.822997867945E+03   -0.12959E-03   -0.14729E-03  4320   0.784E-02    0.949E-03
DAV:   2    -0.822997870253E+03   -0.23088E-05   -0.34107E-05  4800   0.113E-02    0.797E-03
DAV:   3    -0.822997869803E+03    0.45064E-06   -0.12128E-06  3070   0.250E-03
  11 F= -.83052511E+03 E0= -.83052511E+03  d E =-.135901E-03  mag=     0.0000
quench:  g(F)=  0.649E-03 g(S)=  0.000E+00 dE (1.order)=-0.124E-02
 bond charge predicted
       N       E                     dE             d eps       ncg     rms          rms(c)
DAV:   1    -0.822997987354E+03   -0.11710E-03   -0.28103E-03  4340   0.112E-01    0.127E-02
DAV:   2    -0.822997992531E+03   -0.51770E-05   -0.73361E-05  5080   0.167E-02    0.107E-02
DAV:   3    -0.822997991428E+03    0.11030E-05   -0.32624E-06  4110   0.367E-03    0.797E-03
DAV:   4    -0.822997991057E+03    0.37093E-06   -0.35650E-06  3780   0.386E-03
  12 F= -.83052524E+03 E0= -.83052524E+03  d E =-.128515E-03  mag=     0.0000
quench:  g(F)=  0.709E-03 g(S)=  0.000E+00 dE (1.order)=-0.970E-03
 bond charge predicted
       N       E                     dE             d eps       ncg     rms          rms(c)
DAV:   1    -0.822998071890E+03   -0.80463E-04   -0.22826E-03  4340   0.101E-01    0.109E-02
DAV:   2    -0.822998076168E+03   -0.42781E-05   -0.61369E-05  5340   0.151E-02    0.941E-03
DAV:   3    -0.822998075149E+03    0.10198E-05   -0.27042E-06  3700   0.332E-03    0.709E-03
DAV:   4    -0.822998074503E+03    0.64567E-06   -0.31657E-06  3840   0.360E-03
  13 F= -.83052532E+03 E0= -.83052532E+03  d E =-.830302E-04  mag=     0.0000
quench:  g(F)=  0.342E-03 g(S)=  0.000E+00 dE (1.order)=-0.644E-03
 bond charge predicted
       N       E                     dE             d eps       ncg     rms          rms(c)
DAV:   1    -0.822998134164E+03   -0.59016E-04   -0.83493E-04  4340   0.608E-02    0.624E-03
DAV:   2    -0.822998135843E+03   -0.16783E-05   -0.22449E-05  5280   0.908E-03    0.538E-03
DAV:   3    -0.822998135519E+03    0.32395E-06   -0.77828E-07  2560   0.194E-03
  14 F= -.83052539E+03 E0= -.83052539E+03  d E =-.647238E-04  mag=     0.0000
quench:  g(F)=  0.357E-03 g(S)=  0.000E+00 dE (1.order)=-0.883E-03
 bond charge predicted
       N       E                     dE             d eps       ncg     rms          rms(c)
DAV:   1    -0.822998252014E+03   -0.11617E-03   -0.94273E-04  4300   0.619E-02    0.739E-03
DAV:   2    -0.822998253434E+03   -0.14195E-05   -0.20760E-05  4740   0.862E-03    0.623E-03
DAV:   3    -0.822998253157E+03    0.27706E-06   -0.71358E-07  2735   0.196E-03
  15 F= -.83052551E+03 E0= -.83052551E+03  d E =-.119656E-03  mag=    -0.0000
quench:  g(F)=  0.628E-03 g(S)=  0.000E+00 dE (1.order)=-0.118E-02
 bond charge predicted
       N       E                     dE             d eps       ncg     rms          rms(c)
DAV:   1    -0.822998379991E+03   -0.12656E-03   -0.23425E-03  4280   0.100E-01    0.116E-02
DAV:   2    -0.822998383794E+03   -0.38027E-05   -0.55563E-05  4960   0.144E-02    0.979E-03
DAV:   3    -0.822998382947E+03    0.84731E-06   -0.25277E-06  3775   0.332E-03
  16 F= -.83052565E+03 E0= -.83052565E+03  d E =-.139962E-03  mag=    -0.0000
quench:  g(F)=  0.657E-03 g(S)=  0.000E+00 dE (1.order)=-0.912E-03
 bond charge predicted
       N       E                     dE             d eps       ncg     rms          rms(c)
DAV:   1    -0.822998472777E+03   -0.88983E-04   -0.24689E-03  4300   0.105E-01    0.117E-02
DAV:   2    -0.822998477479E+03   -0.47019E-05   -0.67807E-05  5360   0.159E-02    0.992E-03
DAV:   3    -0.822998476365E+03    0.11140E-05   -0.31187E-06  3920   0.356E-03    0.734E-03
DAV:   4    -0.822998475835E+03    0.52949E-06   -0.33373E-06  3840   0.366E-03
  17 F= -.83052574E+03 E0= -.83052574E+03  d E =-.911227E-04  mag=     0.0000
quench:  g(F)=  0.338E-03 g(S)=  0.000E+00 dE (1.order)=-0.629E-03
 bond charge predicted
       N       E                     dE             d eps       ncg     rms          rms(c)
DAV:   1    -0.822998535039E+03   -0.58674E-04   -0.10611E-03  4280   0.687E-02    0.727E-03
DAV:   2    -0.822998537149E+03   -0.21103E-05   -0.28744E-05  5420   0.103E-02    0.624E-03
DAV:   3    -0.822998536705E+03    0.44364E-06   -0.10840E-06  2740   0.223E-03
  18 F= -.83052580E+03 E0= -.83052580E+03  d E =-.655317E-04  mag=    -0.0000
quench:  g(F)=  0.340E-03 g(S)=  0.000E+00 dE (1.order)=-0.840E-03
 bond charge predicted
       N       E                     dE             d eps       ncg     rms          rms(c)
DAV:   1    -0.822998633386E+03   -0.96237E-04   -0.81838E-04  4360   0.583E-02    0.684E-03
DAV:   2    -0.822998634713E+03   -0.13268E-05   -0.19177E-05  4920   0.835E-03    0.579E-03
DAV:   3    -0.822998634435E+03    0.27725E-06   -0.67289E-07  2500   0.188E-03
  19 F= -.83052590E+03 E0= -.83052590E+03  d E =-.997794E-04  mag=    -0.0000
quench:  g(F)=  0.592E-03 g(S)=  0.000E+00 dE (1.order)=-0.111E-02
 bond charge predicted
       N       E                     dE             d eps       ncg     rms          rms(c)
DAV:   1    -0.822998741920E+03   -0.10721E-03   -0.19178E-03  4280   0.907E-02    0.104E-02
DAV:   2    -0.822998745006E+03   -0.30862E-05   -0.45470E-05  4940   0.129E-02    0.884E-03
DAV:   3    -0.822998744271E+03    0.73533E-06   -0.19931E-06  3600   0.298E-03
  20 F= -.83052602E+03 E0= -.83052602E+03  d E =-.118527E-03  mag=     0.0000
quench:  g(F)=  0.599E-03 g(S)=  0.000E+00 dE (1.order)=-0.850E-03
 bond charge predicted
       N       E                     dE             d eps       ncg     rms          rms(c)
DAV:   1    -0.822998832473E+03   -0.87467E-04   -0.20753E-03  4360   0.956E-02    0.105E-02
DAV:   2    -0.822998836297E+03   -0.38236E-05   -0.55394E-05  5180   0.143E-02    0.905E-03
DAV:   3    -0.822998835330E+03    0.96663E-06   -0.24684E-06  3800   0.320E-03
  21 F= -.83052611E+03 E0= -.83052611E+03  d E =-.890512E-04  mag=     0.0000
quench:  g(F)=  0.325E-03 g(S)=  0.000E+00 dE (1.order)=-0.614E-03
 bond charge predicted
       N       E                     dE             d eps       ncg     rms          rms(c)
DAV:   1    -0.822998898384E+03   -0.62087E-04   -0.10372E-03  4280   0.677E-02    0.724E-03
DAV:   2    -0.822998900518E+03   -0.21349E-05   -0.28863E-05  5240   0.103E-02    0.620E-03
DAV:   3    -0.822998900119E+03    0.39938E-06   -0.10381E-06  2740   0.218E-03
  22 F= -.83052618E+03 E0= -.83052618E+03  d E =-.706162E-04  mag=    -0.0000
quench:  g(F)=  0.318E-03 g(S)=  0.000E+00 dE (1.order)=-0.800E-03
 bond charge predicted
       N       E                     dE             d eps       ncg     rms          rms(c)
DAV:   1    -0.822998999847E+03   -0.99329E-04   -0.91973E-04  4270   0.619E-02    0.739E-03
DAV:   2    -0.822999001281E+03   -0.14334E-05   -0.21212E-05  4820   0.873E-03    0.631E-03
DAV:   3    -0.822999000972E+03    0.30897E-06   -0.77348E-07  2670   0.201E-03
  23 F= -.83052628E+03 E0= -.83052628E+03  d E =-.102151E-03  mag=    -0.0000
quench:  g(F)=  0.555E-03 g(S)=  0.000E+00 dE (1.order)=-0.106E-02
 bond charge predicted
       N       E                     dE             d eps       ncg     rms          rms(c)
DAV:   1    -0.822999100839E+03   -0.99559E-04   -0.18579E-03  4300   0.890E-02    0.101E-02
DAV:   2    -0.822999103692E+03   -0.28521E-05   -0.43027E-05  5020   0.125E-02    0.871E-03
DAV:   3    -0.822999102907E+03    0.78471E-06   -0.20013E-06  3360   0.297E-03
  24 F= -.83052640E+03 E0= -.83052640E+03  d E =-.111155E-03  mag=    -0.0000
quench:  g(F)=  0.578E-03 g(S)=  0.000E+00 dE (1.order)=-0.828E-03
 bond charge predicted
       N       E                     dE             d eps       ncg     rms          rms(c)
DAV:   1    -0.822999187972E+03   -0.84281E-04   -0.18474E-03  4260   0.899E-02    0.984E-03
DAV:   2    -0.822999191320E+03   -0.33483E-05   -0.48594E-05  5220   0.133E-02    0.847E-03
DAV:   3    -0.822999190477E+03    0.84343E-06   -0.21160E-06  3380   0.298E-03
  25 F= -.83052648E+03 E0= -.83052648E+03  d E =-.853836E-04  mag=     0.0000
quench:  g(F)=  0.319E-03 g(S)=  0.000E+00 dE (1.order)=-0.597E-03
 bond charge predicted
       N       E                     dE             d eps       ncg     rms          rms(c)
DAV:   1    -0.822999257012E+03   -0.65692E-04   -0.97927E-04  4340   0.653E-02    0.713E-03
DAV:   2    -0.822999258874E+03   -0.18618E-05   -0.25912E-05  5160   0.976E-03    0.611E-03
DAV:   3    -0.822999258484E+03    0.39027E-06   -0.96507E-07  2520   0.213E-03
  26 F= -.83052656E+03 E0= -.83052656E+03  d E =-.739006E-04  mag=    -0.0000
quench:  g(F)=  0.311E-03 g(S)=  0.000E+00 dE (1.order)=-0.776E-03
 bond charge predicted
       N       E                     dE             d eps       ncg     rms          rms(c)
DAV:   1    -0.822999358766E+03   -0.99892E-04   -0.11146E-03  4260   0.690E-02    0.797E-03
DAV:   2    -0.822999360609E+03   -0.18428E-05   -0.26175E-05  4880   0.981E-03    0.678E-03
DAV:   3    -0.822999360212E+03    0.39749E-06   -0.94850E-07  2800   0.220E-03
  27 F= -.83052666E+03 E0= -.83052666E+03  d E =-.102586E-03  mag=     0.0000
quench:  g(F)=  0.541E-03 g(S)=  0.000E+00 dE (1.order)=-0.103E-02
 bond charge predicted
       N       E                     dE             d eps       ncg     rms          rms(c)
DAV:   1    -0.822999451333E+03   -0.90724E-04   -0.19488E-03  4260   0.926E-02    0.103E-02
DAV:   2    -0.822999454704E+03   -0.33709E-05   -0.48594E-05  5040   0.135E-02    0.870E-03
DAV:   3    -0.822999453975E+03    0.72913E-06   -0.20216E-06  3380   0.300E-03
  28 F= -.83052676E+03 E0= -.83052676E+03  d E =-.102410E-03  mag=     0.0000
quench:  g(F)=  0.569E-03 g(S)=  0.000E+00 dE (1.order)=-0.815E-03
 bond charge predicted
       N       E                     dE             d eps       ncg     rms          rms(c)
DAV:   1    -0.822999535593E+03   -0.80889E-04   -0.16804E-03  4260   0.863E-02    0.924E-03
DAV:   2    -0.822999538889E+03   -0.32956E-05   -0.44958E-05  5200   0.129E-02    0.789E-03
DAV:   3    -0.822999538185E+03    0.70313E-06   -0.17444E-06  3220   0.278E-03
  29 F= -.83052684E+03 E0= -.83052684E+03  d E =-.819108E-04  mag=     0.0000
quench:  g(F)=  0.314E-03 g(S)=  0.000E+00 dE (1.order)=-0.582E-03
 bond charge predicted
       N       E                     dE             d eps       ncg     rms          rms(c)
DAV:   1    -0.822999606988E+03   -0.68099E-04   -0.99405E-04  4260   0.662E-02    0.717E-03
DAV:   2    -0.822999608884E+03   -0.18964E-05   -0.26195E-05  5100   0.986E-03    0.610E-03
DAV:   3    -0.822999608546E+03    0.33786E-06   -0.89856E-07  2600   0.210E-03
  30 F= -.83052692E+03 E0= -.83052692E+03  d E =-.778249E-04  mag=    -0.0000
quench:  g(F)=  0.310E-03 g(S)=  0.000E+00 dE (1.order)=-0.753E-03
 bond charge predicted
       N       E                     dE             d eps       ncg     rms          rms(c)
DAV:   1    -0.822999706349E+03   -0.97464E-04   -0.12173E-03  4250   0.733E-02    0.820E-03
DAV:   2    -0.822999708550E+03   -0.22010E-05   -0.30180E-05  4920   0.107E-02    0.694E-03
DAV:   3    -0.822999708111E+03    0.43874E-06   -0.10327E-06  2810   0.230E-03
  31 F= -.83052702E+03 E0= -.83052702E+03  d E =-.989995E-04  mag=     0.0000
quench:  g(F)=  0.528E-03 g(S)=  0.000E+00 dE (1.order)=-0.993E-03
 bond charge predicted
       N       E                     dE             d eps       ncg     rms          rms(c)
DAV:   1    -0.822999790116E+03   -0.81566E-04   -0.17412E-03  4260   0.879E-02    0.954E-03
DAV:   2    -0.822999793233E+03   -0.31167E-05   -0.44774E-05  5040   0.130E-02    0.814E-03
DAV:   3    -0.822999792583E+03    0.64989E-06   -0.18141E-06  3220   0.287E-03
  32 F= -.83052711E+03 E0= -.83052711E+03  d E =-.941127E-04  mag=    -0.0000
quench:  g(F)=  0.546E-03 g(S)=  0.000E+00 dE (1.order)=-0.777E-03
 bond charge predicted
       N       E                     dE             d eps       ncg     rms          rms(c)
DAV:   1    -0.822999871334E+03   -0.78101E-04   -0.14868E-03  4260   0.814E-02    0.862E-03
DAV:   2    -0.822999874266E+03   -0.29322E-05   -0.39721E-05  5180   0.122E-02    0.734E-03
DAV:   3    -0.822999873675E+03    0.59064E-06   -0.14966E-06  3000   0.263E-03
  33 F= -.83052719E+03 E0= -.83052719E+03  d E =-.780643E-04  mag=     0.0000
quench:  g(F)=  0.305E-03 g(S)=  0.000E+00 dE (1.order)=-0.567E-03
 bond charge predicted
       N       E                     dE             d eps       ncg     rms          rms(c)
DAV:   1    -0.822999944472E+03   -0.70205E-04   -0.96923E-04  4240   0.656E-02    0.706E-03
DAV:   2    -0.822999946289E+03   -0.18175E-05   -0.25291E-05  5020   0.978E-03    0.601E-03
DAV:   3    -0.822999945966E+03    0.32266E-06   -0.85693E-07  2680   0.207E-03
  34 F= -.83052727E+03 E0= -.83052727E+03  d E =-.802125E-04  mag=    -0.0000
quench:  g(F)=  0.301E-03 g(S)=  0.000E+00 dE (1.order)=-0.720E-03
 bond charge predicted
       N       E                     dE             d eps       ncg     rms          rms(c)
DAV:   1    -0.823000042926E+03   -0.96637E-04   -0.12526E-03  4240   0.744E-02    0.828E-03
DAV:   2    -0.823000045231E+03   -0.23047E-05   -0.31191E-05  4940   0.109E-02    0.698E-03
DAV:   3    -0.823000044794E+03    0.43707E-06   -0.10564E-06  2800   0.232E-03
  35 F= -.83052737E+03 E0= -.83052737E+03  d E =-.965547E-04  mag=     0.0000
quench:  g(F)=  0.504E-03 g(S)=  0.000E+00 dE (1.order)=-0.950E-03
 bond charge predicted
       N       E                     dE             d eps       ncg     rms          rms(c)
DAV:   1    -0.823000122208E+03   -0.76977E-04   -0.17010E-03  4260   0.869E-02    0.937E-03
DAV:   2    -0.823000125272E+03   -0.30643E-05   -0.43800E-05  5040   0.129E-02    0.800E-03
DAV:   3    -0.823000124643E+03    0.62940E-06   -0.17300E-06  3220   0.280E-03
  36 F= -.83052746E+03 E0= -.83052746E+03  d E =-.906446E-04  mag=    -0.0000
quench:  g(F)=  0.540E-03 g(S)=  0.000E+00 dE (1.order)=-0.769E-03
 bond charge predicted
       N       E                     dE             d eps       ncg     rms          rms(c)
DAV:   1    -0.823000202592E+03   -0.77320E-04   -0.13535E-03  4260   0.777E-02    0.820E-03
DAV:   2    -0.823000205267E+03   -0.26742E-05   -0.36033E-05  5080   0.116E-02    0.699E-03
DAV:   3    -0.823000204745E+03    0.52132E-06   -0.13108E-06  2920   0.247E-03
  37 F= -.83052753E+03 E0= -.83052753E+03  d E =-.756916E-04  mag=    -0.0000
quench:  g(F)=  0.304E-03 g(S)=  0.000E+00 dE (1.order)=-0.557E-03
 bond charge predicted
       N       E                     dE             d eps       ncg     rms          rms(c)
DAV:   1    -0.823000275839E+03   -0.70573E-04   -0.10124E-03  4240   0.669E-02    0.718E-03
DAV:   2    -0.823000277669E+03   -0.18301E-05   -0.25819E-05  4960   0.989E-03    0.613E-03
DAV:   3    -0.823000277336E+03    0.33317E-06   -0.87063E-07  2720   0.210E-03
  38 F= -.83052762E+03 E0= -.83052762E+03  d E =-.814784E-04  mag=    -0.0000
quench:  g(F)=  0.297E-03 g(S)=  0.000E+00 dE (1.order)=-0.700E-03
 bond charge predicted
       N       E                     dE             d eps       ncg     rms          rms(c)
DAV:   1    -0.823000371852E+03   -0.94183E-04   -0.12563E-03  4260   0.745E-02    0.823E-03
DAV:   2    -0.823000374072E+03   -0.22200E-05   -0.30918E-05  5035   0.108E-02    0.703E-03
DAV:   3    -0.823000373594E+03    0.47780E-06   -0.11767E-06  2920   0.239E-03
  39 F= -.83052771E+03 E0= -.83052771E+03  d E =-.939945E-04  mag=     0.0000
quench:  g(F)=  0.494E-03 g(S)=  0.000E+00 dE (1.order)=-0.919E-03
 bond charge predicted
       N       E                     dE             d eps       ncg     rms          rms(c)
DAV:   1    -0.823000445749E+03   -0.71677E-04   -0.16142E-03  4260   0.846E-02    0.906E-03
DAV:   2    -0.823000448639E+03   -0.28904E-05   -0.41483E-05  5020   0.126E-02    0.774E-03
DAV:   3    -0.823000448054E+03    0.58481E-06   -0.16601E-06  3240   0.276E-03
  40 F= -.83052779E+03 E0= -.83052779E+03  d E =-.844219E-04  mag=     0.0000
quench:  g(F)=  0.503E-03 g(S)=  0.000E+00 dE (1.order)=-0.722E-03
 bond charge predicted
       N       E                     dE             d eps       ncg     rms          rms(c)
DAV:   1    -0.823000522005E+03   -0.73366E-04   -0.11451E-03  4260   0.713E-02    0.753E-03
DAV:   2    -0.823000524219E+03   -0.22134E-05   -0.30044E-05  5100   0.106E-02    0.644E-03
DAV:   3    -0.823000523777E+03    0.44211E-06   -0.11161E-06  2880   0.230E-03
  41 F= -.83052787E+03 E0= -.83052787E+03  d E =-.728134E-04  mag=    -0.0000
quench:  g(F)=  0.290E-03 g(S)=  0.000E+00 dE (1.order)=-0.542E-03
 bond charge predicted
       N       E                     dE             d eps       ncg     rms          rms(c)
DAV:   1    -0.823000596912E+03   -0.72693E-04   -0.10052E-03  4240   0.665E-02    0.720E-03
DAV:   2    -0.823000598699E+03   -0.17872E-05   -0.25412E-05  4930   0.983E-03    0.613E-03
DAV:   3    -0.823000598381E+03    0.31794E-06   -0.86928E-07  2770   0.211E-03
  42 F= -.83052795E+03 E0= -.83052795E+03  d E =-.821921E-04  mag=    -0.0000
quench:  g(F)=  0.287E-03 g(S)=  0.000E+00 dE (1.order)=-0.684E-03
 bond charge predicted
       N       E                     dE             d eps       ncg     rms          rms(c)
DAV:   1    -0.823000691385E+03   -0.92686E-04   -0.13262E-03  4260   0.765E-02    0.843E-03
DAV:   2    -0.823000693730E+03   -0.23444E-05   -0.32734E-05  4940   0.111E-02    0.718E-03
DAV:   3    -0.823000693236E+03    0.49348E-06   -0.12666E-06  3020   0.246E-03
  43 F= -.83052804E+03 E0= -.83052804E+03  d E =-.934951E-04  mag=     0.0000
quench:  g(F)=  0.478E-03 g(S)=  0.000E+00 dE (1.order)=-0.889E-03
 bond charge predicted
       N       E                     dE             d eps       ncg     rms          rms(c)
DAV:   1    -0.823000764621E+03   -0.70892E-04   -0.15112E-03  4260   0.814E-02    0.879E-03
DAV:   2    -0.823000767245E+03   -0.26234E-05   -0.37883E-05  5060   0.120E-02    0.760E-03
DAV:   3    -0.823000766635E+03    0.60973E-06   -0.15992E-06  3140   0.270E-03
  44 F= -.83052813E+03 E0= -.83052813E+03  d E =-.823437E-04  mag=     0.0000
quench:  g(F)=  0.486E-03 g(S)=  0.000E+00 dE (1.order)=-0.693E-03
 bond charge predicted
       N       E                     dE             d eps       ncg     rms          rms(c)
DAV:   1    -0.823000839467E+03   -0.72223E-04   -0.11264E-03  4260   0.704E-02    0.746E-03
DAV:   2    -0.823000841576E+03   -0.21081E-05   -0.28984E-05  5060   0.104E-02    0.645E-03
DAV:   3    -0.823000841120E+03    0.45603E-06   -0.10557E-06  2740   0.222E-03
  45 F= -.83052820E+03 E0= -.83052820E+03  d E =-.721350E-04  mag=    -0.0000
quench:  g(F)=  0.282E-03 g(S)=  0.000E+00 dE (1.order)=-0.522E-03
 bond charge predicted
       N       E                     dE             d eps       ncg     rms          rms(c)
DAV:   1    -0.823000912588E+03   -0.71012E-04   -0.10376E-03  4260   0.677E-02    0.728E-03
DAV:   2    -0.823000914425E+03   -0.18372E-05   -0.26147E-05  4980   0.993E-03    0.622E-03
DAV:   3    -0.823000914084E+03    0.34083E-06   -0.87027E-07  2660   0.209E-03
  46 F= -.83052828E+03 E0= -.83052828E+03  d E =-.803264E-04  mag=     0.0000
quench:  g(F)=  0.280E-03 g(S)=  0.000E+00 dE (1.order)=-0.655E-03
 bond charge predicted
       N       E                     dE             d eps       ncg     rms          rms(c)
DAV:   1    -0.823001001806E+03   -0.87381E-04   -0.13091E-03  4260   0.760E-02    0.831E-03
DAV:   2    -0.823001004154E+03   -0.23483E-05   -0.32770E-05  5020   0.111E-02    0.712E-03
DAV:   3    -0.823001003634E+03    0.52062E-06   -0.12637E-06  2910   0.244E-03
  47 F= -.83052836E+03 E0= -.83052836E+03  d E =-.873481E-04  mag=     0.0000
quench:  g(F)=  0.458E-03 g(S)=  0.000E+00 dE (1.order)=-0.844E-03
 bond charge predicted
       N       E                     dE             d eps       ncg     rms          rms(c)
DAV:   1    -0.823001071632E+03   -0.67478E-04   -0.13456E-03  4260   0.769E-02    0.830E-03
DAV:   2    -0.823001073976E+03   -0.23442E-05   -0.34136E-05  5080   0.113E-02    0.718E-03
DAV:   3    -0.823001073399E+03    0.57702E-06   -0.14254E-06  2980   0.255E-03
  48 F= -.83052844E+03 E0= -.83052844E+03  d E =-.785057E-04  mag=    -0.0000
quench:  g(F)=  0.457E-03 g(S)=  0.000E+00 dE (1.order)=-0.659E-03
 bond charge predicted
       N       E                     dE             d eps       ncg     rms          rms(c)
DAV:   1    -0.823001147559E+03   -0.73583E-04   -0.10451E-03  4260   0.678E-02    0.728E-03
DAV:   2    -0.823001149482E+03   -0.19228E-05   -0.26865E-05  5000   0.100E-02    0.630E-03
DAV:   3    -0.823001149043E+03    0.43947E-06   -0.10445E-06  2620   0.222E-03
  49 F= -.83052852E+03 E0= -.83052852E+03  d E =-.730589E-04  mag=    -0.0000
quench:  g(F)=  0.275E-03 g(S)=  0.000E+00 dE (1.order)=-0.515E-03
 bond charge predicted
       N       E                     dE             d eps       ncg     rms          rms(c)
DAV:   1    -0.823001221594E+03   -0.72112E-04   -0.11062E-03  4260   0.701E-02    0.749E-03
DAV:   2    -0.823001223537E+03   -0.19427E-05   -0.28038E-05  4980   0.104E-02    0.639E-03
DAV:   3    -0.823001223155E+03    0.38189E-06   -0.97409E-07  2660   0.220E-03
  50 F= -.83052860E+03 E0= -.83052860E+03  d E =-.812041E-04  mag=     0.0000
quench:  g(F)=  0.277E-03 g(S)=  0.000E+00 dE (1.order)=-0.638E-03
 bond charge predicted
       N       E                     dE             d eps       ncg     rms          rms(c)
DAV:   1    -0.823001310667E+03   -0.87130E-04   -0.12985E-03  4260   0.757E-02    0.838E-03
DAV:   2    -0.823001312978E+03   -0.23104E-05   -0.32795E-05  5100   0.111E-02    0.717E-03
DAV:   3    -0.823001312438E+03    0.53960E-06   -0.13176E-06  2880   0.249E-03
  51 F= -.83052869E+03 E0= -.83052869E+03  d E =-.877589E-04  mag=     0.0000
quench:  g(F)=  0.438E-03 g(S)=  0.000E+00 dE (1.order)=-0.800E-03
 bond charge predicted
       N       E                     dE             d eps       ncg     rms          rms(c)
DAV:   1    -0.823001382171E+03   -0.69193E-04   -0.13026E-03  4260   0.756E-02    0.825E-03
DAV:   2    -0.823001384437E+03   -0.22668E-05   -0.33258E-05  5120   0.112E-02    0.709E-03
DAV:   3    -0.823001383897E+03    0.54026E-06   -0.14682E-06  2960   0.258E-03
  52 F= -.83052876E+03 E0= -.83052876E+03  d E =-.789572E-04  mag=    -0.0000
quench:  g(F)=  0.419E-03 g(S)=  0.000E+00 dE (1.order)=-0.617E-03
 bond charge predicted
       N       E                     dE             d eps       ncg     rms          rms(c)
DAV:   1    -0.823001458253E+03   -0.73815E-04   -0.11282E-03  4260   0.706E-02    0.762E-03
DAV:   2    -0.823001460324E+03   -0.20715E-05   -0.28885E-05  5160   0.104E-02    0.653E-03
DAV:   3    -0.823001459871E+03    0.45363E-06   -0.11312E-06  2700   0.230E-03
  53 F= -.83052884E+03 E0= -.83052884E+03  d E =-.741169E-04  mag=     0.0000
quench:  g(F)=  0.265E-03 g(S)=  0.000E+00 dE (1.order)=-0.508E-03
 bond charge predicted
       N       E                     dE             d eps       ncg     rms          rms(c)
DAV:   1    -0.823001529612E+03   -0.69288E-04   -0.10276E-03  4280   0.669E-02    0.735E-03
DAV:   2    -0.823001531358E+03   -0.17461E-05   -0.25430E-05  5080   0.975E-03    0.634E-03
DAV:   3    -0.823001530950E+03    0.40816E-06   -0.99622E-07  2660   0.217E-03
  54 F= -.83052892E+03 E0= -.83052892E+03  d E =-.784320E-04  mag=     0.0000
quench:  g(F)=  0.272E-03 g(S)=  0.000E+00 dE (1.order)=-0.613E-03
 bond charge predicted
       N       E                     dE             d eps       ncg     rms          rms(c)
DAV:   1    -0.823001615985E+03   -0.84627E-04   -0.11806E-03  4260   0.717E-02    0.793E-03
DAV:   2    -0.823001617953E+03   -0.19680E-05   -0.28671E-05  5160   0.103E-02    0.688E-03
DAV:   3    -0.823001617443E+03    0.50986E-06   -0.11858E-06  2730   0.235E-03
  55 F= -.83052900E+03 E0= -.83052900E+03  d E =-.840463E-04  mag=     0.0000
quench:  g(F)=  0.413E-03 g(S)=  0.000E+00 dE (1.order)=-0.760E-03
 bond charge predicted
       N       E                     dE             d eps       ncg     rms          rms(c)
DAV:   1    -0.823001684676E+03   -0.66723E-04   -0.13640E-03  4260   0.774E-02    0.827E-03
DAV:   2    -0.823001687026E+03   -0.23496E-05   -0.34652E-05  5130   0.114E-02    0.710E-03
DAV:   3    -0.823001686508E+03    0.51797E-06   -0.13774E-06  2970   0.251E-03
  56 F= -.83052908E+03 E0= -.83052908E+03  d E =-.764427E-04  mag=    -0.0000
quench:  g(F)=  0.402E-03 g(S)=  0.000E+00 dE (1.order)=-0.599E-03
 bond charge predicted
       N       E                     dE             d eps       ncg     rms          rms(c)
DAV:   1    -0.823001758651E+03   -0.71625E-04   -0.10893E-03  4260   0.691E-02    0.740E-03
DAV:   2    -0.823001760640E+03   -0.19892E-05   -0.27793E-05  5100   0.102E-02    0.638E-03
DAV:   3    -0.823001760196E+03    0.44352E-06   -0.10610E-06  2740   0.224E-03
  57 F= -.83052915E+03 E0= -.83052915E+03  d E =-.717800E-04  mag=     0.0000
quench:  g(F)=  0.246E-03 g(S)=  0.000E+00 dE (1.order)=-0.486E-03
 bond charge predicted
       N       E                     dE             d eps       ncg     rms          rms(c)
DAV:   1    -0.823001831039E+03   -0.70399E-04   -0.10108E-03  4260   0.661E-02    0.730E-03
DAV:   2    -0.823001832689E+03   -0.16506E-05   -0.24153E-05  5080   0.942E-03    0.634E-03
DAV:   3    -0.823001832266E+03    0.42336E-06   -0.98217E-07  2680   0.218E-03
  58 F= -.83052923E+03 E0= -.83052923E+03  d E =-.785923E-04  mag=    -0.0000
quench:  g(F)=  0.271E-03 g(S)=  0.000E+00 dE (1.order)=-0.596E-03
 bond charge predicted
       N       E                     dE             d eps       ncg     rms          rms(c)
DAV:   1    -0.823001913921E+03   -0.81231E-04   -0.12597E-03  4260   0.740E-02    0.807E-03
DAV:   2    -0.823001915998E+03   -0.20775E-05   -0.30486E-05  5120   0.106E-02    0.700E-03
DAV:   3    -0.823001915482E+03    0.51551E-06   -0.12474E-06  2920   0.239E-03
  59 F= -.83052931E+03 E0= -.83052931E+03  d E =-.813893E-04  mag=    -0.0000
quench:  g(F)=  0.387E-03 g(S)=  0.000E+00 dE (1.order)=-0.718E-03
 bond charge predicted
       N       E                     dE             d eps       ncg     rms          rms(c)
DAV:   1    -0.823001979402E+03   -0.63404E-04   -0.12988E-03  4240   0.756E-02    0.805E-03
DAV:   2    -0.823001981745E+03   -0.23438E-05   -0.33001E-05  5110   0.111E-02    0.696E-03
DAV:   3    -0.823001981206E+03    0.53937E-06   -0.13123E-06  2970   0.244E-03
  60 F= -.83052938E+03 E0= -.83052938E+03  d E =-.728474E-04  mag=    -0.0000
quench:  g(F)=  0.387E-03 g(S)=  0.000E+00 dE (1.order)=-0.581E-03
 bond charge predicted
       N       E                     dE             d eps       ncg     rms          rms(c)
DAV:   1    -0.823002052665E+03   -0.70919E-04   -0.99983E-04  4240   0.660E-02    0.708E-03
DAV:   2    -0.823002054422E+03   -0.17574E-05   -0.25210E-05  5100   0.964E-03    0.615E-03
DAV:   3    -0.823002054029E+03    0.39291E-06   -0.91570E-07  2720   0.210E-03
  61 F= -.83052945E+03 E0= -.83052945E+03  d E =-.712363E-04  mag=    -0.0000
quench:  g(F)=  0.239E-03 g(S)=  0.000E+00 dE (1.order)=-0.470E-03
 bond charge predicted
       N       E                     dE             d eps       ncg     rms          rms(c)
DAV:   1    -0.823002125086E+03   -0.70664E-04   -0.10314E-03  4240   0.671E-02    0.733E-03
DAV:   2    -0.823002126860E+03   -0.17733E-05   -0.25204E-05  5120   0.965E-03    0.635E-03
DAV:   3    -0.823002126448E+03    0.41148E-06   -0.94273E-07  2730   0.212E-03
  62 F= -.83052953E+03 E0= -.83052953E+03  d E =-.790300E-04  mag=    -0.0000
quench:  g(F)=  0.262E-03 g(S)=  0.000E+00 dE (1.order)=-0.572E-03
 bond charge predicted
       N       E                     dE             d eps       ncg     rms          rms(c)
DAV:   1    -0.823002204345E+03   -0.77486E-04   -0.11854E-03  4240   0.717E-02    0.783E-03
DAV:   2    -0.823002206359E+03   -0.20139E-05   -0.29469E-05  5160   0.104E-02    0.681E-03
DAV:   3    -0.823002205856E+03    0.50334E-06   -0.11974E-06  2880   0.232E-03
  63 F= -.83052961E+03 E0= -.83052961E+03  d E =-.782425E-04  mag=    -0.0000
quench:  g(F)=  0.369E-03 g(S)=  0.000E+00 dE (1.order)=-0.681E-03
 bond charge predicted
       N       E                     dE             d eps       ncg     rms          rms(c)
DAV:   1    -0.823002266537E+03   -0.60178E-04   -0.11254E-03  4240   0.700E-02    0.747E-03
DAV:   2    -0.823002268566E+03   -0.20292E-05   -0.28617E-05  5120   0.103E-02    0.649E-03
DAV:   3    -0.823002268083E+03    0.48343E-06   -0.11511E-06  2800   0.228E-03
  64 F= -.83052968E+03 E0= -.83052968E+03  d E =-.685717E-04  mag=     0.0000
quench:  g(F)=  0.370E-03 g(S)=  0.000E+00 dE (1.order)=-0.559E-03
 bond charge predicted
       N       E                     dE             d eps       ncg     rms          rms(c)
DAV:   1    -0.823002336754E+03   -0.68188E-04   -0.86593E-04  4240   0.614E-02    0.659E-03
DAV:   2    -0.823002338280E+03   -0.15259E-05   -0.21839E-05  5140   0.895E-03    0.573E-03
DAV:   3    -0.823002337935E+03    0.34490E-06   -0.79195E-07  2600   0.195E-03
  65 F= -.83052975E+03 E0= -.83052975E+03  d E =-.693294E-04  mag=     0.0000
quench:  g(F)=  0.238E-03 g(S)=  0.000E+00 dE (1.order)=-0.455E-03
 bond charge predicted
       N       E                     dE             d eps       ncg     rms          rms(c)
DAV:   1    -0.823002408840E+03   -0.70560E-04   -0.98582E-04  4240   0.655E-02    0.716E-03
DAV:   2    -0.823002410517E+03   -0.16771E-05   -0.23862E-05  5140   0.935E-03    0.623E-03
DAV:   3    -0.823002410111E+03    0.40628E-06   -0.90584E-07  2620   0.209E-03
  66 F= -.83052983E+03 E0= -.83052983E+03  d E =-.784605E-04  mag=    -0.0000
quench:  g(F)=  0.252E-03 g(S)=  0.000E+00 dE (1.order)=-0.546E-03
 bond charge predicted
       N       E                     dE             d eps       ncg     rms          rms(c)
DAV:   1    -0.823002485197E+03   -0.74680E-04   -0.12462E-03  4240   0.737E-02    0.796E-03
DAV:   2    -0.823002487345E+03   -0.21480E-05   -0.31011E-05  5140   0.107E-02    0.692E-03
DAV:   3    -0.823002486825E+03    0.51976E-06   -0.12378E-06  2890   0.236E-03
  67 F= -.83052990E+03 E0= -.83052990E+03  d E =-.748004E-04  mag=     0.0000
quench:  g(F)=  0.351E-03 g(S)=  0.000E+00 dE (1.order)=-0.645E-03
 bond charge predicted
       N       E                     dE             d eps       ncg     rms          rms(c)
DAV:   1    -0.823002545207E+03   -0.57862E-04   -0.10528E-03  4240   0.678E-02    0.719E-03
DAV:   2    -0.823002547141E+03   -0.19343E-05   -0.27007E-05  5160   0.994E-03    0.628E-03
DAV:   3    -0.823002546683E+03    0.45812E-06   -0.99423E-07  2640   0.216E-03
  68 F= -.83052997E+03 E0= -.83052997E+03  d E =-.667832E-04  mag=     0.0000
quench:  g(F)=  0.344E-03 g(S)=  0.000E+00 dE (1.order)=-0.536E-03
 bond charge predicted
       N       E                     dE             d eps       ncg     rms          rms(c)
DAV:   1    -0.823002613751E+03   -0.66610E-04   -0.81238E-04  4240   0.596E-02    0.644E-03
DAV:   2    -0.823002615200E+03   -0.14486E-05   -0.20430E-05  5080   0.864E-03    0.563E-03
DAV:   3    -0.823002614854E+03    0.34596E-06   -0.76386E-07  2390   0.192E-03
  69 F= -.83053004E+03 E0= -.83053004E+03  d E =-.673831E-04  mag=     0.0000
quench:  g(F)=  0.237E-03 g(S)=  0.000E+00 dE (1.order)=-0.453E-03
 bond charge predicted
       N       E                     dE             d eps       ncg     rms          rms(c)
DAV:   1    -0.823002682456E+03   -0.67256E-04   -0.10029E-03  4240   0.663E-02    0.712E-03
DAV:   2    -0.823002684168E+03   -0.17126E-05   -0.24900E-05  5080   0.959E-03    0.624E-03
DAV:   3    -0.823002683781E+03    0.38718E-06   -0.92469E-07  2640   0.211E-03
  70 F= -.83053011E+03 E0= -.83053011E+03  d E =-.751351E-04  mag=     0.0000
quench:  g(F)=  0.247E-03 g(S)=  0.000E+00 dE (1.order)=-0.527E-03
 bond charge predicted
       N       E                     dE             d eps       ncg     rms          rms(c)
DAV:   1    -0.823002752486E+03   -0.68318E-04   -0.11312E-03  4260   0.703E-02    0.758E-03
DAV:   2    -0.823002754474E+03   -0.19881E-05   -0.28541E-05  5100   0.102E-02    0.663E-03
DAV:   3    -0.823002753968E+03    0.50593E-06   -0.11527E-06  2680   0.229E-03
  71 F= -.83053018E+03 E0= -.83053018E+03  d E =-.697168E-04  mag=     0.0000
quench:  g(F)=  0.331E-03 g(S)=  0.000E+00 dE (1.order)=-0.611E-03
 bond charge predicted
       N       E                     dE             d eps       ncg     rms          rms(c)
DAV:   1    -0.823002811713E+03   -0.57239E-04   -0.90411E-04  4280   0.628E-02    0.670E-03
DAV:   2    -0.823002813360E+03   -0.16471E-05   -0.23309E-05  5100   0.926E-03    0.585E-03
DAV:   3    -0.823002812960E+03    0.40047E-06   -0.90066E-07  2520   0.209E-03
  72 F= -.83053025E+03 E0= -.83053025E+03  d E =-.643833E-04  mag=     0.0000
quench:  g(F)=  0.326E-03 g(S)=  0.000E+00 dE (1.order)=-0.511E-03
 bond charge predicted
       N       E                     dE             d eps       ncg     rms          rms(c)
DAV:   1    -0.823002880860E+03   -0.67500E-04   -0.79122E-04  4300   0.587E-02    0.635E-03
DAV:   2    -0.823002882220E+03   -0.13596E-05   -0.19292E-05  5060   0.839E-03    0.555E-03
DAV:   3    -0.823002881893E+03    0.32673E-06   -0.73278E-07  2380   0.189E-03
  73 F= -.83053031E+03 E0= -.83053031E+03  d E =-.678595E-04  mag=    -0.0000
quench:  g(F)=  0.229E-03 g(S)=  0.000E+00 dE (1.order)=-0.430E-03
 bond charge predicted
       N       E                     dE             d eps       ncg     rms          rms(c)
DAV:   1    -0.823002946882E+03   -0.64662E-04   -0.10361E-03  4240   0.677E-02    0.723E-03
DAV:   2    -0.823002948682E+03   -0.17999E-05   -0.26026E-05  5160   0.985E-03    0.631E-03
DAV:   3    -0.823002948277E+03    0.40459E-06   -0.99531E-07  2560   0.217E-03
  74 F= -.83053039E+03 E0= -.83053039E+03  d E =-.733856E-04  mag=    -0.0000
quench:  g(F)=  0.233E-03 g(S)=  0.000E+00 dE (1.order)=-0.497E-03
 bond charge predicted
       N       E                     dE             d eps       ncg     rms          rms(c)
DAV:   1    -0.823003015664E+03   -0.66982E-04   -0.10380E-03  4260   0.674E-02    0.724E-03
DAV:   2    -0.823003017501E+03   -0.18368E-05   -0.26347E-05  5140   0.984E-03    0.631E-03
DAV:   3    -0.823003017032E+03    0.46929E-06   -0.10509E-06  2690   0.219E-03
  75 F= -.83053045E+03 E0= -.83053045E+03  d E =-.669651E-04  mag=    -0.0000
quench:  g(F)=  0.316E-03 g(S)=  0.000E+00 dE (1.order)=-0.581E-03
 bond charge predicted
       N       E                     dE             d eps       ncg     rms          rms(c)
DAV:   1    -0.823003075381E+03   -0.57880E-04   -0.84015E-04  4320   0.605E-02    0.654E-03
DAV:   2    -0.823003076822E+03   -0.14403E-05   -0.20910E-05  5080   0.878E-03    0.569E-03
DAV:   3    -0.823003076444E+03    0.37780E-06   -0.82422E-07  2460   0.200E-03
  76 F= -.83053052E+03 E0= -.83053052E+03  d E =-.656831E-04  mag=     0.0000
quench:  g(F)=  0.312E-03 g(S)=  0.000E+00 dE (1.order)=-0.488E-03
 bond charge predicted
       N       E                     dE             d eps       ncg     rms          rms(c)
DAV:   1    -0.823003148603E+03   -0.71781E-04   -0.82479E-04  4240   0.601E-02    0.659E-03
DAV:   2    -0.823003150029E+03   -0.14267E-05   -0.20346E-05  5020   0.865E-03    0.574E-03
DAV:   3    -0.823003149685E+03    0.34464E-06   -0.79439E-07  2350   0.197E-03
  77 F= -.83053059E+03 E0= -.83053059E+03  d E =-.719501E-04  mag=     0.0000
quench:  g(F)=  0.219E-03 g(S)=  0.000E+00 dE (1.order)=-0.410E-03
 bond charge predicted
       N       E                     dE             d eps       ncg     rms          rms(c)
DAV:   1    -0.823003212236E+03   -0.62207E-04   -0.10302E-03  4300   0.671E-02    0.735E-03
DAV:   2    -0.823003213986E+03   -0.17498E-05   -0.25484E-05  5170   0.970E-03    0.640E-03
DAV:   3    -0.823003213514E+03    0.47243E-06   -0.10719E-06  2670   0.222E-03
  78 F= -.83053066E+03 E0= -.83053066E+03  d E =-.714326E-04  mag=     0.0000
quench:  g(F)=  0.225E-03 g(S)=  0.000E+00 dE (1.order)=-0.480E-03
 bond charge predicted
       N       E                     dE             d eps       ncg     rms          rms(c)
DAV:   1    -0.823003277909E+03   -0.63923E-04   -0.10192E-03  4240   0.671E-02    0.715E-03
DAV:   2    -0.823003279732E+03   -0.18229E-05   -0.26389E-05  5200   0.992E-03    0.619E-03
DAV:   3    -0.823003279298E+03    0.43365E-06   -0.10356E-06  2610   0.221E-03
  79 F= -.83053073E+03 E0= -.83053073E+03  d E =-.631789E-04  mag=    -0.0000
quench:  g(F)=  0.301E-03 g(S)=  0.000E+00 dE (1.order)=-0.553E-03
 bond charge predicted
       N       E                     dE             d eps       ncg     rms          rms(c)
DAV:   1    -0.823003335081E+03   -0.55350E-04   -0.75973E-04  4240   0.578E-02    0.624E-03
DAV:   2    -0.823003336475E+03   -0.13935E-05   -0.19647E-05  5200   0.851E-03    0.541E-03
DAV:   3    -0.823003336138E+03    0.33657E-06   -0.71469E-07  2500   0.186E-03
  80 F= -.83053079E+03 E0= -.83053079E+03  d E =-.627422E-04  mag=    -0.0000
quench:  g(F)=  0.296E-03 g(S)=  0.000E+00 dE (1.order)=-0.467E-03
 bond charge predicted
       N       E                     dE             d eps       ncg     rms          rms(c)
DAV:   1    -0.823003408119E+03   -0.71644E-04   -0.80356E-04  4240   0.593E-02    0.659E-03
DAV:   2    -0.823003409466E+03   -0.13465E-05   -0.19639E-05  5200   0.852E-03    0.572E-03
DAV:   3    -0.823003409119E+03    0.34696E-06   -0.78335E-07  2300   0.195E-03
  81 F= -.83053086E+03 E0= -.83053086E+03  d E =-.720220E-04  mag=    -0.0000
quench:  g(F)=  0.210E-03 g(S)=  0.000E+00 dE (1.order)=-0.394E-03
 bond charge predicted
       N       E                     dE             d eps       ncg     rms          rms(c)
DAV:   1    -0.823003470923E+03   -0.61458E-04   -0.10516E-03  4320   0.679E-02    0.749E-03
DAV:   2    -0.823003472664E+03   -0.17405E-05   -0.25878E-05  5220   0.979E-03    0.648E-03
DAV:   3    -0.823003472160E+03    0.50375E-06   -0.11162E-06  2660   0.226E-03
  82 F= -.83053093E+03 E0= -.83053093E+03  d E =-.700582E-04  mag=    -0.0000
quench:  g(F)=  0.217E-03 g(S)=  0.000E+00 dE (1.order)=-0.461E-03
 bond charge predicted
       N       E                     dE             d eps       ncg     rms          rms(c)
DAV:   1    -0.823003533925E+03   -0.61261E-04   -0.97180E-04  4320   0.652E-02    0.709E-03
DAV:   2    -0.823003535592E+03   -0.16669E-05   -0.24720E-05  5260   0.954E-03    0.614E-03
DAV:   3    -0.823003535113E+03    0.47925E-06   -0.10429E-06  2470   0.220E-03
  83 F= -.83053099E+03 E0= -.83053099E+03  d E =-.606977E-04  mag=    -0.0000
quench:  g(F)=  0.288E-03 g(S)=  0.000E+00 dE (1.order)=-0.525E-03
 bond charge predicted
       N       E                     dE             d eps       ncg     rms          rms(c)
DAV:   1    -0.823003587758E+03   -0.52166E-04   -0.72919E-04  4260   0.565E-02    0.615E-03
DAV:   2    -0.823003589045E+03   -0.12869E-05   -0.18762E-05  5180   0.833E-03    0.533E-03
DAV:   3    -0.823003588705E+03    0.33956E-06   -0.71854E-07  2280   0.187E-03
  84 F= -.83053105E+03 E0= -.83053105E+03  d E =-.589497E-04  mag=    -0.0000
quench:  g(F)=  0.277E-03 g(S)=  0.000E+00 dE (1.order)=-0.442E-03
 bond charge predicted
       N       E                     dE             d eps       ncg     rms          rms(c)
DAV:   1    -0.823003654174E+03   -0.65129E-04   -0.78224E-04  4320   0.584E-02    0.647E-03
DAV:   2    -0.823003655451E+03   -0.12771E-05   -0.19056E-05  5180   0.841E-03    0.561E-03
DAV:   3    -0.823003655090E+03    0.36047E-06   -0.75229E-07  2310   0.193E-03
  85 F= -.83053112E+03 E0= -.83053112E+03  d E =-.652459E-04  mag=    -0.0000
quench:  g(F)=  0.200E-03 g(S)=  0.000E+00 dE (1.order)=-0.378E-03
 bond charge predicted
       N       E                     dE             d eps       ncg     rms          rms(c)
DAV:   1    -0.823003713136E+03   -0.57685E-04   -0.93353E-04  4320   0.639E-02    0.703E-03
DAV:   2    -0.823003714664E+03   -0.15287E-05   -0.23055E-05  5180   0.928E-03    0.609E-03
DAV:   3    -0.823003714210E+03    0.45483E-06   -0.99285E-07  2420   0.216E-03
  86 F= -.83053118E+03 E0= -.83053118E+03  d E =-.658894E-04  mag=    -0.0000
quench:  g(F)=  0.212E-03 g(S)=  0.000E+00 dE (1.order)=-0.445E-03
 bond charge predicted
       N       E                     dE             d eps       ncg     rms          rms(c)
DAV:   1    -0.823003775049E+03   -0.60385E-04   -0.87251E-04  4320   0.617E-02    0.670E-03
DAV:   2    -0.823003776512E+03   -0.14629E-05   -0.21883E-05  5140   0.900E-03    0.581E-03
DAV:   3    -0.823003776091E+03    0.42107E-06   -0.87994E-07  2370   0.207E-03
  87 F= -.83053124E+03 E0= -.83053124E+03  d E =-.599232E-04  mag=     0.0000
quench:  g(F)=  0.279E-03 g(S)=  0.000E+00 dE (1.order)=-0.504E-03
 bond charge predicted
       N       E                     dE             d eps       ncg     rms          rms(c)
DAV:   1    -0.823003829169E+03   -0.52656E-04   -0.75722E-04  4260   0.576E-02    0.631E-03
DAV:   2    -0.823003830468E+03   -0.12990E-05   -0.19269E-05  5180   0.847E-03    0.546E-03
DAV:   3    -0.823003830109E+03    0.35857E-06   -0.75069E-07  2310   0.192E-03
  88 F= -.83053130E+03 E0= -.83053130E+03  d E =-.598639E-04  mag=     0.0000
quench:  g(F)=  0.265E-03 g(S)=  0.000E+00 dE (1.order)=-0.424E-03
 bond charge predicted
       N       E                     dE             d eps       ncg     rms          rms(c)
DAV:   1    -0.823003894054E+03   -0.63587E-04   -0.80053E-04  4320   0.591E-02    0.657E-03
DAV:   2    -0.823003895368E+03   -0.13139E-05   -0.19737E-05  5060   0.859E-03    0.566E-03
DAV:   3    -0.823003894995E+03    0.37273E-06   -0.80398E-07  2400   0.199E-03
  89 F= -.83053136E+03 E0= -.83053136E+03  d E =-.634114E-04  mag=     0.0000
quench:  g(F)=  0.190E-03 g(S)=  0.000E+00 dE (1.order)=-0.368E-03
 bond charge predicted
       N       E                     dE             d eps       ncg     rms          rms(c)
DAV:   1    -0.823003950541E+03   -0.55173E-04   -0.87832E-04  4260   0.620E-02    0.684E-03
DAV:   2    -0.823003952013E+03   -0.14720E-05   -0.22117E-05  5120   0.910E-03    0.589E-03
DAV:   3    -0.823003951589E+03    0.42338E-06   -0.88871E-07  2390   0.208E-03
  90 F= -.83053143E+03 E0= -.83053143E+03  d E =-.632995E-04  mag=    -0.0000
quench:  g(F)=  0.209E-03 g(S)=  0.000E+00 dE (1.order)=-0.443E-03
 bond charge predicted
       N       E                     dE             d eps       ncg     rms          rms(c)
DAV:   1    -0.823004011726E+03   -0.59713E-04   -0.82796E-04  4320   0.602E-02    0.665E-03
DAV:   2    -0.823004013128E+03   -0.14026E-05   -0.20915E-05  5100   0.884E-03    0.572E-03
DAV:   3    -0.823004012735E+03    0.39336E-06   -0.84331E-07  2435   0.203E-03
  91 F= -.83053149E+03 E0= -.83053149E+03  d E =-.595909E-04  mag=     0.0000
quench:  g(F)=  0.277E-03 g(S)=  0.000E+00 dE (1.order)=-0.497E-03
 bond charge predicted
       N       E                     dE             d eps       ncg     rms          rms(c)
DAV:   1    -0.823004065469E+03   -0.52340E-04   -0.76625E-04  4240   0.580E-02    0.637E-03
DAV:   2    -0.823004066796E+03   -0.13277E-05   -0.19625E-05  5160   0.856E-03    0.550E-03
DAV:   3    -0.823004066441E+03    0.35565E-06   -0.74524E-07  2300   0.191E-03
  92 F= -.83053155E+03 E0= -.83053155E+03  d E =-.597822E-04  mag=     0.0000
quench:  g(F)=  0.254E-03 g(S)=  0.000E+00 dE (1.order)=-0.408E-03
 bond charge predicted
       N       E                     dE             d eps       ncg     rms          rms(c)
DAV:   1    -0.823004130202E+03   -0.63406E-04   -0.77008E-04  4320   0.582E-02    0.649E-03
DAV:   2    -0.823004131504E+03   -0.13019E-05   -0.19268E-05  5100   0.851E-03    0.556E-03
DAV:   3    -0.823004131153E+03    0.35043E-06   -0.75911E-07  2325   0.194E-03
  93 F= -.83053161E+03 E0= -.83053161E+03  d E =-.623097E-04  mag=     0.0000
quench:  g(F)=  0.187E-03 g(S)=  0.000E+00 dE (1.order)=-0.364E-03
 bond charge predicted
       N       E                     dE             d eps       ncg     rms          rms(c)
DAV:   1    -0.823004185304E+03   -0.53801E-04   -0.85776E-04  4300   0.614E-02    0.678E-03
DAV:   2    -0.823004186737E+03   -0.14324E-05   -0.21432E-05  5100   0.897E-03    0.584E-03
DAV:   3    -0.823004186343E+03    0.39372E-06   -0.88522E-07  2400   0.205E-03
  94 F= -.83053167E+03 E0= -.83053167E+03  d E =-.626936E-04  mag=    -0.0000
quench:  g(F)=  0.205E-03 g(S)=  0.000E+00 dE (1.order)=-0.433E-03
 bond charge predicted
       N       E                     dE             d eps       ncg     rms          rms(c)
DAV:   1    -0.823004246504E+03   -0.59767E-04   -0.81294E-04  4240   0.598E-02    0.662E-03
DAV:   2    -0.823004247974E+03   -0.14697E-05   -0.21230E-05  5160   0.889E-03    0.565E-03
DAV:   3    -0.823004247609E+03    0.36516E-06   -0.78079E-07  2300   0.195E-03
  95 F= -.83053173E+03 E0= -.83053173E+03  d E =-.589416E-04  mag=     0.0000
quench:  g(F)=  0.268E-03 g(S)=  0.000E+00 dE (1.order)=-0.482E-03
 bond charge predicted
       N       E                     dE             d eps       ncg     rms          rms(c)
DAV:   1    -0.823004296563E+03   -0.48589E-04   -0.74748E-04  4280   0.573E-02    0.624E-03
DAV:   2    -0.823004297861E+03   -0.12984E-05   -0.19074E-05  5120   0.844E-03    0.540E-03
DAV:   3    -0.823004297528E+03    0.33250E-06   -0.71214E-07  2260   0.187E-03
  96 F= -.83053179E+03 E0= -.83053179E+03  d E =-.568420E-04  mag=     0.0000
quench:  g(F)=  0.248E-03 g(S)=  0.000E+00 dE (1.order)=-0.399E-03
 bond charge predicted
       N       E                     dE             d eps       ncg     rms          rms(c)
DAV:   1    -0.823004357568E+03   -0.59707E-04   -0.75425E-04  4240   0.576E-02    0.635E-03
DAV:   2    -0.823004358915E+03   -0.13467E-05   -0.19441E-05  5100   0.852E-03    0.546E-03
DAV:   3    -0.823004358589E+03    0.32596E-06   -0.74468E-07  2310   0.190E-03
  97 F= -.83053185E+03 E0= -.83053185E+03  d E =-.589898E-04  mag=    -0.0000
quench:  g(F)=  0.181E-03 g(S)=  0.000E+00 dE (1.order)=-0.354E-03
 bond charge predicted
       N       E                     dE             d eps       ncg     rms          rms(c)
DAV:   1    -0.823004411417E+03   -0.52502E-04   -0.82669E-04  4240   0.604E-02    0.658E-03
DAV:   2    -0.823004412857E+03   -0.14396E-05   -0.20932E-05  5100   0.886E-03    0.568E-03
DAV:   3    -0.823004412502E+03    0.35488E-06   -0.78563E-07  2320   0.198E-03
  98 F= -.83053191E+03 E0= -.83053191E+03  d E =-.593841E-04  mag=     0.0000
quench:  g(F)=  0.197E-03 g(S)=  0.000E+00 dE (1.order)=-0.415E-03
 bond charge predicted
       N       E                     dE             d eps       ncg     rms          rms(c)
DAV:   1    -0.823004467718E+03   -0.54861E-04   -0.79371E-04  4240   0.592E-02    0.651E-03
DAV:   2    -0.823004469159E+03   -0.14408E-05   -0.20831E-05  5140   0.885E-03    0.557E-03
DAV:   3    -0.823004468800E+03    0.35887E-06   -0.74383E-07  2340   0.193E-03
  99 F= -.83053196E+03 E0= -.83053196E+03  d E =-.559399E-04  mag=    -0.0000
quench:  g(F)=  0.250E-03 g(S)=  0.000E+00 dE (1.order)=-0.457E-03
 reached required accuracy - stopping structural energy minimisation
