 running   50 mpi-ranks, on    1 nodes
 each image running on   10 cores
 distrk:  each k-point on    5 cores,    2 groups
 distr:  one band on    1 cores,    5 groups
 vasp.6.4.2 20Jul23 (build Aug 26 2025 15:10:52) complex                        
  
 POSCAR found type information on POSCAR C H F O 
 01/POSCAR found :  4 types and      99 ions
 Reading from existing POTCAR
 scaLAPACK will be used
 -----------------------------------------------------------------------------
|                                                                             |
|           W    W    AA    RRRRR   N    N  II  N    N   GGGG   !!!           |
|           W    W   A  A   R    R  NN   N  II  NN   N  G    G  !!!           |
|           W    W  A    A  R    R  N N  N  II  N N  N  G       !!!           |
|           W WW W  AAAAAA  RRRRR   N  N N  II  N  N N  G  GGG   !            |
|           WW  WW  A    A  R   R   N   NN  II  N   NN  G    G                |
|           W    W  A    A  R    R  N    N  II  N    N   GGGG   !!!           |
|                                                                             |
|     For optimal performance we recommend to set                             |
|       NCORE = 2 up to number-of-cores-per-socket                            |
|     NCORE specifies how many cores store one orbital (NPAR=cpu/NCORE).      |
|     This setting can greatly improve the performance of VASP for DFT.       |
|     The default, NCORE=1 might be grossly inefficient on modern             |
|     multi-core architectures or massively parallel machines. Do your        |
|     own testing! More info at https://www.vasp.at/wiki/index.php/NCORE      |
|     Unfortunately you need to use the default for GW and RPA                |
|     calculations (for HF NCORE is supported but not extensively tested      |
|     yet).                                                                   |
|                                                                             |
 -----------------------------------------------------------------------------

 Reading from existing POTCAR
 LDA part: xc-table for Pade appr. of Perdew
 POSCAR found type information on POSCAR C H F O 
 00/POSCAR found :  4 types and      99 ions
 POSCAR found type information on POSCAR C H F O 
 06/POSCAR found :  4 types and      99 ions
 Jacobian:    33.7825262909836     
 POSCAR found type information on POSCAR C H F O 
 00/POSCAR found :  4 types and      99 ions
 POSCAR found type information on POSCAR C H F O 
 06/POSCAR found :  4 types and      99 ions
 POSCAR, INCAR and KPOINTS ok, starting setup
 FFT: planning ... GRIDC
 FFT: planning ... GRID_SOFT
 FFT: planning ... GRID
 WAVECAR not read
 entering main loop
       N       E                     dE             d eps       ncg     rms          rms(c)
DAV:   1     0.333648838540E+04    0.33365E+04   -0.14013E+05  4630   0.105E+03
DAV:   2    -0.254602221055E+03   -0.35911E+04   -0.33811E+04  6540   0.259E+02
DAV:   3    -0.875539411955E+03   -0.62094E+03   -0.61824E+03  5400   0.111E+02
DAV:   4    -0.897578549748E+03   -0.22039E+02   -0.21959E+02  5440   0.263E+01
DAV:   5    -0.898229822477E+03   -0.65127E+00   -0.65044E+00  6110   0.394E+00    0.524E+01
DAV:   6    -0.879895378332E+03    0.18334E+02   -0.23157E+01  5250   0.811E+00    0.340E+01
DAV:   7    -0.856981884991E+03    0.22913E+02   -0.34641E+01  5160   0.937E+00    0.206E+01
DAV:   8    -0.851984613806E+03    0.49973E+01   -0.24678E+01  5230   0.755E+00    0.840E+00
DAV:   9    -0.851907865659E+03    0.76748E-01   -0.11588E+00  5030   0.218E+00    0.327E+00
DAV:  10    -0.851809145176E+03    0.98720E-01   -0.49191E-01  5040   0.129E+00    0.100E+00
DAV:  11    -0.851793976782E+03    0.15168E-01   -0.91996E-02  5040   0.641E-01    0.341E-01
DAV:  12    -0.851793241306E+03    0.73548E-03   -0.16784E-02  5190   0.274E-01    0.167E-01
DAV:  13    -0.851793105271E+03    0.13603E-03   -0.19161E-03  5290   0.924E-02    0.111E-01
DAV:  14    -0.851793132591E+03   -0.27320E-04   -0.93544E-04  5190   0.675E-02    0.516E-02
DAV:  15    -0.851793177634E+03   -0.45043E-04   -0.10933E-04  4980   0.227E-02    0.339E-02
DAV:  16    -0.851793199470E+03   -0.21837E-04   -0.67916E-05  4870   0.196E-02    0.140E-02
DAV:  17    -0.851793195779E+03    0.36911E-05   -0.15804E-05  5990   0.124E-02    0.589E-03
DAV:  18    -0.851793196791E+03   -0.10117E-05   -0.71540E-06  4700   0.542E-03    0.444E-03
DAV:  19    -0.851793196154E+03    0.63652E-06   -0.15220E-06  4010   0.426E-03
   1 F= -.85967262E+03 E0= -.85967262E+03  d E =-.859673E+03  mag=    -0.0000
quench:  g(F)=  0.000E+00 g(S)=  0.000E+00 dE (1.order)= 0.000E+00
 bond charge predicted
       N       E                     dE             d eps       ncg     rms          rms(c)
DAV:   1    -0.851793204233E+03   -0.74420E-05   -0.13877E-04  4540   0.229E-02    0.278E-03
DAV:   2    -0.851793204366E+03   -0.13268E-06   -0.29944E-06  4040   0.322E-03
   2 F= -.85967263E+03 E0= -.85967263E+03  d E =-.499924E-05  mag=    -0.0000
quench:  g(F)=  0.000E+00 g(S)=  0.000E+00 dE (1.order)= 0.000E+00
 bond charge predicted
       N       E                     dE             d eps       ncg     rms          rms(c)
DAV:   1    -0.851793217946E+03   -0.13714E-04   -0.43293E-04  4520   0.387E-02    0.555E-03
DAV:   2    -0.851793218242E+03   -0.29552E-06   -0.81528E-06  4500   0.499E-03
   3 F= -.85967264E+03 E0= -.85967264E+03  d E =-.867524E-05  mag=     0.0000
quench:  g(F)=  0.000E+00 g(S)=  0.000E+00 dE (1.order)= 0.000E+00
 bond charge predicted
       N       E                     dE             d eps       ncg     rms          rms(c)
DAV:   1    -0.851793237419E+03   -0.19473E-04   -0.85110E-04  4520   0.537E-02    0.853E-03
DAV:   2    -0.851793237831E+03   -0.41203E-06   -0.15012E-05  4500   0.672E-03    0.717E-03
DAV:   3    -0.851793237808E+03    0.23014E-07   -0.50339E-07  2960   0.165E-03
   4 F= -.85967265E+03 E0= -.85967265E+03  d E =-.132649E-04  mag=    -0.0000
quench:  g(F)=  0.000E+00 g(S)=  0.000E+00 dE (1.order)= 0.000E+00
 bond charge predicted
       N       E                     dE             d eps       ncg     rms          rms(c)
DAV:   1    -0.851793262541E+03   -0.24710E-04   -0.15449E-03  4520   0.723E-02    0.823E-03
DAV:   2    -0.851793264221E+03   -0.16807E-05   -0.27050E-05  4540   0.888E-03    0.693E-03
DAV:   3    -0.851793264062E+03    0.15899E-06   -0.43703E-07  3200   0.151E-03
   5 F= -.85967267E+03 E0= -.85967267E+03  d E =-.175799E-04  mag=     0.0000
quench:  g(F)=  0.000E+00 g(S)=  0.000E+00 dE (1.order)= 0.000E+00
 bond charge predicted
       N       E                     dE             d eps       ncg     rms          rms(c)
DAV:   1    -0.851793293798E+03   -0.29577E-04   -0.23920E-03  4520   0.895E-02    0.100E-02
DAV:   2    -0.851793296406E+03   -0.26081E-05   -0.41714E-05  4520   0.110E-02    0.844E-03
DAV:   3    -0.851793296125E+03    0.28125E-06   -0.64547E-07  3480   0.184E-03
   6 F= -.85967269E+03 E0= -.85967269E+03  d E =-.215234E-04  mag=    -0.0000
quench:  g(F)=  0.000E+00 g(S)=  0.000E+00 dE (1.order)= 0.000E+00
 bond charge predicted
       N       E                     dE             d eps       ncg     rms          rms(c)
DAV:   1    -0.851793330146E+03   -0.33740E-04   -0.32832E-03  4520   0.105E-01    0.118E-02
DAV:   2    -0.851793333590E+03   -0.34434E-05   -0.56074E-05  4560   0.128E-02    0.997E-03
DAV:   3    -0.851793333227E+03    0.36260E-06   -0.94499E-07  3760   0.216E-03
   7 F= -.85967271E+03 E0= -.85967271E+03  d E =-.251228E-04  mag=     0.0000
quench:  g(F)=  0.000E+00 g(S)=  0.000E+00 dE (1.order)= 0.000E+00
 bond charge predicted
       N       E                     dE             d eps       ncg     rms          rms(c)
DAV:   1    -0.851793372296E+03   -0.38706E-04   -0.52369E-03  4520   0.134E-01    0.150E-02
DAV:   2    -0.851793377847E+03   -0.55516E-05   -0.89165E-05  4560   0.164E-02    0.126E-02
DAV:   3    -0.851793377272E+03    0.57551E-06   -0.16398E-06  4090   0.279E-03
   8 F= -.85967274E+03 E0= -.85967274E+03  d E =-.300245E-04  mag=     0.0000
quench:  g(F)=  0.000E+00 g(S)=  0.000E+00 dE (1.order)= 0.000E+00
 bond charge predicted
       N       E                     dE             d eps       ncg     rms          rms(c)
DAV:   1    -0.851793422121E+03   -0.44274E-04   -0.85148E-03  4520   0.169E-01    0.192E-02
DAV:   2    -0.851793430787E+03   -0.86661E-05   -0.14291E-04  4540   0.206E-02    0.162E-02
DAV:   3    -0.851793429730E+03    0.10570E-05   -0.28857E-06  4570   0.359E-03    0.120E-02
DAV:   4    -0.851793432502E+03   -0.27718E-05   -0.63978E-06  4220   0.502E-03    0.251E-03
DAV:   5    -0.851793432477E+03    0.25379E-07   -0.13928E-06  3660   0.210E-03
   9 F= -.85967278E+03 E0= -.85967278E+03  d E =-.406343E-04  mag=    -0.0000
quench:  g(F)=  0.000E+00 g(S)=  0.000E+00 dE (1.order)= 0.000E+00
 bond charge predicted
       N       E                     dE             d eps       ncg     rms          rms(c)
DAV:   1    -0.851793483583E+03   -0.51081E-04   -0.13572E-02  4520   0.213E-01    0.234E-02
DAV:   2    -0.851793499186E+03   -0.15603E-04   -0.24476E-04  4460   0.269E-02    0.196E-02
DAV:   3    -0.851793496607E+03    0.25793E-05   -0.48634E-06  4920   0.466E-03    0.147E-02
DAV:   4    -0.851793499653E+03   -0.30463E-05   -0.11256E-05  4300   0.663E-03    0.318E-03
DAV:   5    -0.851793499685E+03   -0.32058E-07   -0.24246E-06  4060   0.274E-03
  10 F= -.85967283E+03 E0= -.85967283E+03  d E =-.487126E-04  mag=    -0.0000
quench:  g(F)=  0.000E+00 g(S)=  0.000E+00 dE (1.order)= 0.000E+00
 bond charge predicted
       N       E                     dE             d eps       ncg     rms          rms(c)
DAV:   1    -0.851793558226E+03   -0.58573E-04   -0.20478E-02  4440   0.263E-01    0.288E-02
DAV:   2    -0.851793582535E+03   -0.24309E-04   -0.37484E-04  4440   0.335E-02    0.242E-02
DAV:   3    -0.851793578805E+03    0.37292E-05   -0.76503E-06  5270   0.578E-03    0.181E-02
DAV:   4    -0.851793583171E+03   -0.43652E-05   -0.16165E-05  4320   0.806E-03    0.396E-03
DAV:   5    -0.851793583255E+03   -0.84285E-07   -0.36049E-06  4490   0.333E-03
  11 F= -.85967289E+03 E0= -.85967289E+03  d E =-.588939E-04  mag=    -0.0000
quench:  g(F)=  0.000E+00 g(S)=  0.000E+00 dE (1.order)= 0.000E+00
 bond charge predicted
       N       E                     dE             d eps       ncg     rms          rms(c)
DAV:   1    -0.851793646654E+03   -0.63483E-04   -0.31572E-02  4420   0.326E-01    0.357E-02
DAV:   2    -0.851793685914E+03   -0.39260E-04   -0.59113E-04  4440   0.417E-02    0.299E-02
DAV:   3    -0.851793679937E+03    0.59766E-05   -0.11801E-05  5440   0.710E-03    0.225E-02
DAV:   4    -0.851793686411E+03   -0.64736E-05   -0.25480E-05  4370   0.101E-02    0.498E-03
DAV:   5    -0.851793686624E+03   -0.21311E-06   -0.55697E-06  4780   0.409E-03
  12 F= -.85967296E+03 E0= -.85967296E+03  d E =-.726913E-04  mag=    -0.0000
quench:  g(F)=  0.000E+00 g(S)=  0.000E+00 dE (1.order)= 0.000E+00
 bond charge predicted
       N       E                     dE             d eps       ncg     rms          rms(c)
DAV:   1    -0.851793734130E+03   -0.47719E-04   -0.49487E-02  4400   0.411E-01    0.449E-02
DAV:   2    -0.851793798395E+03   -0.64266E-04   -0.94728E-04  4400   0.530E-02    0.376E-02
DAV:   3    -0.851793788583E+03    0.98128E-05   -0.19818E-05  5440   0.911E-03    0.285E-02
DAV:   4    -0.851793796960E+03   -0.83778E-05   -0.40181E-05  4450   0.128E-02    0.662E-03
DAV:   5    -0.851793797565E+03   -0.60490E-06   -0.86381E-06  4940   0.511E-03
  13 F= -.85967304E+03 E0= -.85967304E+03  d E =-.804860E-04  mag=     0.0000
quench:  g(F)=  0.000E+00 g(S)=  0.000E+00 dE (1.order)= 0.000E+00
 bond charge predicted
       N       E                     dE             d eps       ncg     rms          rms(c)
DAV:   1    -0.851793734538E+03    0.62423E-04   -0.76268E-02  4360   0.529E-01    0.566E-02
DAV:   2    -0.851793842458E+03   -0.10792E-03   -0.15508E-03  4460   0.701E-02    0.486E-02
DAV:   3    -0.851793824241E+03    0.18217E-04   -0.42437E-05  5720   0.129E-02    0.370E-02
DAV:   4    -0.851793828881E+03   -0.46401E-05   -0.61821E-05  4500   0.166E-02    0.107E-02
DAV:   5    -0.851793830868E+03   -0.19871E-05   -0.14268E-05  4880   0.662E-03    0.584E-03
DAV:   6    -0.851793831370E+03   -0.50142E-06   -0.18174E-06  3120   0.259E-03
  14 F= -.85967303E+03 E0= -.85967303E+03  d E =0.126649E-04  mag=     0.0000
quench:  g(F)=  0.000E+00 g(S)=  0.000E+00 dE (1.order)= 0.000E+00
 bond charge predicted
       N       E                     dE             d eps       ncg     rms          rms(c)
DAV:   1    -0.851793978849E+03   -0.14798E-03   -0.86781E-03  4370   0.190E-01    0.213E-02
DAV:   2    -0.851793993609E+03   -0.14760E-04   -0.22064E-04  5460   0.277E-02    0.193E-02
DAV:   3    -0.851793988971E+03    0.46377E-05   -0.11053E-05  5680   0.618E-03    0.146E-02
DAV:   4    -0.851793985333E+03    0.36388E-05   -0.89911E-06  4320   0.636E-03    0.634E-03
DAV:   5    -0.851793985186E+03    0.14636E-06   -0.25037E-06  3400   0.297E-03
  15 F= -.85967319E+03 E0= -.85967319E+03  d E =-.155540E-03  mag=    -0.0000
quench:  g(F)=  0.000E+00 g(S)=  0.000E+00 dE (1.order)= 0.000E+00
 bond charge predicted
       N       E                     dE             d eps       ncg     rms          rms(c)
DAV:   1    -0.851793988359E+03   -0.30265E-05   -0.19269E-05  4380   0.891E-03    0.167E-03
DAV:   2    -0.851793988381E+03   -0.21741E-07   -0.52891E-07  2490   0.142E-03
  16 F= -.85967319E+03 E0= -.85967319E+03  d E =-.287602E-05  mag=    -0.0000
quench:  g(F)=  0.000E+00 g(S)=  0.000E+00 dE (1.order)= 0.000E+00
 bond charge predicted
       N       E                     dE             d eps       ncg     rms          rms(c)
DAV:   1    -0.851793993379E+03   -0.50200E-05   -0.64867E-05  4420   0.162E-02    0.225E-03
DAV:   2    -0.851793993452E+03   -0.72592E-07   -0.13399E-06  2900   0.223E-03
  17 F= -.85967319E+03 E0= -.85967319E+03  d E =-.438750E-05  mag=    -0.0000
quench:  g(F)=  0.000E+00 g(S)=  0.000E+00 dE (1.order)= 0.000E+00
 bond charge predicted
       N       E                     dE             d eps       ncg     rms          rms(c)
DAV:   1    -0.851793998949E+03   -0.55704E-05   -0.12143E-04  4400   0.219E-02    0.327E-03
DAV:   2    -0.851793999070E+03   -0.12086E-06   -0.25136E-06  3680   0.295E-03
  18 F= -.85967320E+03 E0= -.85967320E+03  d E =-.471449E-05  mag=     0.0000
quench:  g(F)=  0.000E+00 g(S)=  0.000E+00 dE (1.order)= 0.000E+00
 bond charge predicted
       N       E                     dE             d eps       ncg     rms          rms(c)
DAV:   1    -0.851794005534E+03   -0.65842E-05   -0.17703E-04  4420   0.259E-02    0.405E-03
DAV:   2    -0.851794005695E+03   -0.16122E-06   -0.34873E-06  4080   0.331E-03
  19 F= -.85967320E+03 E0= -.85967320E+03  d E =-.531467E-05  mag=     0.0000
quench:  g(F)=  0.000E+00 g(S)=  0.000E+00 dE (1.order)= 0.000E+00
 bond charge predicted
       N       E                     dE             d eps       ncg     rms          rms(c)
DAV:   1    -0.851794013994E+03   -0.84606E-05   -0.24229E-04  4430   0.297E-02    0.465E-03
DAV:   2    -0.851794014229E+03   -0.23442E-06   -0.47435E-06  4460   0.373E-03
  20 F= -.85967321E+03 E0= -.85967321E+03  d E =-.665529E-05  mag=     0.0000
quench:  g(F)=  0.000E+00 g(S)=  0.000E+00 dE (1.order)= 0.000E+00
 bond charge predicted
       N       E                     dE             d eps       ncg     rms          rms(c)
DAV:   1    -0.851794024568E+03   -0.10574E-04   -0.33172E-04  4380   0.345E-02    0.539E-03
DAV:   2    -0.851794024910E+03   -0.34222E-06   -0.66261E-06  4580   0.438E-03
  21 F= -.85967322E+03 E0= -.85967322E+03  d E =-.843413E-05  mag=    -0.0000
quench:  g(F)=  0.000E+00 g(S)=  0.000E+00 dE (1.order)= 0.000E+00
 bond charge predicted
       N       E                     dE             d eps       ncg     rms          rms(c)
DAV:   1    -0.851794037407E+03   -0.12839E-04   -0.54867E-04  4390   0.444E-02    0.672E-03
DAV:   2    -0.851794038004E+03   -0.59745E-06   -0.11195E-05  4520   0.569E-03    0.555E-03
DAV:   3    -0.851794038045E+03   -0.40913E-07   -0.25072E-07  2870   0.118E-03
  22 F= -.85967323E+03 E0= -.85967323E+03  d E =-.103968E-04  mag=     0.0000
quench:  g(F)=  0.000E+00 g(S)=  0.000E+00 dE (1.order)= 0.000E+00
 bond charge predicted
       N       E                     dE             d eps       ncg     rms          rms(c)
DAV:   1    -0.851794053191E+03   -0.15186E-04   -0.88250E-04  4360   0.559E-02    0.574E-03
DAV:   2    -0.851794054584E+03   -0.13935E-05   -0.17769E-05  4440   0.700E-03    0.448E-03
DAV:   3    -0.851794054540E+03    0.43961E-07   -0.19992E-07  2740   0.103E-03
  23 F= -.85967324E+03 E0= -.85967324E+03  d E =-.129602E-04  mag=    -0.0000
quench:  g(F)=  0.000E+00 g(S)=  0.000E+00 dE (1.order)= 0.000E+00
 bond charge predicted
       N       E                     dE             d eps       ncg     rms          rms(c)
DAV:   1    -0.851794071585E+03   -0.17001E-04   -0.13949E-03  4360   0.699E-02    0.697E-03
DAV:   2    -0.851794073895E+03   -0.23099E-05   -0.28817E-05  4400   0.882E-03    0.537E-03
DAV:   3    -0.851794073802E+03    0.92667E-07   -0.31006E-07  3100   0.127E-03
  24 F= -.85967326E+03 E0= -.85967326E+03  d E =-.153772E-04  mag=    -0.0000
quench:  g(F)=  0.000E+00 g(S)=  0.000E+00 dE (1.order)= 0.000E+00
 bond charge predicted
       N       E                     dE             d eps       ncg     rms          rms(c)
DAV:   1    -0.851794093404E+03   -0.19509E-04   -0.21179E-03  4360   0.862E-02    0.860E-03
DAV:   2    -0.851794096872E+03   -0.34674E-05   -0.43521E-05  4320   0.109E-02    0.661E-03
DAV:   3    -0.851794096734E+03    0.13744E-06   -0.46560E-07  3280   0.154E-03
  25 F= -.85967328E+03 E0= -.85967328E+03  d E =-.186937E-04  mag=    -0.0000
quench:  g(F)=  0.000E+00 g(S)=  0.000E+00 dE (1.order)= 0.000E+00
 bond charge predicted
       N       E                     dE             d eps       ncg     rms          rms(c)
DAV:   1    -0.851794120355E+03   -0.23484E-04   -0.31547E-03  4360   0.105E-01    0.106E-02
DAV:   2    -0.851794125385E+03   -0.50293E-05   -0.63971E-05  4340   0.133E-02    0.817E-03
DAV:   3    -0.851794125163E+03    0.22212E-06   -0.70924E-07  3640   0.190E-03
  26 F= -.85967330E+03 E0= -.85967330E+03  d E =-.224801E-04  mag=     0.0000
quench:  g(F)=  0.000E+00 g(S)=  0.000E+00 dE (1.order)= 0.000E+00
 bond charge predicted
       N       E                     dE             d eps       ncg     rms          rms(c)
DAV:   1    -0.851794155177E+03   -0.29792E-04   -0.45930E-03  4360   0.126E-01    0.130E-02
DAV:   2    -0.851794162332E+03   -0.71551E-05   -0.92648E-05  4340   0.160E-02    0.101E-02
DAV:   3    -0.851794161969E+03    0.36310E-06   -0.11631E-06  3920   0.235E-03
  27 F= -.85967333E+03 E0= -.85967333E+03  d E =-.273193E-04  mag=    -0.0000
quench:  g(F)=  0.000E+00 g(S)=  0.000E+00 dE (1.order)= 0.000E+00
 bond charge predicted
       N       E                     dE             d eps       ncg     rms          rms(c)
DAV:   1    -0.851794197615E+03   -0.35283E-04   -0.68937E-03  4360   0.155E-01    0.163E-02
DAV:   2    -0.851794208173E+03   -0.10558E-04   -0.13854E-04  4360   0.195E-02    0.127E-02
DAV:   3    -0.851794207629E+03    0.54417E-06   -0.19086E-06  4400   0.295E-03
  28 F= -.85967336E+03 E0= -.85967336E+03  d E =-.319934E-04  mag=    -0.0000
quench:  g(F)=  0.000E+00 g(S)=  0.000E+00 dE (1.order)= 0.000E+00
 bond charge predicted
       N       E                     dE             d eps       ncg     rms          rms(c)
DAV:   1    -0.851794249903E+03   -0.41730E-04   -0.94927E-03  4360   0.182E-01    0.195E-02
DAV:   2    -0.851794263914E+03   -0.14011E-04   -0.18745E-04  4320   0.228E-02    0.153E-02
DAV:   3    -0.851794263251E+03    0.66286E-06   -0.29219E-06  4780   0.359E-03
  29 F= -.85967340E+03 E0= -.85967340E+03  d E =-.376047E-04  mag=     0.0000
quench:  g(F)=  0.000E+00 g(S)=  0.000E+00 dE (1.order)= 0.000E+00
 bond charge predicted
       N       E                     dE             d eps       ncg     rms          rms(c)
DAV:   1    -0.851794310333E+03   -0.46420E-04   -0.13233E-02  4360   0.215E-01    0.234E-02
DAV:   2    -0.851794329336E+03   -0.19003E-04   -0.25835E-04  4320   0.268E-02    0.186E-02
DAV:   3    -0.851794328231E+03    0.11053E-05   -0.41538E-06  5080   0.425E-03    0.142E-02
DAV:   4    -0.851794331856E+03   -0.36256E-05   -0.68787E-06  4080   0.561E-03    0.298E-03
DAV:   5    -0.851794332034E+03   -0.17806E-06   -0.16011E-06  3940   0.222E-03
  30 F= -.85967344E+03 E0= -.85967344E+03  d E =-.468126E-04  mag=    -0.0000
quench:  g(F)=  0.000E+00 g(S)=  0.000E+00 dE (1.order)= 0.000E+00
 bond charge predicted
       N       E                     dE             d eps       ncg     rms          rms(c)
DAV:   1    -0.851794381894E+03   -0.50038E-04   -0.18530E-02  4380   0.252E-01    0.260E-02
DAV:   2    -0.851794410836E+03   -0.28942E-04   -0.37939E-04  4320   0.325E-02    0.208E-02
DAV:   3    -0.851794408114E+03    0.27220E-05   -0.57030E-06  5120   0.500E-03    0.160E-02
DAV:   4    -0.851794411802E+03   -0.36880E-05   -0.12036E-05  4160   0.721E-03    0.343E-03
DAV:   5    -0.851794411921E+03   -0.11818E-06   -0.25609E-06  4140   0.287E-03
  31 F= -.85967350E+03 E0= -.85967350E+03  d E =-.528058E-04  mag=    -0.0000
quench:  g(F)=  0.000E+00 g(S)=  0.000E+00 dE (1.order)= 0.000E+00
 bond charge predicted
       N       E                     dE             d eps       ncg     rms          rms(c)
DAV:   1    -0.851794471792E+03   -0.59990E-04   -0.25360E-02  4360   0.294E-01    0.308E-02
DAV:   2    -0.851794510465E+03   -0.38673E-04   -0.51504E-04  4320   0.381E-02    0.248E-02
DAV:   3    -0.851794506571E+03    0.38937E-05   -0.80845E-06  5270   0.595E-03    0.191E-02
DAV:   4    -0.851794511992E+03   -0.54211E-05   -0.17066E-05  4200   0.845E-03    0.412E-03
DAV:   5    -0.851794512226E+03   -0.23362E-06   -0.36916E-06  4460   0.343E-03
  32 F= -.85967356E+03 E0= -.85967356E+03  d E =-.659738E-04  mag=    -0.0000
quench:  g(F)=  0.000E+00 g(S)=  0.000E+00 dE (1.order)= 0.000E+00
 bond charge predicted
       N       E                     dE             d eps       ncg     rms          rms(c)
DAV:   1    -0.851794582273E+03   -0.70280E-04   -0.34846E-02  4360   0.346E-01    0.365E-02
DAV:   2    -0.851794635874E+03   -0.53601E-04   -0.71064E-04  4320   0.449E-02    0.295E-02
DAV:   3    -0.851794630646E+03    0.52275E-05   -0.11591E-05  5400   0.710E-03    0.227E-02
DAV:   4    -0.851794637473E+03   -0.68262E-05   -0.23078E-05  4220   0.999E-03    0.487E-03
DAV:   5    -0.851794637793E+03   -0.32067E-06   -0.51672E-06  4880   0.405E-03
  33 F= -.85967365E+03 E0= -.85967365E+03  d E =-.837209E-04  mag=     0.0000
quench:  g(F)=  0.000E+00 g(S)=  0.000E+00 dE (1.order)= 0.000E+00
 bond charge predicted
       N       E                     dE             d eps       ncg     rms          rms(c)
DAV:   1    -0.851794678130E+03   -0.40657E-04   -0.55844E-02  4360   0.436E-01    0.457E-02
DAV:   2    -0.851794767577E+03   -0.89447E-04   -0.11752E-03  4380   0.569E-02    0.367E-02
DAV:   3    -0.851794758877E+03    0.86995E-05   -0.18431E-05  5400   0.886E-03    0.286E-02
DAV:   4    -0.851794769392E+03   -0.10514E-04   -0.38584E-05  4320   0.128E-02    0.621E-03
DAV:   5    -0.851794770077E+03   -0.68528E-06   -0.84267E-06  4980   0.512E-03
  34 F= -.85967374E+03 E0= -.85967374E+03  d E =-.911815E-04  mag=     0.0000
quench:  g(F)=  0.000E+00 g(S)=  0.000E+00 dE (1.order)= 0.000E+00
 bond charge predicted
       N       E                     dE             d eps       ncg     rms          rms(c)
DAV:   1    -0.851794768530E+03    0.86187E-06   -0.77804E-02  4360   0.525E-01    0.554E-02
DAV:   2    -0.851794893202E+03   -0.12467E-03   -0.16653E-03  4460   0.696E-02    0.456E-02
DAV:   3    -0.851794878923E+03    0.14279E-04   -0.32941E-05  5480   0.116E-02    0.353E-02
DAV:   4    -0.851794888966E+03   -0.10043E-04   -0.55682E-05  4380   0.159E-02    0.890E-03
DAV:   5    -0.851794890677E+03   -0.17110E-05   -0.12881E-05  4960   0.630E-03    0.534E-03
DAV:   6    -0.851794891044E+03   -0.36705E-06   -0.16079E-06  3040   0.255E-03
  35 F= -.85967380E+03 E0= -.85967380E+03  d E =-.629290E-04  mag=     0.0000
quench:  g(F)=  0.000E+00 g(S)=  0.000E+00 dE (1.order)= 0.000E+00
 bond charge predicted
       N       E                     dE             d eps       ncg     rms          rms(c)
DAV:   1    -0.851794971490E+03   -0.80813E-04   -0.36053E-03  4380   0.122E-01    0.147E-02
DAV:   2    -0.851794977546E+03   -0.60565E-05   -0.94343E-05  5190   0.179E-02    0.132E-02
DAV:   3    -0.851794975139E+03    0.24077E-05   -0.49438E-06  5080   0.427E-03    0.957E-03
DAV:   4    -0.851794973518E+03    0.16204E-05   -0.45571E-06  4240   0.456E-03    0.381E-03
DAV:   5    -0.851794973477E+03    0.41284E-07   -0.11786E-06  3020   0.200E-03
  36 F= -.85967388E+03 E0= -.85967388E+03  d E =-.811421E-04  mag=     0.0000
quench:  g(F)=  0.000E+00 g(S)=  0.000E+00 dE (1.order)= 0.000E+00
 bond charge predicted
       N       E                     dE             d eps       ncg     rms          rms(c)
DAV:   1    -0.851794929559E+03    0.43959E-04   -0.39337E-03  4340   0.128E-01    0.151E-02
DAV:   2    -0.851794936203E+03   -0.66438E-05   -0.98739E-05  5100   0.184E-02    0.133E-02
DAV:   3    -0.851794933980E+03    0.22231E-05   -0.50870E-06  5260   0.436E-03    0.966E-03
DAV:   4    -0.851794932756E+03    0.12236E-05   -0.47735E-06  4100   0.465E-03    0.390E-03
DAV:   5    -0.851794932748E+03    0.78071E-08   -0.11696E-06  2980   0.207E-03
  37 F= -.85967383E+03 E0= -.85967383E+03  d E =0.459098E-04  mag=     0.0000
quench:  g(F)=  0.000E+00 g(S)=  0.000E+00 dE (1.order)= 0.000E+00
 bond charge predicted
       N       E                     dE             d eps       ncg     rms          rms(c)
DAV:   1    -0.851794958548E+03   -0.25792E-04   -0.17080E-04  4320   0.267E-02    0.327E-03
DAV:   2    -0.851794958829E+03   -0.28072E-06   -0.47763E-06  4700   0.402E-03
  38 F= -.85967386E+03 E0= -.85967386E+03  d E =-.254915E-04  mag=     0.0000
quench:  g(F)=  0.000E+00 g(S)=  0.000E+00 dE (1.order)= 0.000E+00
 bond charge predicted
       N       E                     dE             d eps       ncg     rms          rms(c)
DAV:   1    -0.851794989359E+03   -0.30811E-04   -0.53379E-04  4320   0.471E-02    0.758E-03
DAV:   2    -0.851794989836E+03   -0.47687E-06   -0.13773E-05  5280   0.689E-03    0.664E-03
DAV:   3    -0.851794988987E+03    0.84915E-06   -0.14596E-06  2660   0.260E-03
  39 F= -.85967389E+03 E0= -.85967389E+03  d E =-.289442E-04  mag=    -0.0000
quench:  g(F)=  0.000E+00 g(S)=  0.000E+00 dE (1.order)= 0.000E+00
 bond charge predicted
       N       E                     dE             d eps       ncg     rms          rms(c)
DAV:   1    -0.851794998867E+03   -0.90307E-05   -0.75246E-04  4320   0.559E-02    0.763E-03
DAV:   2    -0.851795000070E+03   -0.12035E-05   -0.18181E-05  5360   0.787E-03    0.677E-03
DAV:   3    -0.851794999493E+03    0.57741E-06   -0.86332E-07  2780   0.202E-03
  40 F= -.85967390E+03 E0= -.85967390E+03  d E =-.841927E-05  mag=    -0.0000
quench:  g(F)=  0.000E+00 g(S)=  0.000E+00 dE (1.order)= 0.000E+00
 bond charge predicted
       N       E                     dE             d eps       ncg     rms          rms(c)
DAV:   1    -0.851794999848E+03    0.22261E-06   -0.28074E-06  3900   0.350E-03    0.167E-03
DAV:   2    -0.851794999837E+03    0.10819E-07   -0.33885E-07  2220   0.113E-03
  41 F= -.85967390E+03 E0= -.85967390E+03  d E =-.201880E-06  mag=    -0.0000
quench:  g(F)=  0.000E+00 g(S)=  0.000E+00 dE (1.order)= 0.000E+00
 bond charge predicted
       N       E                     dE             d eps       ncg     rms          rms(c)
DAV:   1    -0.851795000944E+03   -0.10962E-05   -0.23190E-06  2860   0.307E-03    0.914E-04
DAV:   2    -0.851795000955E+03   -0.10914E-07   -0.98223E-08  2220   0.666E-04
  42 F= -.85967390E+03 E0= -.85967390E+03  d E =-.852427E-06  mag=     0.0000
quench:  g(F)=  0.000E+00 g(S)=  0.000E+00 dE (1.order)= 0.000E+00
 bond charge predicted
       N       E                     dE             d eps       ncg     rms          rms(c)
DAV:   1    -0.851795002530E+03   -0.15858E-05   -0.51276E-06  4040   0.455E-03    0.921E-04
DAV:   2    -0.851795002540E+03   -0.10245E-07   -0.12239E-07  2190   0.696E-04
  43 F= -.85967390E+03 E0= -.85967390E+03  d E =-.119691E-05  mag=     0.0000
quench:  g(F)=  0.000E+00 g(S)=  0.000E+00 dE (1.order)= 0.000E+00
 bond charge predicted
       N       E                     dE             d eps       ncg     rms          rms(c)
DAV:   1    -0.851795004440E+03   -0.19103E-05   -0.83372E-06  4100   0.575E-03    0.114E-03
DAV:   2    -0.851795004450E+03   -0.94296E-08   -0.19063E-07  2190   0.863E-04
  44 F= -.85967390E+03 E0= -.85967390E+03  d E =-.140255E-05  mag=    -0.0000
quench:  g(F)=  0.000E+00 g(S)=  0.000E+00 dE (1.order)= 0.000E+00
 bond charge predicted
       N       E                     dE             d eps       ncg     rms          rms(c)
DAV:   1    -0.851795006626E+03   -0.21862E-05   -0.11809E-05  4140   0.680E-03    0.131E-03
DAV:   2    -0.851795006640E+03   -0.14006E-07   -0.25074E-07  2160   0.979E-04
  45 F= -.85967390E+03 E0= -.85967390E+03  d E =-.155619E-05  mag=    -0.0000
quench:  g(F)=  0.000E+00 g(S)=  0.000E+00 dE (1.order)= 0.000E+00
 bond charge predicted
       N       E                     dE             d eps       ncg     rms          rms(c)
DAV:   1    -0.851795009034E+03   -0.24079E-05   -0.15422E-05  4220   0.768E-03    0.145E-03
DAV:   2    -0.851795009051E+03   -0.17033E-07   -0.31043E-07  2280   0.107E-03
  46 F= -.85967390E+03 E0= -.85967390E+03  d E =-.164308E-05  mag=    -0.0000
quench:  g(F)=  0.000E+00 g(S)=  0.000E+00 dE (1.order)= 0.000E+00
 bond charge predicted
       N       E                     dE             d eps       ncg     rms          rms(c)
DAV:   1    -0.851795011813E+03   -0.27790E-05   -0.23420E-05  4240   0.931E-03    0.167E-03
DAV:   2    -0.851795011836E+03   -0.22432E-07   -0.44311E-07  2340   0.126E-03
  47 F= -.85967391E+03 E0= -.85967391E+03  d E =-.178329E-05  mag=     0.0000
quench:  g(F)=  0.000E+00 g(S)=  0.000E+00 dE (1.order)= 0.000E+00
 bond charge predicted
       N       E                     dE             d eps       ncg     rms          rms(c)
DAV:   1    -0.851795015393E+03   -0.35802E-05   -0.33292E-05  4280   0.109E-02    0.195E-03
DAV:   2    -0.851795015419E+03   -0.25226E-07   -0.58927E-07  2680   0.142E-03
  48 F= -.85967391E+03 E0= -.85967391E+03  d E =-.225349E-05  mag=    -0.0000
quench:  g(F)=  0.000E+00 g(S)=  0.000E+00 dE (1.order)= 0.000E+00
 bond charge predicted
       N       E                     dE             d eps       ncg     rms          rms(c)
DAV:   1    -0.851795020034E+03   -0.46402E-05   -0.47766E-05  4320   0.128E-02    0.228E-03
DAV:   2    -0.851795020062E+03   -0.28631E-07   -0.79844E-07  2880   0.162E-03
  49 F= -.85967391E+03 E0= -.85967391E+03  d E =-.292186E-05  mag=     0.0000
quench:  g(F)=  0.000E+00 g(S)=  0.000E+00 dE (1.order)= 0.000E+00
 bond charge predicted
       N       E                     dE             d eps       ncg     rms          rms(c)
DAV:   1    -0.851795026067E+03   -0.60336E-05   -0.71187E-05  4320   0.156E-02    0.272E-03
DAV:   2    -0.851795026102E+03   -0.34692E-07   -0.11813E-06  3020   0.196E-03
  50 F= -.85967392E+03 E0= -.85967392E+03  d E =-.384482E-05  mag=    -0.0000
quench:  g(F)=  0.000E+00 g(S)=  0.000E+00 dE (1.order)= 0.000E+00
 bond charge predicted
       N       E                     dE             d eps       ncg     rms          rms(c)
DAV:   1    -0.851795033768E+03   -0.77007E-05   -0.10921E-04  4320   0.193E-02    0.333E-03
DAV:   2    -0.851795033815E+03   -0.47534E-07   -0.18575E-06  3440   0.245E-03
  51 F= -.85967392E+03 E0= -.85967392E+03  d E =-.490743E-05  mag=     0.0000
quench:  g(F)=  0.000E+00 g(S)=  0.000E+00 dE (1.order)= 0.000E+00
 bond charge predicted
       N       E                     dE             d eps       ncg     rms          rms(c)
DAV:   1    -0.851795043462E+03   -0.96945E-05   -0.16906E-04  4360   0.241E-02    0.418E-03
DAV:   2    -0.851795043530E+03   -0.67688E-07   -0.29387E-06  3920   0.304E-03
  52 F= -.85967393E+03 E0= -.85967393E+03  d E =-.609686E-05  mag=     0.0000
quench:  g(F)=  0.000E+00 g(S)=  0.000E+00 dE (1.order)= 0.000E+00
 bond charge predicted
       N       E                     dE             d eps       ncg     rms          rms(c)
DAV:   1    -0.851795055310E+03   -0.11848E-04   -0.25746E-04  4360   0.296E-02    0.522E-03
DAV:   2    -0.851795055394E+03   -0.84416E-07   -0.43902E-06  4220   0.368E-03
  53 F= -.85967393E+03 E0= -.85967393E+03  d E =-.727878E-05  mag=    -0.0000
quench:  g(F)=  0.000E+00 g(S)=  0.000E+00 dE (1.order)= 0.000E+00
 bond charge predicted
       N       E                     dE             d eps       ncg     rms          rms(c)
DAV:   1    -0.851795069801E+03   -0.14491E-04   -0.38711E-04  4360   0.360E-02    0.638E-03
DAV:   2    -0.851795069919E+03   -0.11740E-06   -0.64410E-06  4300   0.443E-03
  54 F= -.85967394E+03 E0= -.85967394E+03  d E =-.880065E-05  mag=    -0.0000
quench:  g(F)=  0.000E+00 g(S)=  0.000E+00 dE (1.order)= 0.000E+00
 bond charge predicted
       N       E                     dE             d eps       ncg     rms          rms(c)
DAV:   1    -0.851795087644E+03   -0.17843E-04   -0.57801E-04  4360   0.439E-02    0.775E-03
DAV:   2    -0.851795087822E+03   -0.17830E-06   -0.95213E-06  4340   0.536E-03
  55 F= -.85967395E+03 E0= -.85967395E+03  d E =-.108820E-04  mag=     0.0000
quench:  g(F)=  0.000E+00 g(S)=  0.000E+00 dE (1.order)= 0.000E+00
 bond charge predicted
       N       E                     dE             d eps       ncg     rms          rms(c)
DAV:   1    -0.851795109863E+03   -0.22219E-04   -0.86831E-04  4360   0.539E-02    0.944E-03
DAV:   2    -0.851795110191E+03   -0.32816E-06   -0.14373E-05  4420   0.658E-03    0.790E-03
DAV:   3    -0.851795110419E+03   -0.22808E-06   -0.59189E-07  2940   0.174E-03
  56 F= -.85967397E+03 E0= -.85967397E+03  d E =-.137587E-04  mag=     0.0000
quench:  g(F)=  0.000E+00 g(S)=  0.000E+00 dE (1.order)= 0.000E+00
 bond charge predicted
       N       E                     dE             d eps       ncg     rms          rms(c)
DAV:   1    -0.851795136897E+03   -0.26706E-04   -0.13437E-03  4360   0.668E-02    0.780E-03
DAV:   2    -0.851795138304E+03   -0.14064E-05   -0.22651E-05  4380   0.809E-03    0.649E-03
DAV:   3    -0.851795138214E+03    0.89152E-07   -0.35691E-07  3160   0.136E-03
  57 F= -.85967398E+03 E0= -.85967398E+03  d E =-.166403E-04  mag=     0.0000
quench:  g(F)=  0.000E+00 g(S)=  0.000E+00 dE (1.order)= 0.000E+00
 bond charge predicted
       N       E                     dE             d eps       ncg     rms          rms(c)
DAV:   1    -0.851795171061E+03   -0.32758E-04   -0.20204E-03  4360   0.812E-02    0.943E-03
DAV:   2    -0.851795173101E+03   -0.20395E-05   -0.33444E-05  4400   0.977E-03    0.790E-03
DAV:   3    -0.851795172867E+03    0.23391E-06   -0.56024E-07  3320   0.167E-03
  58 F= -.85967400E+03 E0= -.85967400E+03  d E =-.204986E-04  mag=    -0.0000
quench:  g(F)=  0.000E+00 g(S)=  0.000E+00 dE (1.order)= 0.000E+00
 bond charge predicted
       N       E                     dE             d eps       ncg     rms          rms(c)
DAV:   1    -0.851795213605E+03   -0.40504E-04   -0.30657E-03  4360   0.995E-02    0.116E-02
DAV:   2    -0.851795216650E+03   -0.30448E-05   -0.50167E-05  4380   0.119E-02    0.978E-03
DAV:   3    -0.851795216281E+03    0.36912E-06   -0.85331E-07  3700   0.202E-03
  59 F= -.85967403E+03 E0= -.85967403E+03  d E =-.258576E-04  mag=     0.0000
quench:  g(F)=  0.000E+00 g(S)=  0.000E+00 dE (1.order)= 0.000E+00
 bond charge predicted
       N       E                     dE             d eps       ncg     rms          rms(c)
DAV:   1    -0.851795265082E+03   -0.48432E-04   -0.44978E-03  4360   0.120E-01    0.141E-02
DAV:   2    -0.851795269382E+03   -0.43001E-05   -0.71887E-05  4400   0.143E-02    0.119E-02
DAV:   3    -0.851795268839E+03    0.54317E-06   -0.13234E-06  3940   0.247E-03
  60 F= -.85967406E+03 E0= -.85967406E+03  d E =-.315377E-04  mag=    -0.0000
quench:  g(F)=  0.000E+00 g(S)=  0.000E+00 dE (1.order)= 0.000E+00
 bond charge predicted
       N       E                     dE             d eps       ncg     rms          rms(c)
DAV:   1    -0.851795327946E+03   -0.58564E-04   -0.64183E-03  4360   0.143E-01    0.172E-02
DAV:   2    -0.851795333581E+03   -0.56357E-05   -0.99285E-05  4400   0.169E-02    0.146E-02
DAV:   3    -0.851795332822E+03    0.75960E-06   -0.20579E-06  4220   0.304E-03
  61 F= -.85967410E+03 E0= -.85967410E+03  d E =-.378596E-04  mag=     0.0000
quench:  g(F)=  0.000E+00 g(S)=  0.000E+00 dE (1.order)= 0.000E+00
 bond charge predicted
       N       E                     dE             d eps       ncg     rms          rms(c)
DAV:   1    -0.851795409299E+03   -0.75718E-04   -0.93654E-03  4360   0.170E-01    0.211E-02
DAV:   2    -0.851795416745E+03   -0.74465E-05   -0.13979E-04  4440   0.199E-02    0.180E-02
DAV:   3    -0.851795415575E+03    0.11699E-05   -0.31542E-06  4520   0.370E-03    0.130E-02
DAV:   4    -0.851795419679E+03   -0.41039E-05   -0.67788E-06  4040   0.503E-03    0.254E-03
DAV:   5    -0.851795419653E+03    0.26783E-07   -0.14944E-06  3770   0.215E-03
  62 F= -.85967415E+03 E0= -.85967415E+03  d E =-.512135E-04  mag=    -0.0000
quench:  g(F)=  0.000E+00 g(S)=  0.000E+00 dE (1.order)= 0.000E+00
 bond charge predicted
       N       E                     dE             d eps       ncg     rms          rms(c)
DAV:   1    -0.851795506972E+03   -0.87293E-04   -0.13201E-02  4360   0.201E-01    0.244E-02
DAV:   2    -0.851795518915E+03   -0.11943E-04   -0.20972E-04  4420   0.245E-02    0.210E-02
DAV:   3    -0.851795515980E+03    0.29342E-05   -0.50084E-06  4900   0.466E-03    0.153E-02
DAV:   4    -0.851795520345E+03   -0.43649E-05   -0.10865E-05  4140   0.638E-03    0.324E-03
DAV:   5    -0.851795520392E+03   -0.46333E-07   -0.24120E-06  4040   0.273E-03
  63 F= -.85967421E+03 E0= -.85967421E+03  d E =-.553530E-04  mag=     0.0000
quench:  g(F)=  0.000E+00 g(S)=  0.000E+00 dE (1.order)= 0.000E+00
 bond charge predicted
       N       E                     dE             d eps       ncg     rms          rms(c)
DAV:   1    -0.851795620810E+03   -0.10046E-03   -0.19138E-02  4360   0.238E-01    0.291E-02
DAV:   2    -0.851795638176E+03   -0.17366E-04   -0.30791E-04  4480   0.289E-02    0.252E-02
DAV:   3    -0.851795633695E+03    0.44818E-05   -0.70429E-06  5100   0.547E-03    0.187E-02
DAV:   4    -0.851795640448E+03   -0.67534E-05   -0.16715E-05  4260   0.774E-03    0.397E-03
DAV:   5    -0.851795640594E+03   -0.14582E-06   -0.35311E-06  4380   0.328E-03
  64 F= -.85967427E+03 E0= -.85967427E+03  d E =-.670349E-04  mag=    -0.0000
quench:  g(F)=  0.000E+00 g(S)=  0.000E+00 dE (1.order)= 0.000E+00
 bond charge predicted
       N       E                     dE             d eps       ncg     rms          rms(c)
DAV:   1    -0.851795753238E+03   -0.11279E-03   -0.27412E-02  4360   0.283E-01    0.349E-02
DAV:   2    -0.851795778807E+03   -0.25569E-04   -0.44609E-04  4440   0.343E-02    0.300E-02
DAV:   3    -0.851795772335E+03    0.64717E-05   -0.95527E-06  5220   0.635E-03    0.224E-02
DAV:   4    -0.851795782484E+03   -0.10148E-04   -0.24411E-05  4200   0.928E-03    0.457E-03
DAV:   5    -0.851795782632E+03   -0.14846E-06   -0.50766E-06  4820   0.389E-03
  65 F= -.85967435E+03 E0= -.85967435E+03  d E =-.765295E-04  mag=    -0.0000
quench:  g(F)=  0.000E+00 g(S)=  0.000E+00 dE (1.order)= 0.000E+00
 bond charge predicted
       N       E                     dE             d eps       ncg     rms          rms(c)
DAV:   1    -0.851795909745E+03   -0.12726E-03   -0.34725E-02  4340   0.327E-01    0.403E-02
DAV:   2    -0.851795942607E+03   -0.32862E-04   -0.56529E-04  4420   0.401E-02    0.345E-02
DAV:   3    -0.851795935092E+03    0.75151E-05   -0.13714E-05  5240   0.773E-03    0.253E-02
DAV:   4    -0.851795947125E+03   -0.12032E-04   -0.28084E-05  4300   0.104E-02    0.536E-03
DAV:   5    -0.851795947208E+03   -0.83041E-07   -0.67119E-06  4940   0.466E-03
  66 F= -.85967444E+03 E0= -.85967444E+03  d E =-.912946E-04  mag=    -0.0000
quench:  g(F)=  0.000E+00 g(S)=  0.000E+00 dE (1.order)= 0.000E+00
 bond charge predicted
       N       E                     dE             d eps       ncg     rms          rms(c)
DAV:   1    -0.851796067234E+03   -0.12011E-03   -0.60964E-02  4340   0.422E-01    0.508E-02
DAV:   2    -0.851796135148E+03   -0.67914E-04   -0.10925E-03  4460   0.528E-02    0.434E-02
DAV:   3    -0.851796120502E+03    0.14646E-04   -0.20832E-05  5320   0.919E-03    0.335E-02
DAV:   4    -0.851796142224E+03   -0.21722E-04   -0.59371E-05  4440   0.143E-02    0.692E-03
DAV:   5    -0.851796142854E+03   -0.63012E-06   -0.11109E-05  4980   0.560E-03    0.465E-03
DAV:   6    -0.851796143550E+03   -0.69616E-06   -0.14055E-06  3340   0.237E-03
  67 F= -.85967455E+03 E0= -.85967455E+03  d E =-.105801E-03  mag=     0.0000
quench:  g(F)=  0.000E+00 g(S)=  0.000E+00 dE (1.order)= 0.000E+00
 bond charge predicted
       N       E                     dE             d eps       ncg     rms          rms(c)
DAV:   1    -0.851796219980E+03   -0.77126E-04   -0.72373E-02  4340   0.498E-01    0.585E-02
DAV:   2    -0.851796303623E+03   -0.83643E-04   -0.13075E-03  4500   0.638E-02    0.506E-02
DAV:   3    -0.851796286259E+03    0.17364E-04   -0.37543E-05  5400   0.124E-02    0.376E-02
DAV:   4    -0.851796302707E+03   -0.16448E-04   -0.58256E-05  4420   0.159E-02    0.952E-03
DAV:   5    -0.851796303681E+03   -0.97406E-06   -0.14319E-05  4860   0.678E-03    0.524E-03
DAV:   6    -0.851796304185E+03   -0.50366E-06   -0.19590E-06  3420   0.256E-03
  68 F= -.85967461E+03 E0= -.85967461E+03  d E =-.679506E-04  mag=     0.0000
quench:  g(F)=  0.000E+00 g(S)=  0.000E+00 dE (1.order)= 0.000E+00
 bond charge predicted
       N       E                     dE             d eps       ncg     rms          rms(c)
DAV:   1    -0.851796406709E+03   -0.10303E-03   -0.50589E-03  4380   0.142E-01    0.159E-02
DAV:   2    -0.851796415818E+03   -0.91089E-05   -0.13425E-04  4920   0.210E-02    0.144E-02
DAV:   3    -0.851796413381E+03    0.24368E-05   -0.50838E-06  5050   0.427E-03    0.114E-02
DAV:   4    -0.851796411627E+03    0.17539E-05   -0.66469E-06  4240   0.532E-03    0.464E-03
DAV:   5    -0.851796411718E+03   -0.91422E-07   -0.14826E-06  3510   0.224E-03
  69 F= -.85967471E+03 E0= -.85967471E+03  d E =-.100133E-03  mag=     0.0000
quench:  g(F)=  0.000E+00 g(S)=  0.000E+00 dE (1.order)= 0.000E+00
 bond charge predicted
       N       E                     dE             d eps       ncg     rms          rms(c)
DAV:   1    -0.851796357445E+03    0.54182E-04   -0.55729E-03  4320   0.148E-01    0.162E-02
DAV:   2    -0.851796367608E+03   -0.10163E-04   -0.14262E-04  4920   0.214E-02    0.142E-02
DAV:   3    -0.851796365364E+03    0.22448E-05   -0.47348E-06  4960   0.422E-03    0.112E-02
DAV:   4    -0.851796364390E+03    0.97388E-06   -0.69918E-06  4240   0.541E-03
  70 F= -.85967466E+03 E0= -.85967466E+03  d E =0.594233E-04  mag=     0.0000
quench:  g(F)=  0.000E+00 g(S)=  0.000E+00 dE (1.order)= 0.000E+00
 bond charge predicted
       N       E                     dE             d eps       ncg     rms          rms(c)
DAV:   1    -0.851796398171E+03   -0.32807E-04   -0.23465E-04  4360   0.313E-02    0.314E-03
DAV:   2    -0.851796398736E+03   -0.56448E-06   -0.74076E-06  4960   0.497E-03
  71 F= -.85967469E+03 E0= -.85967469E+03  d E =-.346179E-04  mag=     0.0000
quench:  g(F)=  0.000E+00 g(S)=  0.000E+00 dE (1.order)= 0.000E+00
 bond charge predicted
       N       E                     dE             d eps       ncg     rms          rms(c)
DAV:   1    -0.851796436077E+03   -0.37906E-04   -0.72173E-04  4420   0.549E-02    0.770E-03
DAV:   2    -0.851796436941E+03   -0.86367E-06   -0.19226E-05  5260   0.815E-03    0.689E-03
DAV:   3    -0.851796436179E+03    0.76113E-06   -0.13349E-06  2760   0.242E-03
  72 F= -.85967473E+03 E0= -.85967473E+03  d E =-.378561E-04  mag=    -0.0000
quench:  g(F)=  0.000E+00 g(S)=  0.000E+00 dE (1.order)= 0.000E+00
 bond charge predicted
       N       E                     dE             d eps       ncg     rms          rms(c)
DAV:   1    -0.851796442897E+03   -0.59563E-05   -0.97085E-04  4440   0.639E-02    0.852E-03
DAV:   2    -0.851796444489E+03   -0.15923E-05   -0.23945E-05  5140   0.912E-03    0.762E-03
DAV:   3    -0.851796443884E+03    0.60563E-06   -0.10847E-06  3010   0.221E-03
  73 F= -.85967474E+03 E0= -.85967474E+03  d E =-.776772E-05  mag=     0.0000
quench:  g(F)=  0.000E+00 g(S)=  0.000E+00 dE (1.order)= 0.000E+00
 bond charge predicted
       N       E                     dE             d eps       ncg     rms          rms(c)
DAV:   1    -0.851796444532E+03   -0.42848E-07   -0.50698E-06  4080   0.458E-03    0.197E-03
DAV:   2    -0.851796444525E+03    0.74579E-08   -0.50283E-07  2360   0.137E-03
  74 F= -.85967474E+03 E0= -.85967474E+03  d E =-.477690E-06  mag=     0.0000
quench:  g(F)=  0.000E+00 g(S)=  0.000E+00 dE (1.order)= 0.000E+00
 bond charge predicted
       N       E                     dE             d eps       ncg     rms          rms(c)
DAV:   1    -0.851796446356E+03   -0.18239E-05   -0.54781E-06  4020   0.457E-03    0.949E-04
DAV:   2    -0.851796446365E+03   -0.93642E-08   -0.14618E-07  2160   0.738E-04
  75 F= -.85967474E+03 E0= -.85967474E+03  d E =-.150205E-05  mag=    -0.0000
quench:  g(F)=  0.000E+00 g(S)=  0.000E+00 dE (1.order)= 0.000E+00
 bond charge predicted
       N       E                     dE             d eps       ncg     rms          rms(c)
DAV:   1    -0.851796448895E+03   -0.25392E-05   -0.12229E-05  4080   0.683E-03    0.105E-03
DAV:   2    -0.851796448906E+03   -0.10732E-07   -0.29969E-07  2280   0.103E-03
  76 F= -.85967474E+03 E0= -.85967474E+03  d E =-.202783E-05  mag=     0.0000
quench:  g(F)=  0.000E+00 g(S)=  0.000E+00 dE (1.order)= 0.000E+00
 bond charge predicted
       N       E                     dE             d eps       ncg     rms          rms(c)
DAV:   1    -0.851796451846E+03   -0.29504E-05   -0.20265E-05  4220   0.870E-03    0.148E-03
DAV:   2    -0.851796451859E+03   -0.13701E-07   -0.47083E-07  2350   0.127E-03
  77 F= -.85967474E+03 E0= -.85967474E+03  d E =-.227493E-05  mag=     0.0000
quench:  g(F)=  0.000E+00 g(S)=  0.000E+00 dE (1.order)= 0.000E+00
 bond charge predicted
       N       E                     dE             d eps       ncg     rms          rms(c)
DAV:   1    -0.851796455021E+03   -0.31760E-05   -0.28499E-05  4240   0.102E-02    0.181E-03
DAV:   2    -0.851796455043E+03   -0.21901E-07   -0.63096E-07  2510   0.144E-03
  78 F= -.85967474E+03 E0= -.85967474E+03  d E =-.237810E-05  mag=     0.0000
quench:  g(F)=  0.000E+00 g(S)=  0.000E+00 dE (1.order)= 0.000E+00
 bond charge predicted
       N       E                     dE             d eps       ncg     rms          rms(c)
DAV:   1    -0.851796458439E+03   -0.34179E-05   -0.36794E-05  4280   0.115E-02    0.206E-03
DAV:   2    -0.851796458469E+03   -0.29344E-07   -0.78725E-07  2840   0.158E-03
  79 F= -.85967475E+03 E0= -.85967475E+03  d E =-.247672E-05  mag=    -0.0000
quench:  g(F)=  0.000E+00 g(S)=  0.000E+00 dE (1.order)= 0.000E+00
 bond charge predicted
       N       E                     dE             d eps       ncg     rms          rms(c)
DAV:   1    -0.851796462235E+03   -0.37957E-05   -0.54435E-05  4300   0.137E-02    0.236E-03
DAV:   2    -0.851796462283E+03   -0.47941E-07   -0.11449E-06  2950   0.184E-03
  80 F= -.85967475E+03 E0= -.85967475E+03  d E =-.259831E-05  mag=    -0.0000
quench:  g(F)=  0.000E+00 g(S)=  0.000E+00 dE (1.order)= 0.000E+00
 bond charge predicted
       N       E                     dE             d eps       ncg     rms          rms(c)
DAV:   1    -0.851796466846E+03   -0.46108E-05   -0.77669E-05  4320   0.161E-02    0.275E-03
DAV:   2    -0.851796466918E+03   -0.72403E-07   -0.16167E-06  3240   0.211E-03
  81 F= -.85967475E+03 E0= -.85967475E+03  d E =-.310798E-05  mag=     0.0000
quench:  g(F)=  0.000E+00 g(S)=  0.000E+00 dE (1.order)= 0.000E+00
 bond charge predicted
       N       E                     dE             d eps       ncg     rms          rms(c)
DAV:   1    -0.851796472635E+03   -0.57891E-05   -0.99783E-05  4320   0.180E-02    0.316E-03
DAV:   2    -0.851796472722E+03   -0.87450E-07   -0.20034E-06  3400   0.231E-03
  82 F= -.85967476E+03 E0= -.85967476E+03  d E =-.374708E-05  mag=     0.0000
quench:  g(F)=  0.000E+00 g(S)=  0.000E+00 dE (1.order)= 0.000E+00
 bond charge predicted
       N       E                     dE             d eps       ncg     rms          rms(c)
DAV:   1    -0.851796480451E+03   -0.78155E-05   -0.13546E-04  4320   0.211E-02    0.369E-03
DAV:   2    -0.851796480568E+03   -0.11750E-06   -0.26783E-06  3600   0.270E-03
  83 F= -.85967476E+03 E0= -.85967476E+03  d E =-.520316E-05  mag=    -0.0000
quench:  g(F)=  0.000E+00 g(S)=  0.000E+00 dE (1.order)= 0.000E+00
 bond charge predicted
       N       E                     dE             d eps       ncg     rms          rms(c)
DAV:   1    -0.851796490540E+03   -0.10090E-04   -0.19368E-04  4320   0.255E-02    0.445E-03
DAV:   2    -0.851796490721E+03   -0.18052E-06   -0.39114E-06  4260   0.331E-03
  84 F= -.85967477E+03 E0= -.85967477E+03  d E =-.667854E-05  mag=     0.0000
quench:  g(F)=  0.000E+00 g(S)=  0.000E+00 dE (1.order)= 0.000E+00
 bond charge predicted
       N       E                     dE             d eps       ncg     rms          rms(c)
DAV:   1    -0.851796502772E+03   -0.12232E-04   -0.28355E-04  4340   0.310E-02    0.551E-03
DAV:   2    -0.851796503036E+03   -0.26405E-06   -0.57223E-06  4480   0.402E-03
  85 F= -.85967478E+03 E0= -.85967478E+03  d E =-.776645E-05  mag=    -0.0000
quench:  g(F)=  0.000E+00 g(S)=  0.000E+00 dE (1.order)= 0.000E+00
 bond charge predicted
       N       E                     dE             d eps       ncg     rms          rms(c)
DAV:   1    -0.851796517840E+03   -0.15067E-04   -0.40683E-04  4360   0.369E-02    0.679E-03
DAV:   2    -0.851796518170E+03   -0.33000E-06   -0.79652E-06  4600   0.476E-03
  86 F= -.85967479E+03 E0= -.85967479E+03  d E =-.925660E-05  mag=     0.0000
quench:  g(F)=  0.000E+00 g(S)=  0.000E+00 dE (1.order)= 0.000E+00
 bond charge predicted
       N       E                     dE             d eps       ncg     rms          rms(c)
DAV:   1    -0.851796536373E+03   -0.18534E-04   -0.60376E-04  4340   0.443E-02    0.825E-03
DAV:   2    -0.851796536787E+03   -0.41378E-06   -0.11506E-05  4460   0.569E-03    0.675E-03
DAV:   3    -0.851796536973E+03   -0.18554E-06   -0.30428E-07  2890   0.130E-03
  87 F= -.85967480E+03 E0= -.85967480E+03  d E =-.112515E-04  mag=     0.0000
quench:  g(F)=  0.000E+00 g(S)=  0.000E+00 dE (1.order)= 0.000E+00
 bond charge predicted
       N       E                     dE             d eps       ncg     rms          rms(c)
DAV:   1    -0.851796559919E+03   -0.23132E-04   -0.86722E-04  4360   0.519E-02    0.649E-03
DAV:   2    -0.851796561007E+03   -0.10880E-05   -0.15786E-05  4340   0.647E-03    0.510E-03
DAV:   3    -0.851796560938E+03    0.69362E-07   -0.20206E-07  3200   0.103E-03
  88 F= -.85967481E+03 E0= -.85967481E+03  d E =-.139361E-04  mag=     0.0000
quench:  g(F)=  0.000E+00 g(S)=  0.000E+00 dE (1.order)= 0.000E+00
 bond charge predicted
       N       E                     dE             d eps       ncg     rms          rms(c)
DAV:   1    -0.851796589516E+03   -0.28509E-04   -0.13008E-03  4360   0.623E-02    0.791E-03
DAV:   2    -0.851796591088E+03   -0.15721E-05   -0.23757E-05  4340   0.779E-03    0.633E-03
DAV:   3    -0.851796590890E+03    0.19831E-06   -0.33848E-07  3360   0.129E-03
  89 F= -.85967483E+03 E0= -.85967483E+03  d E =-.168735E-04  mag=     0.0000
quench:  g(F)=  0.000E+00 g(S)=  0.000E+00 dE (1.order)= 0.000E+00
 bond charge predicted
       N       E                     dE             d eps       ncg     rms          rms(c)
DAV:   1    -0.851796625876E+03   -0.34788E-04   -0.19107E-03  4360   0.743E-02    0.974E-03
DAV:   2    -0.851796627911E+03   -0.20344E-05   -0.33832E-05  4400   0.914E-03    0.784E-03
DAV:   3    -0.851796627617E+03    0.29364E-06   -0.50688E-07  3580   0.155E-03
  90 F= -.85967485E+03 E0= -.85967485E+03  d E =-.196337E-04  mag=    -0.0000
quench:  g(F)=  0.000E+00 g(S)=  0.000E+00 dE (1.order)= 0.000E+00
 bond charge predicted
       N       E                     dE             d eps       ncg     rms          rms(c)
DAV:   1    -0.851796671373E+03   -0.43463E-04   -0.26601E-03  4340   0.870E-02    0.116E-02
DAV:   2    -0.851796673973E+03   -0.25999E-05   -0.45769E-05  4400   0.106E-02    0.939E-03
DAV:   3    -0.851796673606E+03    0.36694E-06   -0.70863E-07  3700   0.183E-03
  91 F= -.85967487E+03 E0= -.85967487E+03  d E =-.242092E-04  mag=     0.0000
quench:  g(F)=  0.000E+00 g(S)=  0.000E+00 dE (1.order)= 0.000E+00
 bond charge predicted
       N       E                     dE             d eps       ncg     rms          rms(c)
DAV:   1    -0.851796723847E+03   -0.49874E-04   -0.35038E-03  4340   0.101E-01    0.135E-02
DAV:   2    -0.851796727142E+03   -0.32949E-05   -0.58619E-05  4400   0.123E-02    0.110E-02
DAV:   3    -0.851796726720E+03    0.42195E-06   -0.10028E-06  3780   0.216E-03
  92 F= -.85967490E+03 E0= -.85967490E+03  d E =-.271766E-04  mag=    -0.0000
quench:  g(F)=  0.000E+00 g(S)=  0.000E+00 dE (1.order)= 0.000E+00
 bond charge predicted
       N       E                     dE             d eps       ncg     rms          rms(c)
DAV:   1    -0.851796783772E+03   -0.56630E-04   -0.47028E-03  4340   0.117E-01    0.158E-02
DAV:   2    -0.851796787920E+03   -0.41478E-05   -0.75589E-05  4400   0.140E-02    0.129E-02
DAV:   3    -0.851796787387E+03    0.53280E-06   -0.13652E-06  3820   0.249E-03
  93 F= -.85967493E+03 E0= -.85967493E+03  d E =-.296799E-04  mag=     0.0000
quench:  g(F)=  0.000E+00 g(S)=  0.000E+00 dE (1.order)= 0.000E+00
 bond charge predicted
       N       E                     dE             d eps       ncg     rms          rms(c)
DAV:   1    -0.851796853132E+03   -0.65212E-04   -0.72944E-03  4340   0.142E-01    0.191E-02
DAV:   2    -0.851796859689E+03   -0.65577E-05   -0.11918E-04  4400   0.170E-02    0.157E-02
DAV:   3    -0.851796858573E+03    0.11168E-05   -0.20541E-06  4100   0.293E-03    0.118E-02
DAV:   4    -0.851796862918E+03   -0.43457E-05   -0.56392E-06  3980   0.437E-03    0.219E-03
DAV:   5    -0.851796862897E+03    0.21180E-07   -0.10405E-06  3600   0.178E-03
  94 F= -.85967497E+03 E0= -.85967497E+03  d E =-.386768E-04  mag=     0.0000
quench:  g(F)=  0.000E+00 g(S)=  0.000E+00 dE (1.order)= 0.000E+00
 bond charge predicted
       N       E                     dE             d eps       ncg     rms          rms(c)
DAV:   1    -0.851796932021E+03   -0.69102E-04   -0.11004E-02  4360   0.171E-01    0.223E-02
DAV:   2    -0.851796944210E+03   -0.12190E-04   -0.19845E-04  4320   0.213E-02    0.183E-02
DAV:   3    -0.851796941382E+03    0.28278E-05   -0.32271E-06  4480   0.363E-03    0.141E-02
DAV:   4    -0.851796946867E+03   -0.54849E-05   -0.10506E-05  4080   0.583E-03    0.277E-03
DAV:   5    -0.851796946841E+03    0.26208E-07   -0.18612E-06  3800   0.234E-03
  95 F= -.85967501E+03 E0= -.85967501E+03  d E =-.408967E-04  mag=     0.0000
quench:  g(F)=  0.000E+00 g(S)=  0.000E+00 dE (1.order)= 0.000E+00
 bond charge predicted
       N       E                     dE             d eps       ncg     rms          rms(c)
DAV:   1    -0.851797023541E+03   -0.76674E-04   -0.13605E-02  4360   0.192E-01    0.254E-02
DAV:   2    -0.851797038125E+03   -0.14584E-04   -0.23901E-04  4340   0.239E-02    0.207E-02
DAV:   3    -0.851797034983E+03    0.31413E-05   -0.41691E-06  4580   0.415E-03    0.158E-02
DAV:   4    -0.851797041720E+03   -0.67361E-05   -0.11683E-05  4160   0.634E-03    0.311E-03
DAV:   5    -0.851797041668E+03    0.51739E-07   -0.22424E-06  3900   0.265E-03
  96 F= -.85967505E+03 E0= -.85967505E+03  d E =-.454687E-04  mag=     0.0000
quench:  g(F)=  0.000E+00 g(S)=  0.000E+00 dE (1.order)= 0.000E+00
 bond charge predicted
       N       E                     dE             d eps       ncg     rms          rms(c)
DAV:   1    -0.851797125370E+03   -0.83650E-04   -0.15898E-02  4360   0.213E-01    0.276E-02
DAV:   2    -0.851797141781E+03   -0.16412E-04   -0.27007E-04  4380   0.265E-02    0.232E-02
DAV:   3    -0.851797138413E+03    0.33683E-05   -0.54748E-06  4720   0.487E-03    0.173E-02
DAV:   4    -0.851797145659E+03   -0.72458E-05   -0.12736E-05  4200   0.683E-03    0.385E-03
DAV:   5    -0.851797145645E+03    0.14108E-07   -0.27301E-06  4100   0.307E-03
  97 F= -.85967510E+03 E0= -.85967510E+03  d E =-.481882E-04  mag=    -0.0000
quench:  g(F)=  0.000E+00 g(S)=  0.000E+00 dE (1.order)= 0.000E+00
 bond charge predicted
       N       E                     dE             d eps       ncg     rms          rms(c)
DAV:   1    -0.851797233313E+03   -0.87654E-04   -0.26666E-02  4380   0.269E-01    0.340E-02
DAV:   2    -0.851797264147E+03   -0.30833E-04   -0.48881E-04  4380   0.337E-02    0.282E-02
DAV:   3    -0.851797257410E+03    0.67365E-05   -0.75721E-06  5060   0.553E-03    0.219E-02
DAV:   4    -0.851797270205E+03   -0.12795E-04   -0.25409E-05  4280   0.902E-03    0.425E-03
DAV:   5    -0.851797270264E+03   -0.58528E-07   -0.46010E-06  4540   0.359E-03
  98 F= -.85967516E+03 E0= -.85967516E+03  d E =-.590239E-04  mag=     0.0000
quench:  g(F)=  0.000E+00 g(S)=  0.000E+00 dE (1.order)= 0.000E+00
 bond charge predicted
       N       E                     dE             d eps       ncg     rms          rms(c)
DAV:   1    -0.851797363975E+03   -0.93770E-04   -0.30981E-02  4380   0.306E-01    0.381E-02
DAV:   2    -0.851797399650E+03   -0.35675E-04   -0.55580E-04  4400   0.385E-02    0.315E-02
DAV:   3    -0.851797393598E+03    0.60528E-05   -0.10557E-05  5200   0.673E-03    0.238E-02
DAV:   4    -0.851797406276E+03   -0.12679E-04   -0.22900E-05  4180   0.945E-03    0.479E-03
DAV:   5    -0.851797406451E+03   -0.17503E-06   -0.50399E-06  4840   0.395E-03
  99 F= -.85967523E+03 E0= -.85967523E+03  d E =-.654106E-04  mag=     0.0000
quench:  g(F)=  0.000E+00 g(S)=  0.000E+00 dE (1.order)= 0.000E+00
 bond charge predicted
       N       E                     dE             d eps       ncg     rms          rms(c)
DAV:   1    -0.851797480283E+03   -0.74007E-04   -0.46678E-02  4380   0.381E-01    0.447E-02
DAV:   2    -0.851797539709E+03   -0.59426E-04   -0.88431E-04  4420   0.487E-02    0.374E-02
DAV:   3    -0.851797529732E+03    0.99769E-05   -0.16760E-05  5400   0.837E-03    0.287E-02
DAV:   4    -0.851797545528E+03   -0.15795E-04   -0.37446E-05  4460   0.120E-02    0.683E-03
DAV:   5    -0.851797546391E+03   -0.86337E-06   -0.77382E-06  4940   0.492E-03
 100 F= -.85967529E+03 E0= -.85967529E+03  d E =-.612028E-04  mag=    -0.0000
quench:  g(F)=  0.000E+00 g(S)=  0.000E+00 dE (1.order)= 0.000E+00
 bond charge predicted
       N       E                     dE             d eps       ncg     rms          rms(c)
DAV:   1    -0.851797520184E+03    0.25344E-04   -0.75067E-02  4360   0.508E-01    0.564E-02
DAV:   2    -0.851797635478E+03   -0.11529E-03   -0.15891E-03  4480   0.678E-02    0.466E-02
DAV:   3    -0.851797618997E+03    0.16480E-04   -0.36035E-05  5580   0.120E-02    0.360E-02
DAV:   4    -0.851797631556E+03   -0.12559E-04   -0.54497E-05  4480   0.156E-02    0.106E-02
DAV:   5    -0.851797634451E+03   -0.28948E-05   -0.12967E-05  4860   0.623E-03    0.568E-03
DAV:   6    -0.851797634945E+03   -0.49418E-06   -0.17638E-06  3200   0.258E-03
 101 F= -.85967530E+03 E0= -.85967530E+03  d E =-.997050E-05  mag=     0.0000
quench:  g(F)=  0.000E+00 g(S)=  0.000E+00 dE (1.order)= 0.000E+00
 bond charge predicted
       N       E                     dE             d eps       ncg     rms          rms(c)
DAV:   1    -0.851797746134E+03   -0.11168E-03   -0.57389E-03  4320   0.155E-01    0.181E-02
DAV:   2    -0.851797756135E+03   -0.10002E-04   -0.15272E-04  5310   0.230E-02    0.163E-02
DAV:   3    -0.851797752658E+03    0.34773E-05   -0.79877E-06  5580   0.530E-03    0.121E-02
DAV:   4    -0.851797750181E+03    0.24773E-05   -0.64666E-06  4260   0.539E-03    0.548E-03
DAV:   5    -0.851797750047E+03    0.13421E-06   -0.17725E-06  3130   0.247E-03
 102 F= -.85967541E+03 E0= -.85967541E+03  d E =-.114435E-03  mag=     0.0000
quench:  g(F)=  0.000E+00 g(S)=  0.000E+00 dE (1.order)= 0.000E+00
 bond charge predicted
       N       E                     dE             d eps       ncg     rms          rms(c)
DAV:   1    -0.851797667599E+03    0.82582E-04   -0.56378E-03  4320   0.153E-01    0.173E-02
DAV:   2    -0.851797678378E+03   -0.10779E-04   -0.14856E-04  5220   0.227E-02    0.150E-02
DAV:   3    -0.851797675787E+03    0.25902E-05   -0.67203E-06  5500   0.492E-03    0.113E-02
DAV:   4    -0.851797674064E+03    0.17232E-05   -0.56210E-06  4240   0.501E-03    0.512E-03
DAV:   5    -0.851797674038E+03    0.26317E-07   -0.14168E-06  3160   0.226E-03
 103 F= -.85967533E+03 E0= -.85967533E+03  d E =0.772124E-04  mag=    -0.0000
quench:  g(F)=  0.000E+00 g(S)=  0.000E+00 dE (1.order)= 0.000E+00
 bond charge predicted
       N       E                     dE             d eps       ncg     rms          rms(c)
DAV:   1    -0.851797714328E+03   -0.40263E-04   -0.29573E-04  4320   0.351E-02    0.417E-03
DAV:   2    -0.851797714819E+03   -0.49119E-06   -0.81648E-06  5300   0.529E-03
 104 F= -.85967538E+03 E0= -.85967538E+03  d E =-.410753E-04  mag=     0.0000
quench:  g(F)=  0.000E+00 g(S)=  0.000E+00 dE (1.order)= 0.000E+00
 bond charge predicted
       N       E                     dE             d eps       ncg     rms          rms(c)
DAV:   1    -0.851797758775E+03   -0.44448E-04   -0.90649E-04  4320   0.614E-02    0.970E-03
DAV:   2    -0.851797759638E+03   -0.86280E-06   -0.23315E-05  5400   0.903E-03    0.844E-03
DAV:   3    -0.851797758401E+03    0.12372E-05   -0.26467E-06  3990   0.330E-03    0.506E-03
DAV:   4    -0.851797758154E+03    0.24695E-06   -0.12354E-06  2640   0.231E-03
 105 F= -.85967542E+03 E0= -.85967542E+03  d E =-.438025E-04  mag=    -0.0000
quench:  g(F)=  0.000E+00 g(S)=  0.000E+00 dE (1.order)= 0.000E+00
 bond charge predicted
       N       E                     dE             d eps       ncg     rms          rms(c)
DAV:   1    -0.851797763476E+03   -0.50755E-05   -0.12656E-03  4320   0.727E-02    0.850E-03
DAV:   2    -0.851797765913E+03   -0.24368E-05   -0.33547E-05  5300   0.108E-02    0.753E-03
DAV:   3    -0.851797765256E+03    0.65738E-06   -0.14321E-06  3310   0.243E-03
 106 F= -.85967543E+03 E0= -.85967543E+03  d E =-.747537E-05  mag=     0.0000
quench:  g(F)=  0.000E+00 g(S)=  0.000E+00 dE (1.order)= 0.000E+00
 bond charge predicted
       N       E                     dE             d eps       ncg     rms          rms(c)
DAV:   1    -0.851797765688E+03    0.22483E-06   -0.53752E-06  4080   0.469E-03    0.236E-03
DAV:   2    -0.851797765687E+03    0.16662E-08   -0.53262E-07  2240   0.144E-03
 107 F= -.85967543E+03 E0= -.85967543E+03  d E =-.410552E-06  mag=     0.0000
quench:  g(F)=  0.000E+00 g(S)=  0.000E+00 dE (1.order)= 0.000E+00
 bond charge predicted
       N       E                     dE             d eps       ncg     rms          rms(c)
DAV:   1    -0.851797767259E+03   -0.15708E-05   -0.56822E-06  4060   0.486E-03    0.849E-04
DAV:   2    -0.851797767273E+03   -0.14508E-07   -0.16484E-07  2220   0.783E-04
 108 F= -.85967543E+03 E0= -.85967543E+03  d E =-.153564E-05  mag=    -0.0000
quench:  g(F)=  0.000E+00 g(S)=  0.000E+00 dE (1.order)= 0.000E+00
 bond charge predicted
       N       E                     dE             d eps       ncg     rms          rms(c)
DAV:   1    -0.851797769334E+03   -0.20752E-05   -0.12299E-05  4260   0.713E-03    0.917E-04
DAV:   2    -0.851797769354E+03   -0.20089E-07   -0.31788E-07  2260   0.110E-03
 109 F= -.85967543E+03 E0= -.85967543E+03  d E =-.200601E-05  mag=    -0.0000
quench:  g(F)=  0.000E+00 g(S)=  0.000E+00 dE (1.order)= 0.000E+00
 bond charge predicted
       N       E                     dE             d eps       ncg     rms          rms(c)
DAV:   1    -0.851797771533E+03   -0.21991E-05   -0.19975E-05  4420   0.904E-03    0.142E-03
DAV:   2    -0.851797771554E+03   -0.20955E-07   -0.49014E-07  2400   0.135E-03
 110 F= -.85967543E+03 E0= -.85967543E+03  d E =-.212272E-05  mag=    -0.0000
quench:  g(F)=  0.000E+00 g(S)=  0.000E+00 dE (1.order)= 0.000E+00
 bond charge predicted
       N       E                     dE             d eps       ncg     rms          rms(c)
DAV:   1    -0.851797773525E+03   -0.19922E-05   -0.27356E-05  4360   0.105E-02    0.173E-03
DAV:   2    -0.851797773555E+03   -0.29664E-07   -0.62731E-07  2580   0.150E-03
 111 F= -.85967543E+03 E0= -.85967543E+03  d E =-.193948E-05  mag=     0.0000
quench:  g(F)=  0.000E+00 g(S)=  0.000E+00 dE (1.order)= 0.000E+00
 bond charge predicted
       N       E                     dE             d eps       ncg     rms          rms(c)
DAV:   1    -0.851797775329E+03   -0.18033E-05   -0.34450E-05  4320   0.116E-02    0.192E-03
DAV:   2    -0.851797775370E+03   -0.41167E-07   -0.77671E-07  2560   0.163E-03
 112 F= -.85967544E+03 E0= -.85967544E+03  d E =-.175692E-05  mag=     0.0000
quench:  g(F)=  0.000E+00 g(S)=  0.000E+00 dE (1.order)= 0.000E+00
 bond charge predicted
       N       E                     dE             d eps       ncg     rms          rms(c)
DAV:   1    -0.851797777086E+03   -0.17576E-05   -0.49697E-05  4320   0.137E-02    0.213E-03
DAV:   2    -0.851797777156E+03   -0.69449E-07   -0.11207E-06  3030   0.188E-03
 113 F= -.85967544E+03 E0= -.85967544E+03  d E =-.172891E-05  mag=    -0.0000
quench:  g(F)=  0.000E+00 g(S)=  0.000E+00 dE (1.order)= 0.000E+00
 bond charge predicted
       N       E                     dE             d eps       ncg     rms          rms(c)
DAV:   1    -0.851797779052E+03   -0.19662E-05   -0.66694E-05  4320   0.155E-02    0.238E-03
DAV:   2    -0.851797779151E+03   -0.98626E-07   -0.14880E-06  3070   0.210E-03
 114 F= -.85967544E+03 E0= -.85967544E+03  d E =-.187520E-05  mag=    -0.0000
quench:  g(F)=  0.000E+00 g(S)=  0.000E+00 dE (1.order)= 0.000E+00
 bond charge predicted
       N       E                     dE             d eps       ncg     rms          rms(c)
DAV:   1    -0.851797781775E+03   -0.27229E-05   -0.88971E-05  4320   0.177E-02    0.265E-03
DAV:   2    -0.851797781911E+03   -0.13601E-06   -0.19506E-06  3330   0.234E-03
 115 F= -.85967544E+03 E0= -.85967544E+03  d E =-.256922E-05  mag=     0.0000
quench:  g(F)=  0.000E+00 g(S)=  0.000E+00 dE (1.order)= 0.000E+00
 bond charge predicted
       N       E                     dE             d eps       ncg     rms          rms(c)
DAV:   1    -0.851797785659E+03   -0.38841E-05   -0.12599E-04  4320   0.210E-02    0.304E-03
DAV:   2    -0.851797785868E+03   -0.20902E-06   -0.27865E-06  3840   0.276E-03
 116 F= -.85967545E+03 E0= -.85967545E+03  d E =-.367196E-05  mag=    -0.0000
quench:  g(F)=  0.000E+00 g(S)=  0.000E+00 dE (1.order)= 0.000E+00
 bond charge predicted
       N       E                     dE             d eps       ncg     rms          rms(c)
DAV:   1    -0.851797790599E+03   -0.49400E-05   -0.17535E-04  4360   0.250E-02    0.366E-03
DAV:   2    -0.851797790876E+03   -0.27663E-06   -0.38204E-06  4050   0.325E-03
 117 F= -.85967545E+03 E0= -.85967545E+03  d E =-.453503E-05  mag=     0.0000
quench:  g(F)=  0.000E+00 g(S)=  0.000E+00 dE (1.order)= 0.000E+00
 bond charge predicted
       N       E                     dE             d eps       ncg     rms          rms(c)
DAV:   1    -0.851797796723E+03   -0.61238E-05   -0.25353E-04  4380   0.302E-02    0.452E-03
DAV:   2    -0.851797797097E+03   -0.37418E-06   -0.54569E-06  4510   0.392E-03
 118 F= -.85967546E+03 E0= -.85967546E+03  d E =-.536320E-05  mag=     0.0000
quench:  g(F)=  0.000E+00 g(S)=  0.000E+00 dE (1.order)= 0.000E+00
 bond charge predicted
       N       E                     dE             d eps       ncg     rms          rms(c)
DAV:   1    -0.851797803487E+03   -0.67643E-05   -0.36730E-04  4360   0.363E-02    0.553E-03
DAV:   2    -0.851797804001E+03   -0.51403E-06   -0.78239E-06  4460   0.470E-03
 119 F= -.85967546E+03 E0= -.85967546E+03  d E =-.566471E-05  mag=     0.0000
quench:  g(F)=  0.000E+00 g(S)=  0.000E+00 dE (1.order)= 0.000E+00
 bond charge predicted
       N       E                     dE             d eps       ncg     rms          rms(c)
DAV:   1    -0.851797811895E+03   -0.84074E-05   -0.52561E-04  4360   0.431E-02    0.659E-03
DAV:   2    -0.851797812611E+03   -0.71585E-06   -0.10977E-05  4380   0.551E-03    0.532E-03
DAV:   3    -0.851797812619E+03   -0.78726E-08   -0.23761E-07  2840   0.114E-03
 120 F= -.85967547E+03 E0= -.85967547E+03  d E =-.696851E-05  mag=     0.0000
quench:  g(F)=  0.000E+00 g(S)=  0.000E+00 dE (1.order)= 0.000E+00
 bond charge predicted
       N       E                     dE             d eps       ncg     rms          rms(c)
DAV:   1    -0.851797822758E+03   -0.10148E-04   -0.76089E-04  4360   0.516E-02    0.518E-03
DAV:   2    -0.851797824091E+03   -0.13322E-05   -0.15552E-05  4340   0.645E-03    0.381E-03
DAV:   3    -0.851797824073E+03    0.17411E-07   -0.16368E-07  2460   0.925E-04
 121 F= -.85967548E+03 E0= -.85967548E+03  d E =-.955695E-05  mag=    -0.0000
quench:  g(F)=  0.000E+00 g(S)=  0.000E+00 dE (1.order)= 0.000E+00
 bond charge predicted
       N       E                     dE             d eps       ncg     rms          rms(c)
DAV:   1    -0.851797835731E+03   -0.11640E-04   -0.11696E-03  4380   0.641E-02    0.627E-03
DAV:   2    -0.851797837832E+03   -0.21010E-05   -0.24629E-05  4360   0.814E-03    0.464E-03
DAV:   3    -0.851797837766E+03    0.66437E-07   -0.27126E-07  2840   0.118E-03
 122 F= -.85967549E+03 E0= -.85967549E+03  d E =-.118009E-04  mag=    -0.0000
quench:  g(F)=  0.000E+00 g(S)=  0.000E+00 dE (1.order)= 0.000E+00
 bond charge predicted
       N       E                     dE             d eps       ncg     rms          rms(c)
DAV:   1    -0.851797849549E+03   -0.11717E-04   -0.17877E-03  4380   0.790E-02    0.772E-03
DAV:   2    -0.851797852783E+03   -0.32339E-05   -0.37738E-05  4320   0.100E-02    0.569E-03
DAV:   3    -0.851797852688E+03    0.95490E-07   -0.39405E-07  3140   0.141E-03
 123 F= -.85967550E+03 E0= -.85967550E+03  d E =-.132492E-04  mag=    -0.0000
quench:  g(F)=  0.000E+00 g(S)=  0.000E+00 dE (1.order)= 0.000E+00
 bond charge predicted
       N       E                     dE             d eps       ncg     rms          rms(c)
DAV:   1    -0.851797865025E+03   -0.12242E-04   -0.25568E-03  4380   0.943E-02    0.913E-03
DAV:   2    -0.851797869652E+03   -0.46267E-05   -0.53579E-05  4340   0.119E-02    0.667E-03
DAV:   3    -0.851797869538E+03    0.11375E-06   -0.53580E-07  3400   0.165E-03
 124 F= -.85967552E+03 E0= -.85967552E+03  d E =-.158283E-04  mag=     0.0000
quench:  g(F)=  0.000E+00 g(S)=  0.000E+00 dE (1.order)= 0.000E+00
 reached required accuracy - stopping structural energy minimisation
