  98  98   0   0
  0.3953964E+02  0.1727104E-08  0.1727104E-08  0.1500000E-08  0.1000000E-15
   1.0000000000000000E-004
  CAR 
 unknown system                          
      5.71277892    -25.47928511  301     -2.38732398      1.00000000
    -25.479  0.0000E+00  0.0000E+00  0.0000E+00  0.0000E+00
    -25.375  0.0000E+00  0.0000E+00  0.0000E+00  0.0000E+00
    -25.271  0.0000E+00  0.0000E+00  0.0000E+00  0.0000E+00
    -25.167  0.0000E+00  0.0000E+00  0.0000E+00  0.0000E+00
    -25.063  0.0000E+00  0.0000E+00  0.0000E+00  0.0000E+00
    -24.959  0.0000E+00  0.0000E+00  0.0000E+00  0.0000E+00
    -24.855  0.0000E+00  0.0000E+00  0.0000E+00  0.0000E+00
    -24.751  0.0000E+00  0.0000E+00  0.0000E+00  0.0000E+00
    -24.647  0.0000E+00  0.0000E+00  0.0000E+00  0.0000E+00
    -24.544  0.0000E+00  0.0000E+00  0.0000E+00  0.0000E+00
    -24.440  0.0000E+00  0.0000E+00  0.0000E+00  0.0000E+00
    -24.336  0.1429E-15  0.1429E-15  0.1486E-16  0.1486E-16
    -24.232  0.2387E-07  0.2387E-07  0.2482E-08  0.2482E-08
    -24.128  0.9813E-03  0.9813E-03  0.1020E-03  0.1020E-03
    -24.024  0.2651E-01  0.2651E-01  0.2858E-02  0.2858E-02
    -23.920  0.4569E-02  0.4569E-02  0.3333E-02  0.3333E-02
    -23.816  0.9744E-06  0.9744E-06  0.3333E-02  0.3333E-02
    -23.712  0.5833E-13  0.5833E-13  0.3333E-02  0.3333E-02
    -23.608  0.0000E+00  0.0000E+00  0.3333E-02  0.3333E-02
    -23.504  0.0000E+00  0.0000E+00  0.3333E-02  0.3333E-02
    -23.400  0.0000E+00  0.0000E+00  0.3333E-02  0.3333E-02
    -23.296  0.0000E+00  0.0000E+00  0.3333E-02  0.3333E-02
    -23.192  0.0000E+00  0.0000E+00  0.3333E-02  0.3333E-02
    -23.088  0.0000E+00  0.0000E+00  0.3333E-02  0.3333E-02
    -22.984  0.0000E+00  0.0000E+00  0.3333E-02  0.3333E-02
    -22.880  0.0000E+00  0.0000E+00  0.3333E-02  0.3333E-02
    -22.776  0.0000E+00  0.0000E+00  0.3333E-02  0.3333E-02
    -22.672  0.0000E+00  0.0000E+00  0.3333E-02  0.3333E-02
    -22.568  0.0000E+00  0.0000E+00  0.3333E-02  0.3333E-02
    -22.464  0.4493E-13  0.4493E-13  0.3333E-02  0.3333E-02
    -22.360  0.8320E-06  0.8320E-06  0.3333E-02  0.3333E-02
    -22.256  0.4304E-02  0.4304E-02  0.3781E-02  0.3781E-02
    -22.152  0.2669E-01  0.2669E-01  0.6556E-02  0.6556E-02
    -22.048  0.1069E-02  0.1069E-02  0.6667E-02  0.6667E-02
    -21.944  0.2890E-07  0.2890E-07  0.6667E-02  0.6667E-02
    -21.840  0.9441E-07  0.9441E-07  0.6667E-02  0.6667E-02
    -21.736  0.1294E-02  0.1294E-02  0.6801E-02  0.6801E-02
    -21.632  0.2559E-01  0.2559E-01  0.9462E-02  0.9462E-02
    -21.528  0.2251E-01  0.2251E-01  0.1180E-01  0.1180E-01
    -21.424  0.1359E-01  0.1359E-01  0.1322E-01  0.1322E-01
    -21.320  0.2301E-01  0.2301E-01  0.1561E-01  0.1561E-01
    -21.216  0.1882E-01  0.1882E-01  0.1757E-01  0.1757E-01
    -21.112  0.2348E-01  0.2348E-01  0.2001E-01  0.2001E-01
    -21.008  0.2036E-01  0.2036E-01  0.2212E-01  0.2212E-01
    -20.904  0.1545E-01  0.1545E-01  0.2373E-01  0.2373E-01
    -20.800  0.3460E-01  0.3460E-01  0.2733E-01  0.2733E-01
    -20.697  0.1430E-01  0.1430E-01  0.2881E-01  0.2881E-01
    -20.593  0.2357E-01  0.2357E-01  0.3127E-01  0.3127E-01
    -20.489  0.2598E-01  0.2598E-01  0.3397E-01  0.3397E-01
    -20.385  0.1527E-01  0.1527E-01  0.3555E-01  0.3555E-01
    -20.281  0.2751E-01  0.2751E-01  0.3841E-01  0.3841E-01
    -20.177  0.2806E-01  0.2806E-01  0.4133E-01  0.4133E-01
    -20.073  0.1330E-01  0.1330E-01  0.4271E-01  0.4271E-01
    -19.969  0.1880E-01  0.1880E-01  0.4467E-01  0.4467E-01
    -19.865  0.3071E-01  0.3071E-01  0.4786E-01  0.4786E-01
    -19.761  0.2725E-01  0.2725E-01  0.5070E-01  0.5070E-01
    -19.657  0.1891E-01  0.1891E-01  0.5266E-01  0.5266E-01
    -19.553  0.1551E-01  0.1551E-01  0.5427E-01  0.5427E-01
    -19.449  0.3001E-01  0.3001E-01  0.5739E-01  0.5739E-01
    -19.345  0.2782E-01  0.2782E-01  0.6029E-01  0.6029E-01
    -19.241  0.1994E-01  0.1994E-01  0.6236E-01  0.6236E-01
    -19.137  0.2162E-01  0.2162E-01  0.6461E-01  0.6461E-01
    -19.033  0.2013E-01  0.2013E-01  0.6670E-01  0.6670E-01
    -18.929  0.3654E-01  0.3654E-01  0.7050E-01  0.7050E-01
    -18.825  0.1417E-01  0.1417E-01  0.7197E-01  0.7197E-01
    -18.721  0.2241E-01  0.2241E-01  0.7430E-01  0.7430E-01
    -18.617  0.1928E-01  0.1928E-01  0.7631E-01  0.7631E-01
    -18.513  0.3567E-01  0.3567E-01  0.8002E-01  0.8002E-01
    -18.409  0.2972E-01  0.2972E-01  0.8311E-01  0.8311E-01
    -18.305  0.1290E-01  0.1290E-01  0.8445E-01  0.8445E-01
    -18.201  0.1832E-01  0.1832E-01  0.8635E-01  0.8635E-01
    -18.097  0.2330E-01  0.2330E-01  0.8878E-01  0.8878E-01
    -17.993  0.3493E-01  0.3493E-01  0.9241E-01  0.9241E-01
    -17.889  0.3392E-01  0.3392E-01  0.9594E-01  0.9594E-01
    -17.785  0.1838E-01  0.1838E-01  0.9785E-01  0.9785E-01
    -17.681  0.1475E-01  0.1475E-01  0.9938E-01  0.9938E-01
    -17.577  0.2649E-01  0.2649E-01  0.1021E+00  0.1021E+00
    -17.473  0.2712E-01  0.2712E-01  0.1050E+00  0.1050E+00
    -17.369  0.3791E-01  0.3791E-01  0.1089E+00  0.1089E+00
    -17.265  0.2159E-01  0.2159E-01  0.1111E+00  0.1111E+00
    -17.161  0.2507E-01  0.2507E-01  0.1137E+00  0.1137E+00
    -17.057  0.2195E-01  0.2195E-01  0.1160E+00  0.1160E+00
    -16.953  0.2274E-01  0.2274E-01  0.1184E+00  0.1184E+00
    -16.849  0.3780E-01  0.3780E-01  0.1223E+00  0.1223E+00
    -16.746  0.4512E-01  0.4512E-01  0.1270E+00  0.1270E+00
    -16.642  0.2452E-01  0.2452E-01  0.1296E+00  0.1296E+00
    -16.538  0.2117E-01  0.2117E-01  0.1318E+00  0.1318E+00
    -16.434  0.1589E-01  0.1589E-01  0.1334E+00  0.1334E+00
    -16.330  0.3004E-01  0.3004E-01  0.1365E+00  0.1365E+00
    -16.226  0.2708E-01  0.2708E-01  0.1394E+00  0.1394E+00
    -16.122  0.1310E-01  0.1310E-01  0.1407E+00  0.1407E+00
    -16.018  0.1152E-01  0.1152E-01  0.1419E+00  0.1419E+00
    -15.914  0.1341E-01  0.1341E-01  0.1433E+00  0.1433E+00
    -15.810  0.2258E-01  0.2258E-01  0.1457E+00  0.1457E+00
    -15.706  0.1403E-01  0.1403E-01  0.1471E+00  0.1471E+00
    -15.602  0.6778E-02  0.6778E-02  0.1478E+00  0.1478E+00
    -15.498  0.9557E-02  0.9557E-02  0.1488E+00  0.1488E+00
    -15.394  0.2223E-01  0.2223E-01  0.1511E+00  0.1511E+00
    -15.290  0.1889E-01  0.1889E-01  0.1531E+00  0.1531E+00
    -15.186  0.3486E-01  0.3486E-01  0.1567E+00  0.1567E+00
    -15.082  0.2290E-01  0.2290E-01  0.1591E+00  0.1591E+00
    -14.978  0.2632E-01  0.2632E-01  0.1618E+00  0.1618E+00
    -14.874  0.2783E-01  0.2783E-01  0.1647E+00  0.1647E+00
    -14.770  0.3203E-01  0.3203E-01  0.1681E+00  0.1681E+00
    -14.666  0.2757E-01  0.2757E-01  0.1709E+00  0.1709E+00
    -14.562  0.3410E-01  0.3410E-01  0.1745E+00  0.1745E+00
    -14.458  0.3467E-01  0.3467E-01  0.1781E+00  0.1781E+00
    -14.354  0.2285E-01  0.2285E-01  0.1804E+00  0.1804E+00
    -14.250  0.3038E-01  0.3038E-01  0.1836E+00  0.1836E+00
    -14.146  0.2685E-01  0.2685E-01  0.1864E+00  0.1864E+00
    -14.042  0.2539E-01  0.2539E-01  0.1890E+00  0.1890E+00
    -13.938  0.2620E-01  0.2620E-01  0.1918E+00  0.1918E+00
    -13.834  0.2818E-01  0.2818E-01  0.1947E+00  0.1947E+00
    -13.730  0.1397E-01  0.1397E-01  0.1961E+00  0.1961E+00
    -13.626  0.2113E-01  0.2113E-01  0.1983E+00  0.1983E+00
    -13.522  0.2822E-01  0.2822E-01  0.2013E+00  0.2013E+00
    -13.418  0.3136E-01  0.3136E-01  0.2045E+00  0.2045E+00
    -13.314  0.1783E-01  0.1783E-01  0.2064E+00  0.2064E+00
    -13.210  0.2798E-01  0.2798E-01  0.2093E+00  0.2093E+00
    -13.106  0.1858E-01  0.1858E-01  0.2112E+00  0.2112E+00
    -13.002  0.1638E-01  0.1638E-01  0.2129E+00  0.2129E+00
    -12.898  0.1590E-01  0.1590E-01  0.2146E+00  0.2146E+00
    -12.795  0.2329E-01  0.2329E-01  0.2170E+00  0.2170E+00
    -12.691  0.2127E-01  0.2127E-01  0.2192E+00  0.2192E+00
    -12.587  0.2959E-01  0.2959E-01  0.2223E+00  0.2223E+00
    -12.483  0.2894E-01  0.2894E-01  0.2253E+00  0.2253E+00
    -12.379  0.4107E-01  0.4107E-01  0.2296E+00  0.2296E+00
    -12.275  0.2507E-01  0.2507E-01  0.2322E+00  0.2322E+00
    -12.171  0.2365E-01  0.2365E-01  0.2346E+00  0.2346E+00
    -12.067  0.2493E-01  0.2493E-01  0.2372E+00  0.2372E+00
    -11.963  0.2522E-01  0.2522E-01  0.2399E+00  0.2399E+00
    -11.859  0.5253E-01  0.5253E-01  0.2453E+00  0.2453E+00
    -11.755  0.4067E-01  0.4067E-01  0.2495E+00  0.2495E+00
    -11.651  0.2433E-01  0.2433E-01  0.2521E+00  0.2521E+00
    -11.547  0.2735E-01  0.2735E-01  0.2549E+00  0.2549E+00
    -11.443  0.3096E-01  0.3096E-01  0.2581E+00  0.2581E+00
    -11.339  0.3061E-01  0.3061E-01  0.2613E+00  0.2613E+00
    -11.235  0.3272E-01  0.3272E-01  0.2647E+00  0.2647E+00
    -11.131  0.3942E-01  0.3942E-01  0.2688E+00  0.2688E+00
    -11.027  0.2450E-01  0.2450E-01  0.2714E+00  0.2714E+00
    -10.923  0.2200E-01  0.2200E-01  0.2737E+00  0.2737E+00
    -10.819  0.2664E-01  0.2664E-01  0.2764E+00  0.2764E+00
    -10.715  0.3751E-01  0.3751E-01  0.2803E+00  0.2803E+00
    -10.611  0.4373E-01  0.4373E-01  0.2849E+00  0.2849E+00
    -10.507  0.3101E-01  0.3101E-01  0.2881E+00  0.2881E+00
    -10.403  0.2692E-01  0.2692E-01  0.2909E+00  0.2909E+00
    -10.299  0.2435E-01  0.2435E-01  0.2934E+00  0.2934E+00
    -10.195  0.3112E-01  0.3112E-01  0.2967E+00  0.2967E+00
    -10.091  0.3627E-01  0.3627E-01  0.3004E+00  0.3004E+00
     -9.987  0.4488E-01  0.4488E-01  0.3051E+00  0.3051E+00
     -9.883  0.3814E-01  0.3814E-01  0.3091E+00  0.3091E+00
     -9.779  0.5355E-01  0.5355E-01  0.3146E+00  0.3146E+00
     -9.675  0.5624E-01  0.5624E-01  0.3205E+00  0.3205E+00
     -9.571  0.5254E-01  0.5254E-01  0.3259E+00  0.3259E+00
     -9.467  0.5708E-01  0.5708E-01  0.3319E+00  0.3319E+00
     -9.363  0.6550E-01  0.6550E-01  0.3387E+00  0.3387E+00
     -9.259  0.5670E-01  0.5670E-01  0.3446E+00  0.3446E+00
     -9.155  0.5376E-01  0.5376E-01  0.3502E+00  0.3502E+00
     -9.051  0.8080E-01  0.8080E-01  0.3586E+00  0.3586E+00
     -8.947  0.6179E-01  0.6179E-01  0.3650E+00  0.3650E+00
     -8.844  0.6845E-01  0.6845E-01  0.3721E+00  0.3721E+00
     -8.740  0.8464E-01  0.8464E-01  0.3809E+00  0.3809E+00
     -8.636  0.8030E-01  0.8030E-01  0.3893E+00  0.3893E+00
     -8.532  0.7268E-01  0.7268E-01  0.3968E+00  0.3968E+00
     -8.428  0.7362E-01  0.7362E-01  0.4045E+00  0.4045E+00
     -8.324  0.6217E-01  0.6217E-01  0.4109E+00  0.4109E+00
     -8.220  0.6349E-01  0.6349E-01  0.4175E+00  0.4175E+00
     -8.116  0.7109E-01  0.7109E-01  0.4249E+00  0.4249E+00
     -8.012  0.7568E-01  0.7568E-01  0.4328E+00  0.4328E+00
     -7.908  0.6150E-01  0.6150E-01  0.4392E+00  0.4392E+00
     -7.804  0.3938E-01  0.3938E-01  0.4433E+00  0.4433E+00
     -7.700  0.5873E-01  0.5873E-01  0.4494E+00  0.4494E+00
     -7.596  0.7272E-01  0.7272E-01  0.4570E+00  0.4570E+00
     -7.492  0.4569E-01  0.4569E-01  0.4617E+00  0.4617E+00
     -7.388  0.3986E-01  0.3986E-01  0.4659E+00  0.4659E+00
     -7.284  0.4334E-01  0.4334E-01  0.4704E+00  0.4704E+00
     -7.180  0.5591E-01  0.5591E-01  0.4762E+00  0.4762E+00
     -7.076  0.5947E-01  0.5947E-01  0.4824E+00  0.4824E+00
     -6.972  0.5232E-01  0.5232E-01  0.4878E+00  0.4878E+00
     -6.868  0.3594E-01  0.3594E-01  0.4915E+00  0.4915E+00
     -6.764  0.3745E-01  0.3745E-01  0.4954E+00  0.4954E+00
     -6.660  0.5239E-01  0.5239E-01  0.5009E+00  0.5009E+00
     -6.556  0.6138E-01  0.6138E-01  0.5073E+00  0.5073E+00
     -6.452  0.2949E-01  0.2949E-01  0.5103E+00  0.5103E+00
     -6.348  0.3799E-01  0.3799E-01  0.5143E+00  0.5143E+00
     -6.244  0.4624E-01  0.4624E-01  0.5191E+00  0.5191E+00
     -6.140  0.5410E-01  0.5410E-01  0.5247E+00  0.5247E+00
     -6.036  0.5992E-01  0.5992E-01  0.5309E+00  0.5309E+00
     -5.932  0.5042E-01  0.5042E-01  0.5362E+00  0.5362E+00
     -5.828  0.3712E-01  0.3712E-01  0.5400E+00  0.5400E+00
     -5.724  0.3696E-01  0.3696E-01  0.5439E+00  0.5439E+00
     -5.620  0.5593E-01  0.5593E-01  0.5497E+00  0.5497E+00
     -5.516  0.5228E-01  0.5228E-01  0.5551E+00  0.5551E+00
     -5.412  0.2551E-01  0.2551E-01  0.5578E+00  0.5578E+00
     -5.308  0.1805E-01  0.1805E-01  0.5597E+00  0.5597E+00
     -5.204  0.2827E-01  0.2827E-01  0.5626E+00  0.5626E+00
     -5.100  0.2275E-01  0.2275E-01  0.5650E+00  0.5650E+00
     -4.996  0.2723E-01  0.2723E-01  0.5678E+00  0.5678E+00
     -4.893  0.3995E-01  0.3995E-01  0.5720E+00  0.5720E+00
     -4.789  0.3692E-01  0.3692E-01  0.5758E+00  0.5758E+00
     -4.685  0.4021E-01  0.4021E-01  0.5800E+00  0.5800E+00
     -4.581  0.2405E-01  0.2405E-01  0.5825E+00  0.5825E+00
     -4.477  0.4008E-01  0.4008E-01  0.5866E+00  0.5866E+00
     -4.373  0.5736E-01  0.5736E-01  0.5926E+00  0.5926E+00
     -4.269  0.2098E-01  0.2098E-01  0.5948E+00  0.5948E+00
     -4.165  0.1926E-01  0.1926E-01  0.5968E+00  0.5968E+00
     -4.061  0.1319E-01  0.1319E-01  0.5982E+00  0.5982E+00
     -3.957  0.1686E-01  0.1686E-01  0.5999E+00  0.5999E+00
     -3.853  0.2134E-01  0.2134E-01  0.6021E+00  0.6021E+00
     -3.749  0.1497E-01  0.1497E-01  0.6037E+00  0.6037E+00
     -3.645  0.1217E-01  0.1217E-01  0.6050E+00  0.6050E+00
     -3.541  0.5651E-02  0.5651E-02  0.6055E+00  0.6055E+00
     -3.437  0.1387E-01  0.1387E-01  0.6070E+00  0.6070E+00
     -3.333  0.1061E-01  0.1061E-01  0.6081E+00  0.6081E+00
     -3.229  0.1394E-01  0.1394E-01  0.6095E+00  0.6095E+00
     -3.125  0.8595E-02  0.8595E-02  0.6104E+00  0.6104E+00
     -3.021  0.2957E-02  0.2957E-02  0.6107E+00  0.6107E+00
     -2.917  0.3249E-02  0.3249E-02  0.6111E+00  0.6111E+00
     -2.813  0.7420E-02  0.7420E-02  0.6118E+00  0.6118E+00
     -2.709  0.6071E-02  0.6071E-02  0.6125E+00  0.6125E+00
     -2.605  0.1255E-02  0.1255E-02  0.6126E+00  0.6126E+00
     -2.501  0.3608E-02  0.3608E-02  0.6130E+00  0.6130E+00
     -2.397  0.3295E-02  0.3295E-02  0.6133E+00  0.6133E+00
     -2.293  0.2462E-02  0.2462E-02  0.6136E+00  0.6136E+00
     -2.189  0.4121E-02  0.4121E-02  0.6140E+00  0.6140E+00
     -2.085  0.1552E-02  0.1552E-02  0.6142E+00  0.6142E+00
     -1.981  0.5312E-02  0.5312E-02  0.6147E+00  0.6147E+00
     -1.877  0.8672E-02  0.8672E-02  0.6156E+00  0.6156E+00
     -1.773  0.3533E-02  0.3533E-02  0.6160E+00  0.6160E+00
     -1.669  0.5718E-02  0.5718E-02  0.6166E+00  0.6166E+00
     -1.565  0.1033E-01  0.1033E-01  0.6177E+00  0.6177E+00
     -1.461  0.1341E-01  0.1341E-01  0.6191E+00  0.6191E+00
     -1.357  0.1550E-01  0.1550E-01  0.6207E+00  0.6207E+00
     -1.253  0.1199E-01  0.1199E-01  0.6219E+00  0.6219E+00
     -1.149  0.1937E-01  0.1937E-01  0.6239E+00  0.6239E+00
     -1.046  0.1683E-01  0.1683E-01  0.6257E+00  0.6257E+00
     -0.942  0.3247E-02  0.3247E-02  0.6260E+00  0.6260E+00
     -0.838  0.1908E-01  0.1908E-01  0.6280E+00  0.6280E+00
     -0.734  0.4239E-01  0.4239E-01  0.6324E+00  0.6324E+00
     -0.630  0.2426E-01  0.2426E-01  0.6349E+00  0.6349E+00
     -0.526  0.3149E-01  0.3149E-01  0.6382E+00  0.6382E+00
     -0.422  0.5104E-01  0.5104E-01  0.6435E+00  0.6435E+00
     -0.318  0.3591E-01  0.3591E-01  0.6472E+00  0.6472E+00
     -0.214  0.2521E-01  0.2521E-01  0.6499E+00  0.6499E+00
     -0.110  0.1222E-01  0.1222E-01  0.6511E+00  0.6511E+00
     -0.006  0.2271E-01  0.2271E-01  0.6535E+00  0.6535E+00
      0.098  0.2919E-01  0.2919E-01  0.6565E+00  0.6565E+00
      0.202  0.2714E-01  0.2714E-01  0.6594E+00  0.6594E+00
      0.306  0.3734E-01  0.3734E-01  0.6632E+00  0.6632E+00
      0.410  0.1461E-01  0.1461E-01  0.6648E+00  0.6648E+00
      0.514  0.1906E-01  0.1906E-01  0.6667E+00  0.6667E+00
      0.618  0.2879E-01  0.2879E-01  0.6697E+00  0.6697E+00
      0.722  0.2393E-01  0.2393E-01  0.6722E+00  0.6722E+00
      0.826  0.2279E-01  0.2279E-01  0.6746E+00  0.6746E+00
      0.930  0.3089E-01  0.3089E-01  0.6778E+00  0.6778E+00
      1.034  0.3016E-01  0.3016E-01  0.6809E+00  0.6809E+00
      1.138  0.4599E-01  0.4599E-01  0.6857E+00  0.6857E+00
      1.242  0.2195E-01  0.2195E-01  0.6880E+00  0.6880E+00
      1.346  0.2873E-01  0.2873E-01  0.6910E+00  0.6910E+00
      1.450  0.4383E-01  0.4383E-01  0.6955E+00  0.6955E+00
      1.554  0.3690E-01  0.3690E-01  0.6994E+00  0.6994E+00
      1.658  0.4445E-01  0.4445E-01  0.7040E+00  0.7040E+00
      1.762  0.4262E-01  0.4262E-01  0.7084E+00  0.7084E+00
      1.866  0.4297E-01  0.4297E-01  0.7129E+00  0.7129E+00
      1.970  0.4946E-01  0.4946E-01  0.7180E+00  0.7180E+00
      2.074  0.5563E-01  0.5563E-01  0.7238E+00  0.7238E+00
      2.178  0.4429E-01  0.4429E-01  0.7284E+00  0.7284E+00
      2.282  0.6910E-01  0.6910E-01  0.7356E+00  0.7356E+00
      2.386  0.6684E-01  0.6684E-01  0.7426E+00  0.7426E+00
      2.490  0.8047E-01  0.8047E-01  0.7509E+00  0.7509E+00
      2.594  0.7280E-01  0.7280E-01  0.7585E+00  0.7585E+00
      2.698  0.5756E-01  0.5756E-01  0.7645E+00  0.7645E+00
      2.802  0.6970E-01  0.6970E-01  0.7717E+00  0.7717E+00
      2.905  0.7601E-01  0.7601E-01  0.7796E+00  0.7796E+00
      3.009  0.6696E-01  0.6696E-01  0.7866E+00  0.7866E+00
      3.113  0.8258E-01  0.8258E-01  0.7952E+00  0.7952E+00
      3.217  0.8078E-01  0.8078E-01  0.8036E+00  0.8036E+00
      3.321  0.6740E-01  0.6740E-01  0.8106E+00  0.8106E+00
      3.425  0.5483E-01  0.5483E-01  0.8163E+00  0.8163E+00
      3.529  0.8331E-01  0.8331E-01  0.8250E+00  0.8250E+00
      3.633  0.6927E-01  0.6927E-01  0.8322E+00  0.8322E+00
      3.737  0.6509E-01  0.6509E-01  0.8389E+00  0.8389E+00
      3.841  0.7900E-01  0.7900E-01  0.8471E+00  0.8471E+00
      3.945  0.7702E-01  0.7702E-01  0.8552E+00  0.8552E+00
      4.049  0.7470E-01  0.7470E-01  0.8629E+00  0.8629E+00
      4.153  0.6677E-01  0.6677E-01  0.8699E+00  0.8699E+00
      4.257  0.6348E-01  0.6349E-01  0.8765E+00  0.8765E+00
      4.361  0.3377E-01  0.3377E-01  0.8800E+00  0.8800E+00
      4.465  0.2698E-03  0.2697E-03  0.8800E+00  0.8800E+00
      4.569  0.2858E-08  0.2858E-08  0.8800E+00  0.8800E+00
      4.673  0.1135E-16  0.1135E-16  0.8800E+00  0.8800E+00
      4.777  0.0000E+00  0.0000E+00  0.8800E+00  0.8800E+00
      4.881  0.0000E+00  0.0000E+00  0.8800E+00  0.8800E+00
      4.985  0.0000E+00  0.0000E+00  0.8800E+00  0.8800E+00
      5.089  0.0000E+00  0.0000E+00  0.8800E+00  0.8800E+00
      5.193  0.0000E+00  0.0000E+00  0.8800E+00  0.8800E+00
      5.297  0.0000E+00  0.0000E+00  0.8800E+00  0.8800E+00
      5.401  0.0000E+00  0.0000E+00  0.8800E+00  0.8800E+00
      5.505  0.0000E+00  0.0000E+00  0.8800E+00  0.8800E+00
      5.609  0.0000E+00  0.0000E+00  0.8800E+00  0.8800E+00
      5.713  0.0000E+00  0.0000E+00  0.8800E+00  0.8800E+00
