 running   48 mpi-ranks, with    1 threads/rank, on    1 nodes
 distrk:  each k-point on   48 cores,    1 groups
 distr:  one band on   24 cores,    2 groups
 vasp.6.4.2 20Jul23 (build Jan 24 2024 13:44:02) complex                         
 POSCAR found type information on POSCAR C H N O 
 POSCAR found :  4 types and      98 ions
 scaLAPACK will be used selectively (only on CPU)
 -----------------------------------------------------------------------------
|                                                                             |
|               ----> ADVICE to this user running VASP <----                  |
|                                                                             |
|     You have a (more or less) 'large supercell' and for larger cells it     |
|     might be more efficient to use real-space projection operators.         |
|     Therefore, try LREAL= Auto in the INCAR file.                           |
|     Mind: For very accurate calculation, you might also keep the            |
|     reciprocal projection scheme (i.e. LREAL=.FALSE.).                      |
|                                                                             |
 -----------------------------------------------------------------------------

 LDA part: xc-table for Pade appr. of Perdew
 POSCAR, INCAR and KPOINTS ok, starting setup
 FFT: planning ... GRIDC
 FFT: planning ... GRID_SOFT
 FFT: planning ... GRID
 WAVECAR not read
 entering main loop
       N       E                     dE             d eps       ncg     rms          rms(c)
DAV:   1     0.324201045216E+04    0.32420E+04   -0.13808E+05 11488   0.105E+03
DAV:   2    -0.258503911726E+03   -0.35005E+04   -0.32941E+04 15856   0.258E+02
DAV:   3    -0.870138127231E+03   -0.61163E+03   -0.60886E+03 13200   0.111E+02
DAV:   4    -0.892310043827E+03   -0.22172E+02   -0.22092E+02 13400   0.265E+01
DAV:   5    -0.892939910054E+03   -0.62987E+00   -0.62908E+00 14976   0.383E+00    0.520E+01
DAV:   6    -0.875108609683E+03    0.17831E+02   -0.22659E+01 12792   0.730E+00    0.338E+01
DAV:   7    -0.852336197963E+03    0.22772E+02   -0.33444E+01 12384   0.872E+00    0.204E+01
DAV:   8    -0.847452310630E+03    0.48839E+01   -0.24777E+01 12808   0.746E+00    0.826E+00
DAV:   9    -0.847296641298E+03    0.15567E+00   -0.12297E+00 12280   0.207E+00    0.298E+00
DAV:  10    -0.847223671475E+03    0.72970E-01   -0.38677E-01 12336   0.109E+00    0.819E-01
DAV:  11    -0.847212818667E+03    0.10853E-01   -0.65724E-02 12080   0.441E-01    0.305E-01
DAV:  12    -0.847211537933E+03    0.12807E-02   -0.68714E-03 13064   0.156E-01    0.154E-01
DAV:  13    -0.847211287821E+03    0.25011E-03   -0.24885E-03 12720   0.101E-01    0.708E-02
DAV:  14    -0.847211394969E+03   -0.10715E-03   -0.41045E-04 12384   0.378E-02    0.482E-02
DAV:  15    -0.847211431111E+03   -0.36143E-04   -0.71097E-05 12080   0.161E-02    0.216E-02
DAV:  16    -0.847211435589E+03   -0.44782E-05   -0.20043E-05 12440   0.889E-03    0.885E-03
DAV:  17    -0.847211435733E+03   -0.14368E-06   -0.63794E-06 12608   0.530E-03
   1 F= -.85499455E+03 E0= -.85499436E+03  d E =-.854995E+03  mag=     0.0002
 curvature:   0.00 expect dE= 0.000E+00 dE for cont linesearch  0.000E+00
 trial: gam= 0.00000 g(F)=  0.674E-03 g(S)=  0.000E+00 ort = 0.000E+00 (trialstep = 0.100E+01)
 search vector abs. value=  0.674E-03
 bond charge predicted
       N       E                     dE             d eps       ncg     rms          rms(c)
DAV:   1    -0.847211884749E+03   -0.44916E-03   -0.18674E-02 11320   0.275E-01    0.343E-02
DAV:   2    -0.847211909296E+03   -0.24546E-04   -0.43483E-04 12840   0.397E-02    0.290E-02
DAV:   3    -0.847211893834E+03    0.15462E-04   -0.23956E-05 13504   0.106E-02    0.196E-02
DAV:   4    -0.847211885720E+03    0.81137E-05   -0.35835E-05 11112   0.125E-02    0.566E-03
DAV:   5    -0.847211885723E+03   -0.28085E-08   -0.80974E-06 10608   0.549E-03
   2 F= -.85499497E+03 E0= -.85499478E+03  d E =-.427009E-03  mag=    -0.0000
 trial-energy change:   -0.000427  1 .order   -0.000428   -0.000674   -0.000182
 step:   1.3706(harm=  1.3706)  dis= 0.00070  next Energy=  -854.995008 (dE=-0.462E-03)
 bond charge predicted
       N       E                     dE             d eps       ncg     rms          rms(c)
DAV:   1    -0.847211927501E+03   -0.41781E-04   -0.25400E-03 11248   0.102E-01    0.129E-02
DAV:   2    -0.847211931343E+03   -0.38414E-05   -0.57509E-05 12872   0.144E-02    0.105E-02
DAV:   3    -0.847211929625E+03    0.17176E-05   -0.28340E-06  9448   0.387E-03    0.715E-03
DAV:   4    -0.847211928984E+03    0.64084E-06   -0.54495E-06 10192   0.476E-03
   3 F= -.85499501E+03 E0= -.85499482E+03  d E =-.461391E-03  mag=    -0.0000
 curvature:  -0.69 expect dE=-0.547E-04 dE for cont linesearch -0.263E-07
 trial: gam= 0.12607 g(F)=  0.798E-04 g(S)=  0.000E+00 ort =-0.508E-05 (trialstep = 0.107E+01)
 search vector abs. value=  0.893E-04
 bond charge predicted
       N       E                     dE             d eps       ncg     rms          rms(c)
DAV:   1    -0.847211994141E+03   -0.64516E-04   -0.22258E-03 10912   0.971E-02    0.104E-02
DAV:   2    -0.847211997370E+03   -0.32288E-05   -0.44899E-05 12272   0.131E-02    0.886E-03
DAV:   3    -0.847211996589E+03    0.78038E-06   -0.18252E-06  9128   0.335E-03
   4 F= -.85499508E+03 E0= -.85499489E+03  d E =-.696021E-04  mag=     0.0000
 trial-energy change:   -0.000070  1 .order   -0.000070   -0.000085   -0.000056
 step:   3.0928(harm=  3.0928)  dis= 0.00047  next Energy=  -854.995130 (dE=-0.122E-03)
 bond charge predicted
       N       E                     dE             d eps       ncg     rms          rms(c)
DAV:   1    -0.847212029323E+03   -0.31953E-04   -0.76744E-03 10896   0.180E-01    0.202E-02
DAV:   2    -0.847212039137E+03   -0.98139E-05   -0.13748E-04 12408   0.227E-02    0.173E-02
DAV:   3    -0.847212036567E+03    0.25702E-05   -0.66362E-06 13472   0.602E-03    0.129E-02
DAV:   4    -0.847212035435E+03    0.11319E-05   -0.90550E-06 10840   0.665E-03    0.452E-03
DAV:   5    -0.847212035417E+03    0.17528E-07   -0.22416E-06  7888   0.336E-03
   5 F= -.85499512E+03 E0= -.85499493E+03  d E =-.111694E-03  mag=    -0.0000
 curvature:  -1.74 expect dE=-0.141E-03 dE for cont linesearch -0.155E-05
 trial: gam= 1.12218 g(F)=  0.807E-04 g(S)=  0.000E+00 ort =-0.892E-05 (trialstep = 0.762E+00)
 search vector abs. value=  0.173E-03
 bond charge predicted
       N       E                     dE             d eps       ncg     rms          rms(c)
DAV:   1    -0.847212071564E+03   -0.36129E-04   -0.19820E-03 10864   0.907E-02    0.892E-03
DAV:   2    -0.847212074060E+03   -0.24962E-05   -0.34271E-05 12176   0.110E-02    0.767E-03
DAV:   3    -0.847212073585E+03    0.47452E-06   -0.10018E-06  8016   0.268E-03
   6 F= -.85499517E+03 E0= -.85499498E+03  d E =-.470114E-04  mag=    -0.0000
 ZBRENT: can't locate minimum, use default step
 trial-energy change:   -0.000047  1 .order   -0.000047   -0.000054   -0.000041
 step:   3.0486(harm=  3.0713)  dis= 0.00088  next Energy=  -854.995228 (dE=-0.109E-03)
 bond charge predicted
       N       E                     dE             d eps       ncg     rms          rms(c)
DAV:   1    -0.847212079520E+03   -0.54602E-05   -0.17624E-02 10808   0.271E-01    0.266E-02
DAV:   2    -0.847212100187E+03   -0.20667E-04   -0.28590E-04 12224   0.316E-02    0.235E-02
DAV:   3    -0.847212096251E+03    0.39360E-05   -0.97352E-06 13520   0.751E-03    0.180E-02
DAV:   4    -0.847212094514E+03    0.17369E-05   -0.14696E-05 11056   0.850E-03    0.532E-03
DAV:   5    -0.847212094806E+03   -0.29204E-06   -0.36999E-06  8848   0.390E-03
   7 F= -.85499521E+03 E0= -.85499503E+03  d E =-.942937E-04  mag=    -0.0000
 curvature:  -3.76 expect dE=-0.249E-03 dE for cont linesearch -0.288E-05
 trial: gam= 0.73612 g(F)=  0.662E-04 g(S)=  0.000E+00 ort =-0.115E-04 (trialstep = 0.122E+01)
 search vector abs. value=  0.143E-03
 bond charge predicted
       N       E                     dE             d eps       ncg     rms          rms(c)
DAV:   1    -0.847212144411E+03   -0.49896E-04   -0.39085E-03 10864   0.124E-01    0.118E-02
DAV:   2    -0.847212149031E+03   -0.46206E-05   -0.64021E-05 11840   0.147E-02    0.108E-02
DAV:   3    -0.847212148349E+03    0.68183E-06   -0.19331E-06  9592   0.330E-03
   8 F= -.85499528E+03 E0= -.85499509E+03  d E =-.633456E-04  mag=    -0.0000
 ZBRENT: can't locate minimum, use default step
 trial-energy change:   -0.000063  1 .order   -0.000064   -0.000070   -0.000058
 step:   4.8777(harm=  7.1536)  dis= 0.00162  next Energy=  -854.995420 (dE=-0.207E-03)
 bond charge predicted
       N       E                     dE             d eps       ncg     rms          rms(c)
DAV:   1    -0.847212186227E+03   -0.37196E-04   -0.34734E-02 10768   0.371E-01    0.369E-02
DAV:   2    -0.847212224120E+03   -0.37892E-04   -0.55191E-04 11768   0.433E-02    0.333E-02
DAV:   3    -0.847212216864E+03    0.72555E-05   -0.19297E-05 13496   0.101E-02    0.251E-02
DAV:   4    -0.847212215510E+03    0.13547E-05   -0.24965E-05 11064   0.108E-02    0.749E-03
DAV:   5    -0.847212216195E+03   -0.68571E-06   -0.63037E-06  9936   0.494E-03
   9 F= -.85499537E+03 E0= -.85499519E+03  d E =-.160134E-03  mag=     0.0000
 curvature:  -7.56 expect dE=-0.585E-03 dE for cont linesearch -0.131E-05
 trial: gam= 0.96545 g(F)=  0.774E-04 g(S)=  0.000E+00 ort = 0.497E-05 (trialstep = 0.127E+01)
 search vector abs. value=  0.220E-03
 bond charge predicted
       N       E                     dE             d eps       ncg     rms          rms(c)
DAV:   1    -0.847212280116E+03   -0.64606E-04   -0.67818E-03 10832   0.164E-01    0.167E-02
DAV:   2    -0.847212288799E+03   -0.86831E-05   -0.12218E-04 11600   0.205E-02    0.147E-02
DAV:   3    -0.847212287202E+03    0.15965E-05   -0.42872E-06 11592   0.463E-03    0.113E-02
DAV:   4    -0.847212286757E+03    0.44582E-06   -0.67623E-06 10272   0.574E-03
  10 F= -.85499545E+03 E0= -.85499526E+03  d E =-.794328E-04  mag=     0.0000
 trial-energy change:   -0.000079  1 .order   -0.000077   -0.000104   -0.000049
 step:   2.3934(harm=  2.3934)  dis= 0.00107  next Energy=  -854.995472 (dE=-0.983E-04)
 bond charge predicted
       N       E                     dE             d eps       ncg     rms          rms(c)
DAV:   1    -0.847212299243E+03   -0.12041E-04   -0.53765E-03 10816   0.147E-01    0.157E-02
DAV:   2    -0.847212306055E+03   -0.68123E-05   -0.95094E-05 11568   0.182E-02    0.137E-02
DAV:   3    -0.847212304779E+03    0.12761E-05   -0.31930E-06 10752   0.414E-03    0.104E-02
DAV:   4    -0.847212304630E+03    0.14899E-06   -0.60246E-06 10240   0.539E-03
  11 F= -.85499548E+03 E0= -.85499529E+03  d E =-.105072E-03  mag=     0.0000
 curvature:  -3.21 expect dE=-0.146E-03 dE for cont linesearch -0.561E-08
 trial: gam= 0.73266 g(F)=  0.455E-04 g(S)=  0.000E+00 ort = 0.620E-06 (trialstep = 0.149E+01)
 search vector abs. value=  0.165E-03
 bond charge predicted
       N       E                     dE             d eps       ncg     rms          rms(c)
DAV:   1    -0.847212346325E+03   -0.41546E-04   -0.68608E-03 10752   0.162E-01    0.165E-02
DAV:   2    -0.847212354081E+03   -0.77560E-05   -0.11171E-04 11536   0.193E-02    0.146E-02
DAV:   3    -0.847212352724E+03    0.13570E-05   -0.35865E-06 11264   0.422E-03    0.110E-02
DAV:   4    -0.847212352799E+03   -0.74870E-07   -0.56425E-06 10224   0.515E-03
  12 F= -.85499554E+03 E0= -.85499535E+03  d E =-.597284E-04  mag=     0.0000
 trial-energy change:   -0.000060  1 .order   -0.000056   -0.000069   -0.000044
 step:   4.1709(harm=  4.1709)  dis= 0.00187  next Energy=  -854.995575 (dE=-0.958E-04)
 bond charge predicted
       N       E                     dE             d eps       ncg     rms          rms(c)
DAV:   1    -0.847212358600E+03   -0.58755E-05   -0.22027E-02 10752   0.290E-01    0.290E-02
DAV:   2    -0.847212383452E+03   -0.24852E-04   -0.35647E-04 11472   0.345E-02    0.258E-02
DAV:   3    -0.847212379056E+03    0.43967E-05   -0.11823E-05 13680   0.748E-03    0.194E-02
DAV:   4    -0.847212378772E+03    0.28322E-06   -0.14745E-05 10560   0.856E-03    0.552E-03
DAV:   5    -0.847212379209E+03   -0.43677E-06   -0.42401E-06  9568   0.387E-03
  13 F= -.85499559E+03 E0= -.85499540E+03  d E =-.106606E-03  mag=    -0.0000
 curvature:  -7.48 expect dE=-0.451E-03 dE for cont linesearch -0.599E-07
 trial: gam= 1.26657 g(F)=  0.604E-04 g(S)=  0.000E+00 ort = 0.115E-05 (trialstep = 0.102E+01)
 search vector abs. value=  0.327E-03
 bond charge predicted
       N       E                     dE             d eps       ncg     rms          rms(c)
DAV:   1    -0.847212422944E+03   -0.44171E-04   -0.62280E-03 10784   0.152E-01    0.152E-02
DAV:   2    -0.847212429805E+03   -0.68616E-05   -0.99366E-05 11416   0.180E-02    0.135E-02
DAV:   3    -0.847212428622E+03    0.11829E-05   -0.29626E-06 10816   0.378E-03    0.100E-02
DAV:   4    -0.847212428883E+03   -0.26032E-06   -0.52526E-06 10080   0.485E-03
  14 F= -.85499564E+03 E0= -.85499545E+03  d E =-.570817E-04  mag=     0.0000
 trial-energy change:   -0.000057  1 .order   -0.000054   -0.000063   -0.000045
 step:   3.6195(harm=  3.6195)  dis= 0.00248  next Energy=  -854.995697 (dE=-0.112E-03)
 bond charge predicted
       N       E                     dE             d eps       ncg     rms          rms(c)
DAV:   1    -0.847212447567E+03   -0.18944E-04   -0.40395E-02 10720   0.387E-01    0.392E-02
DAV:   2    -0.847212490482E+03   -0.42915E-04   -0.63881E-04 11360   0.457E-02    0.348E-02
DAV:   3    -0.847212481697E+03    0.87846E-05   -0.20673E-05 13600   0.979E-03    0.255E-02
DAV:   4    -0.847212481817E+03   -0.11934E-06   -0.28078E-05 10616   0.115E-02    0.665E-03
DAV:   5    -0.847212482301E+03   -0.48469E-06   -0.79834E-06 11680   0.507E-03
  15 F= -.85499571E+03 E0= -.85499553E+03  d E =-.129163E-03  mag=     0.0000
 curvature:  -9.59 expect dE=-0.559E-03 dE for cont linesearch -0.837E-06
 trial: gam= 0.92156 g(F)=  0.583E-04 g(S)=  0.000E+00 ort = 0.535E-05 (trialstep = 0.146E+01)
 search vector abs. value=  0.346E-03
 bond charge predicted
       N       E                     dE             d eps       ncg     rms          rms(c)
DAV:   1    -0.847212538502E+03   -0.56686E-04   -0.13528E-02 10752   0.221E-01    0.226E-02
DAV:   2    -0.847212553526E+03   -0.15024E-04   -0.21927E-04 11232   0.267E-02    0.200E-02
DAV:   3    -0.847212550735E+03    0.27917E-05   -0.68657E-06 12832   0.583E-03    0.149E-02
DAV:   4    -0.847212551069E+03   -0.33397E-06   -0.10295E-05 10344   0.702E-03    0.402E-03
DAV:   5    -0.847212551231E+03   -0.16223E-06   -0.28389E-06  8936   0.326E-03
  16 F= -.85499579E+03 E0= -.85499561E+03  d E =-.781049E-04  mag=    -0.0000
 trial-energy change:   -0.000078  1 .order   -0.000075   -0.000092   -0.000058
 step:   3.9575(harm=  3.9575)  dis= 0.00293  next Energy=  -854.995840 (dE=-0.125E-03)
 bond charge predicted
       N       E                     dE             d eps       ncg     rms          rms(c)
DAV:   1    -0.847212558481E+03   -0.74125E-05   -0.39800E-02 10720   0.380E-01    0.387E-02
DAV:   2    -0.847212601738E+03   -0.43257E-04   -0.63887E-04 11200   0.456E-02    0.343E-02
DAV:   3    -0.847212592852E+03    0.88859E-05   -0.20178E-05 13520   0.999E-03    0.255E-02
DAV:   4    -0.847212592817E+03    0.34284E-07   -0.29824E-05 10664   0.119E-02    0.686E-03
DAV:   5    -0.847212593336E+03   -0.51807E-06   -0.85429E-06 11664   0.554E-03
  17 F= -.85499585E+03 E0= -.85499566E+03  d E =-.135684E-03  mag=    -0.0000
 curvature: -10.84 expect dE=-0.871E-03 dE for cont linesearch -0.153E-07
 trial: gam= 1.51138 g(F)=  0.804E-04 g(S)=  0.000E+00 ort = 0.699E-06 (trialstep = 0.776E+00)
 search vector abs. value=  0.873E-03
 bond charge predicted
       N       E                     dE             d eps       ncg     rms          rms(c)
DAV:   1    -0.847212636162E+03   -0.43345E-04   -0.94210E-03 10768   0.182E-01    0.190E-02
DAV:   2    -0.847212646141E+03   -0.99789E-05   -0.14578E-04 11344   0.216E-02    0.167E-02
DAV:   3    -0.847212644483E+03    0.16576E-05   -0.42444E-06 11432   0.468E-03    0.122E-02
DAV:   4    -0.847212645261E+03   -0.77750E-06   -0.69675E-06 10344   0.566E-03
  18 F= -.85499591E+03 E0= -.85499572E+03  d E =-.602927E-04  mag=    -0.0000
 ZBRENT: can't locate minimum, use default step
 trial-energy change:   -0.000060  1 .order   -0.000056   -0.000063   -0.000049
 step:   3.1025(harm=  3.4660)  dis= 0.00384  next Energy=  -854.995991 (dE=-0.141E-03)
 bond charge predicted
       N       E                     dE             d eps       ncg     rms          rms(c)
DAV:   1    -0.847212659575E+03   -0.15092E-04   -0.84645E-02 10720   0.546E-01    0.569E-02
DAV:   2    -0.847212744856E+03   -0.85281E-04   -0.12941E-03 11232   0.645E-02    0.502E-02
DAV:   3    -0.847212726586E+03    0.18270E-04   -0.39873E-05 13264   0.141E-02    0.366E-02
DAV:   4    -0.847212729133E+03   -0.25469E-05   -0.59252E-05 10960   0.165E-02    0.924E-03
DAV:   5    -0.847212730061E+03   -0.92822E-06   -0.17342E-05 11664   0.767E-03    0.540E-03
DAV:   6    -0.847212730329E+03   -0.26722E-06   -0.16107E-06  7536   0.245E-03
  19 F= -.85499602E+03 E0= -.85499583E+03  d E =-.170269E-03  mag=     0.0000
 curvature: -18.25 expect dE=-0.116E-02 dE for cont linesearch -0.933E-05
 ZBRENT: increasing intervall
 opt :   7.7563  next Energy=  -854.995923 (dE=-0.728E-04)
 bond charge predicted
       N       E                     dE             d eps       ncg     rms          rms(c)
DAV:   1    -0.847212309794E+03    0.42027E-03   -0.33773E-01 10736   0.109E+00    0.112E-01
DAV:   2    -0.847212649483E+03   -0.33969E-03   -0.51991E-03 11216   0.129E-01    0.992E-02
DAV:   3    -0.847212573149E+03    0.76334E-04   -0.16143E-04 13328   0.283E-02    0.723E-02
DAV:   4    -0.847212577859E+03   -0.47104E-05   -0.23911E-04 11520   0.330E-02    0.186E-02
DAV:   5    -0.847212581568E+03   -0.37087E-05   -0.68798E-05 11744   0.152E-02    0.108E-02
DAV:   6    -0.847212582811E+03   -0.12426E-05   -0.67708E-06 11264   0.479E-03    0.565E-03
DAV:   7    -0.847212582689E+03    0.12162E-06   -0.11000E-06  8816   0.241E-03
  20 F= -.85499592E+03 E0= -.85499574E+03  d E =-.714804E-04  mag=     0.0000
 curvature: 190.67 expect dE= 0.743E-01 dE for cont linesearch  0.104E-02
 ZBRENT: bracketing found
 ZBRENT: interpolating
 opt :   4.1918  next Energy=  -854.996032 (dE=-0.182E-03)
 bond charge predicted
       N       E                     dE             d eps       ncg     rms          rms(c)
DAV:   1    -0.847212582154E+03    0.65684E-06   -0.19773E-01 10736   0.835E-01    0.858E-02
DAV:   2    -0.847212778588E+03   -0.19643E-03   -0.30065E-03 11136   0.984E-02    0.762E-02
DAV:   3    -0.847212732089E+03    0.46500E-04   -0.94617E-05 13264   0.217E-02    0.554E-02
DAV:   4    -0.847212731370E+03    0.71859E-06   -0.13818E-04 11296   0.251E-02    0.141E-02
DAV:   5    -0.847212733432E+03   -0.20622E-05   -0.40417E-05 11712   0.117E-02    0.810E-03
DAV:   6    -0.847212734065E+03   -0.63251E-06   -0.37839E-06  9808   0.361E-03
  21 F= -.85499604E+03 E0= -.85499585E+03  d E =-.185530E-03  mag=     0.0000
 curvature:  -2.10 expect dE=-0.212E-03 dE for cont linesearch -0.978E-07
 trial: gam= 1.17537 g(F)=  0.101E-03 g(S)=  0.000E+00 ort = 0.638E-05 (trialstep = 0.963E+00)
 search vector abs. value=  0.132E-02
 bond charge predicted
       N       E                     dE             d eps       ncg     rms          rms(c)
DAV:   1    -0.847212799317E+03   -0.65884E-04   -0.21955E-02 10736   0.276E-01    0.288E-02
DAV:   2    -0.847212819809E+03   -0.20492E-04   -0.32708E-04 10944   0.323E-02    0.255E-02
DAV:   3    -0.847212814073E+03    0.57361E-05   -0.10742E-05 13088   0.707E-03    0.183E-02
DAV:   4    -0.847212813656E+03    0.41652E-06   -0.15155E-05 10352   0.825E-03    0.464E-03
DAV:   5    -0.847212813922E+03   -0.26599E-06   -0.45215E-06 10112   0.368E-03
  22 F= -.85499612E+03 E0= -.85499594E+03  d E =-.885207E-04  mag=     0.0000
 trial-energy change:   -0.000089  1 .order   -0.000089   -0.000105   -0.000073
 step:   3.2361(harm=  3.2361)  dis= 0.00509  next Energy=  -854.996211 (dE=-0.176E-03)
 bond charge predicted
       N       E                     dE             d eps       ncg     rms          rms(c)
DAV:   1    -0.847212808317E+03    0.53392E-05   -0.12295E-01 10784   0.652E-01    0.682E-02
DAV:   2    -0.847212930499E+03   -0.12218E-03   -0.18761E-03 10976   0.771E-02    0.597E-02
DAV:   3    -0.847212903208E+03    0.27292E-04   -0.59184E-05 13312   0.166E-02    0.432E-02
DAV:   4    -0.847212906357E+03   -0.31488E-05   -0.83292E-05 11152   0.194E-02    0.110E-02
DAV:   5    -0.847212907727E+03   -0.13704E-05   -0.24382E-05 11568   0.872E-03    0.590E-03
DAV:   6    -0.847212908184E+03   -0.45668E-06   -0.20096E-06  8592   0.274E-03
  23 F= -.85499624E+03 E0= -.85499605E+03  d E =-.203017E-03  mag=     0.0000
 curvature: -19.71 expect dE=-0.167E-02 dE for cont linesearch -0.442E-05
 ZBRENT: extrapolating
 opt :   3.8993  next Energy=  -854.996244 (dE=-0.209E-03)
 bond charge predicted
       N       E                     dE             d eps       ncg     rms          rms(c)
DAV:   1    -0.847212900627E+03    0.71002E-05   -0.10511E-02 10832   0.191E-01    0.199E-02
DAV:   2    -0.847212911489E+03   -0.10863E-04   -0.16377E-04 11104   0.227E-02    0.173E-02
DAV:   3    -0.847212909402E+03    0.20872E-05   -0.50330E-06 11968   0.486E-03    0.125E-02
DAV:   4    -0.847212910095E+03   -0.69243E-06   -0.74295E-06 10384   0.579E-03
  24 F= -.85499625E+03 E0= -.85499606E+03  d E =-.210758E-03  mag=     0.0000
 curvature: -25.47 expect dE=-0.299E-02 dE for cont linesearch -0.514E-06
 trial: gam= 1.15798 g(F)=  0.118E-03 g(S)=  0.000E+00 ort =-0.517E-05 (trialstep = 0.109E+01)
 search vector abs. value=  0.188E-02
 bond charge predicted
       N       E                     dE             d eps       ncg     rms          rms(c)
DAV:   1    -0.847212975390E+03   -0.65988E-04   -0.39438E-02 10736   0.368E-01    0.395E-02
DAV:   2    -0.847213013442E+03   -0.38051E-04   -0.58881E-04 10960   0.433E-02    0.346E-02
DAV:   3    -0.847213005125E+03    0.83171E-05   -0.18773E-05 13216   0.939E-03    0.248E-02
DAV:   4    -0.847213007333E+03   -0.22078E-05   -0.26445E-05 10648   0.110E-02    0.614E-03
DAV:   5    -0.847213007691E+03   -0.35804E-06   -0.82511E-06 11584   0.508E-03
  25 F= -.85499636E+03 E0= -.85499617E+03  d E =-.112121E-03  mag=     0.0000
 trial-energy change:   -0.000112  1 .order   -0.000104   -0.000122   -0.000087
 step:   1.9012(harm=  3.8004)  dis= 0.00366  next Energy=  -854.996394 (dE=-0.148E-03)
 bond charge predicted
       N       E                     dE             d eps       ncg     rms          rms(c)
DAV:   1    -0.847213034793E+03   -0.27461E-04   -0.21693E-02 10768   0.273E-01    0.288E-02
DAV:   2    -0.847213056591E+03   -0.21798E-04   -0.32990E-04 10992   0.324E-02    0.251E-02
DAV:   3    -0.847213052278E+03    0.43137E-05   -0.10283E-05 13008   0.694E-03    0.181E-02
DAV:   4    -0.847213053664E+03   -0.13864E-05   -0.14468E-05 10360   0.816E-03    0.457E-03
DAV:   5    -0.847213053850E+03   -0.18604E-06   -0.44311E-06 10464   0.376E-03
  26 F= -.85499642E+03 E0= -.85499623E+03  d E =-.169020E-03  mag=     0.0000
 curvature: -16.27 expect dE=-0.102E-02 dE for cont linesearch -0.243E-04
 ZBRENT: increasing intervall
 opt :   3.5209  next Energy=  -854.996458 (dE=-0.212E-03)
 bond charge predicted
       N       E                     dE             d eps       ncg     rms          rms(c)
DAV:   1    -0.847213011956E+03    0.41708E-04   -0.86554E-02 10784   0.546E-01    0.574E-02
DAV:   2    -0.847213096674E+03   -0.84718E-04   -0.13060E-03 10944   0.645E-02    0.503E-02
DAV:   3    -0.847213077539E+03    0.19135E-04   -0.41333E-05 13216   0.139E-02    0.362E-02
DAV:   4    -0.847213080638E+03   -0.30994E-05   -0.58800E-05 10816   0.164E-02    0.911E-03
DAV:   5    -0.847213081437E+03   -0.79868E-06   -0.17837E-05 11568   0.750E-03    0.495E-03
DAV:   6    -0.847213081763E+03   -0.32634E-06   -0.13791E-06  7424   0.229E-03
  27 F= -.85499646E+03 E0= -.85499628E+03  d E =-.218277E-03  mag=     0.0000
 curvature: -28.70 expect dE=-0.366E-02 dE for cont linesearch -0.108E-07
 trial: gam= 1.07250 g(F)=  0.128E-03 g(S)=  0.000E+00 ort =-0.842E-06 (trialstep = 0.130E+01)
 search vector abs. value=  0.229E-02
 bond charge predicted
       N       E                     dE             d eps       ncg     rms          rms(c)
DAV:   1    -0.847213144854E+03   -0.63417E-04   -0.67381E-02 10832   0.478E-01    0.507E-02
DAV:   2    -0.847213211104E+03   -0.66250E-04   -0.10255E-03 10928   0.567E-02    0.444E-02
DAV:   3    -0.847213195991E+03    0.15113E-04   -0.31340E-05 13152   0.121E-02    0.321E-02
DAV:   4    -0.847213198830E+03   -0.28393E-05   -0.49321E-05 10704   0.148E-02    0.788E-03
DAV:   5    -0.847213199226E+03   -0.39556E-06   -0.14758E-05 11616   0.690E-03    0.425E-03
DAV:   6    -0.847213199553E+03   -0.32771E-06   -0.10180E-06  7104   0.198E-03
  28 F= -.85499661E+03 E0= -.85499642E+03  d E =-.140429E-03  mag=     0.0000
 trial-energy change:   -0.000140  1 .order   -0.000134   -0.000164   -0.000104
 step:   2.3318(harm=  3.5196)  dis= 0.00500  next Energy=  -854.996650 (dE=-0.185E-03)
 bond charge predicted
       N       E                     dE             d eps       ncg     rms          rms(c)
DAV:   1    -0.847213215063E+03   -0.15837E-04   -0.43084E-02 10832   0.383E-01    0.406E-02
DAV:   2    -0.847213257408E+03   -0.42345E-04   -0.65586E-04 10944   0.454E-02    0.354E-02
DAV:   3    -0.847213247832E+03    0.95758E-05   -0.20102E-05 13200   0.968E-03    0.256E-02
DAV:   4    -0.847213249851E+03   -0.20189E-05   -0.31231E-05 10576   0.118E-02    0.632E-03
DAV:   5    -0.847213250110E+03   -0.25902E-06   -0.94944E-06 11632   0.552E-03
  29 F= -.85499667E+03 E0= -.85499649E+03  d E =-.208893E-03  mag=     0.0000
 curvature: -22.69 expect dE=-0.151E-02 dE for cont linesearch -0.179E-04
 ZBRENT: increasing intervall
 opt :   4.4038  next Energy=  -854.996684 (dE=-0.219E-03)
 bond charge predicted
       N       E                     dE             d eps       ncg     rms          rms(c)
DAV:   1    -0.847213096408E+03    0.15344E-03   -0.17208E-01 10784   0.765E-01    0.813E-02
DAV:   2    -0.847213265794E+03   -0.16939E-03   -0.26094E-03 10976   0.906E-02    0.710E-02
DAV:   3    -0.847213227933E+03    0.37861E-04   -0.80094E-05 13168   0.193E-02    0.513E-02
DAV:   4    -0.847213235287E+03   -0.73543E-05   -0.12425E-04 11280   0.235E-02    0.125E-02
DAV:   5    -0.847213236222E+03   -0.93532E-06   -0.36594E-05 11680   0.110E-02    0.675E-03
DAV:   6    -0.847213237019E+03   -0.79650E-06   -0.28726E-06  9664   0.319E-03
  30 F= -.85499670E+03 E0= -.85499651E+03  d E =-.231356E-03  mag=     0.0000
 curvature: -12.59 expect dE=-0.241E-02 dE for cont linesearch -0.502E-05
 ZBRENT: bracketing found
 ZBRENT: interpolating
 opt :   3.5426  next Energy=  -854.996709 (dE=-0.244E-03)
 bond charge predicted
       N       E                     dE             d eps       ncg     rms          rms(c)
DAV:   1    -0.847213240972E+03   -0.47495E-05   -0.29600E-02 10752   0.317E-01    0.336E-02
DAV:   2    -0.847213268721E+03   -0.27749E-04   -0.43967E-04 10912   0.373E-02    0.298E-02
DAV:   3    -0.847213261022E+03    0.76988E-05   -0.13881E-05 13048   0.805E-03    0.214E-02
DAV:   4    -0.847213260716E+03    0.30654E-06   -0.21762E-05 10416   0.982E-03    0.519E-03
DAV:   5    -0.847213260894E+03   -0.17812E-06   -0.65914E-06 11368   0.453E-03
  31 F= -.85499671E+03 E0= -.85499652E+03  d E =-.240504E-03  mag=     0.0000
 curvature: -32.63 expect dE=-0.387E-02 dE for cont linesearch -0.110E-05
 trial: gam= 0.91952 g(F)=  0.119E-03 g(S)=  0.000E+00 ort = 0.877E-05 (trialstep = 0.175E+01)
 search vector abs. value=  0.207E-02
 bond charge predicted
       N       E                     dE             d eps       ncg     rms          rms(c)
DAV:   1    -0.847213308268E+03   -0.47552E-04   -0.10790E-01 10784   0.606E-01    0.643E-02
DAV:   2    -0.847213410885E+03   -0.10262E-03   -0.16226E-03 10848   0.717E-02    0.567E-02
DAV:   3    -0.847213384451E+03    0.26434E-04   -0.51857E-05 13104   0.156E-02    0.408E-02
DAV:   4    -0.847213386494E+03   -0.20434E-05   -0.79979E-05 11136   0.188E-02    0.101E-02
DAV:   5    -0.847213387127E+03   -0.63316E-06   -0.24060E-05 11632   0.896E-03    0.540E-03
DAV:   6    -0.847213387661E+03   -0.53363E-06   -0.18001E-06  8352   0.253E-03
  32 F= -.85499687E+03 E0= -.85499669E+03  d E =-.166092E-03  mag=     0.0000
 trial-energy change:   -0.000166  1 .order   -0.000166   -0.000221   -0.000110
 step:   3.4818(harm=  3.4818)  dis= 0.00718  next Energy=  -854.996926 (dE=-0.221E-03)
 bond charge predicted
       N       E                     dE             d eps       ncg     rms          rms(c)
DAV:   1    -0.847213331464E+03    0.55664E-04   -0.10712E-01 10784   0.604E-01    0.644E-02
DAV:   2    -0.847213435972E+03   -0.10451E-03   -0.16247E-03 10912   0.716E-02    0.563E-02
DAV:   3    -0.847213412182E+03    0.23790E-04   -0.51312E-05 13136   0.155E-02    0.405E-02
DAV:   4    -0.847213417329E+03   -0.51471E-05   -0.77395E-05 11120   0.186E-02    0.101E-02
DAV:   5    -0.847213417893E+03   -0.56388E-06   -0.23665E-05 11664   0.894E-03    0.541E-03
DAV:   6    -0.847213418445E+03   -0.55219E-06   -0.18408E-06  8400   0.256E-03
  33 F= -.85499694E+03 E0= -.85499676E+03  d E =-.235698E-03  mag=     0.0000
 curvature: -28.42 expect dE=-0.292E-02 dE for cont linesearch -0.907E-06
 trial: gam= 0.81442 g(F)=  0.103E-03 g(S)=  0.000E+00 ort = 0.813E-05 (trialstep = 0.209E+01)
 search vector abs. value=  0.149E-02
 bond charge predicted
       N       E                     dE             d eps       ncg     rms          rms(c)
DAV:   1    -0.847213436017E+03   -0.18124E-04   -0.11102E-01 10768   0.616E-01    0.658E-02
DAV:   2    -0.847213545684E+03   -0.10967E-03   -0.17003E-03 10928   0.735E-02    0.576E-02
DAV:   3    -0.847213520475E+03    0.25210E-04   -0.54772E-05 13296   0.159E-02    0.414E-02
DAV:   4    -0.847213525090E+03   -0.46151E-05   -0.80575E-05 11128   0.191E-02    0.105E-02
DAV:   5    -0.847213525754E+03   -0.66407E-06   -0.25335E-05 11632   0.917E-03    0.550E-03
DAV:   6    -0.847213526347E+03   -0.59338E-06   -0.19433E-06  8624   0.260E-03
  34 F= -.85499710E+03 E0= -.85499692E+03  d E =-.160197E-03  mag=     0.0000
 trial-energy change:   -0.000160  1 .order   -0.000154   -0.000229   -0.000079
 step:   2.9115(harm=  3.1944)  dis= 0.00516  next Energy=  -854.997117 (dE=-0.176E-03)
 bond charge predicted
       N       E                     dE             d eps       ncg     rms          rms(c)
DAV:   1    -0.847213512581E+03    0.13173E-04   -0.17032E-02 10800   0.241E-01    0.259E-02
DAV:   2    -0.847213529696E+03   -0.17115E-04   -0.26322E-04 10944   0.289E-02    0.225E-02
DAV:   3    -0.847213526154E+03    0.35414E-05   -0.84343E-06 12960   0.624E-03    0.161E-02
DAV:   4    -0.847213527412E+03   -0.12578E-05   -0.12115E-05 10416   0.743E-03    0.413E-03
DAV:   5    -0.847213527499E+03   -0.87064E-07   -0.39409E-06 10544   0.361E-03
  35 F= -.85499712E+03 E0= -.85499694E+03  d E =-.181770E-03  mag=     0.0000
 curvature: -20.29 expect dE=-0.174E-02 dE for cont linesearch -0.115E-05
 trial: gam= 0.85108 g(F)=  0.857E-04 g(S)=  0.000E+00 ort = 0.918E-05 (trialstep = 0.226E+01)
 search vector abs. value=  0.118E-02
 bond charge predicted
       N       E                     dE             d eps       ncg     rms          rms(c)
DAV:   1    -0.847213568109E+03   -0.40697E-04   -0.10205E-01 10752   0.589E-01    0.632E-02
DAV:   2    -0.847213670227E+03   -0.10212E-03   -0.15705E-03 10976   0.702E-02    0.551E-02
DAV:   3    -0.847213647764E+03    0.22463E-04   -0.48539E-05 13248   0.150E-02    0.397E-02
DAV:   4    -0.847213652017E+03   -0.42526E-05   -0.71460E-05 11040   0.179E-02    0.991E-03
DAV:   5    -0.847213652900E+03   -0.88361E-06   -0.22048E-05 11696   0.841E-03    0.526E-03
DAV:   6    -0.847213653353E+03   -0.45263E-06   -0.17514E-06  8272   0.249E-03
  36 F= -.85499728E+03 E0= -.85499710E+03  d E =-.161716E-03  mag=     0.0000
 trial-energy change:   -0.000162  1 .order   -0.000156   -0.000211   -0.000100
 step:   3.5890(harm=  4.2987)  dis= 0.00569  next Energy=  -854.997315 (dE=-0.193E-03)
 bond charge predicted
       N       E                     dE             d eps       ncg     rms          rms(c)
DAV:   1    -0.847213644854E+03    0.80462E-05   -0.35649E-02 10800   0.348E-01    0.374E-02
DAV:   2    -0.847213680992E+03   -0.36138E-04   -0.55287E-04 10944   0.416E-02    0.325E-02
DAV:   3    -0.847213673400E+03    0.75918E-05   -0.17055E-05 13328   0.891E-03    0.234E-02
DAV:   4    -0.847213675383E+03   -0.19828E-05   -0.24679E-05 10576   0.106E-02    0.590E-03
DAV:   5    -0.847213675698E+03   -0.31501E-06   -0.77993E-06 11648   0.498E-03
  37 F= -.85499733E+03 E0= -.85499714E+03  d E =-.205118E-03  mag=     0.0000
 curvature: -23.84 expect dE=-0.189E-02 dE for cont linesearch -0.440E-05
 trial: gam= 0.86974 g(F)=  0.793E-04 g(S)=  0.000E+00 ort = 0.148E-04 (trialstep = 0.252E+01)
 search vector abs. value=  0.997E-03
 bond charge predicted
       N       E                     dE             d eps       ncg     rms          rms(c)
DAV:   1    -0.847213709479E+03   -0.34096E-04   -0.10270E-01 10752   0.598E-01    0.639E-02
DAV:   2    -0.847213812725E+03   -0.10325E-03   -0.15918E-03 11040   0.716E-02    0.560E-02
DAV:   3    -0.847213789741E+03    0.22984E-04   -0.51047E-05 13024   0.159E-02    0.402E-02
DAV:   4    -0.847213794684E+03   -0.49432E-05   -0.74992E-05 11296   0.186E-02    0.103E-02
DAV:   5    -0.847213795256E+03   -0.57216E-06   -0.23760E-05 11696   0.911E-03    0.578E-03
DAV:   6    -0.847213795786E+03   -0.53056E-06   -0.20712E-06  8816   0.271E-03
  38 F= -.85499750E+03 E0= -.85499731E+03  d E =-.169058E-03  mag=     0.0000
 trial-energy change:   -0.000169  1 .order   -0.000161   -0.000232   -0.000090
 step:   3.5999(harm=  4.1116)  dis= 0.00521  next Energy=  -854.997517 (dE=-0.189E-03)
 bond charge predicted
       N       E                     dE             d eps       ncg     rms          rms(c)
DAV:   1    -0.847213786628E+03    0.86274E-05   -0.18764E-02 10736   0.256E-01    0.274E-02
DAV:   2    -0.847213805854E+03   -0.19226E-04   -0.29370E-04 11104   0.307E-02    0.239E-02
DAV:   3    -0.847213801934E+03    0.39197E-05   -0.94005E-06 12784   0.682E-03    0.171E-02
DAV:   4    -0.847213803317E+03   -0.13822E-05   -0.13504E-05 10432   0.791E-03    0.447E-03
DAV:   5    -0.847213803403E+03   -0.86184E-07   -0.44264E-06 10736   0.391E-03
  39 F= -.85499753E+03 E0= -.85499734E+03  d E =-.197443E-03  mag=     0.0000
 curvature: -19.94 expect dE=-0.161E-02 dE for cont linesearch -0.249E-05
 trial: gam= 1.11245 g(F)=  0.808E-04 g(S)=  0.000E+00 ort = 0.112E-04 (trialstep = 0.204E+01)
 search vector abs. value=  0.134E-02
 bond charge predicted
       N       E                     dE             d eps       ncg     rms          rms(c)
DAV:   1    -0.847213819369E+03   -0.16052E-04   -0.91082E-02 10752   0.559E-01    0.599E-02
DAV:   2    -0.847213912305E+03   -0.92937E-04   -0.14162E-03 11048   0.667E-02    0.523E-02
DAV:   3    -0.847213892650E+03    0.19656E-04   -0.42931E-05 12960   0.144E-02    0.378E-02
DAV:   4    -0.847213897281E+03   -0.46316E-05   -0.64709E-05 11200   0.170E-02    0.970E-03
DAV:   5    -0.847213898026E+03   -0.74490E-06   -0.19307E-05 11744   0.788E-03    0.539E-03
DAV:   6    -0.847213898394E+03   -0.36744E-06   -0.18164E-06  8704   0.253E-03
  40 F= -.85499768E+03 E0= -.85499750E+03  d E =-.154627E-03  mag=     0.0000
 trial-energy change:   -0.000155  1 .order   -0.000148   -0.000190   -0.000107
 step:   3.4962(harm=  4.6465)  dis= 0.00583  next Energy=  -854.997720 (dE=-0.195E-03)
 bond charge predicted
       N       E                     dE             d eps       ncg     rms          rms(c)
DAV:   1    -0.847213872688E+03    0.25338E-04   -0.46638E-02 10736   0.400E-01    0.429E-02
DAV:   2    -0.847213920800E+03   -0.48112E-04   -0.73133E-04 11008   0.479E-02    0.374E-02
DAV:   3    -0.847213910871E+03    0.99291E-05   -0.22286E-05 12992   0.104E-02    0.270E-02
DAV:   4    -0.847213913568E+03   -0.26976E-05   -0.32928E-05 10704   0.121E-02    0.701E-03
DAV:   5    -0.847213913957E+03   -0.38889E-06   -0.10065E-05 11632   0.565E-03    0.389E-03
DAV:   6    -0.847213914149E+03   -0.19172E-06   -0.87317E-07  7104   0.181E-03
  41 F= -.85499774E+03 E0= -.85499755E+03  d E =-.212910E-03  mag=     0.0000
 curvature: -26.90 expect dE=-0.219E-02 dE for cont linesearch -0.990E-05
 ZBRENT: increasing intervall
 opt :   6.4120  next Energy=  -854.997715 (dE=-0.190E-03)
 bond charge predicted
       N       E                     dE             d eps       ncg     rms          rms(c)
DAV:   1    -0.847213656035E+03    0.25792E-03   -0.18630E-01 10736   0.799E-01    0.857E-02
DAV:   2    -0.847213845890E+03   -0.18985E-03   -0.29064E-03 11088   0.955E-02    0.749E-02
DAV:   3    -0.847213804642E+03    0.41248E-04   -0.88907E-05 12912   0.207E-02    0.540E-02
DAV:   4    -0.847213812716E+03   -0.80743E-05   -0.13277E-04 11392   0.243E-02    0.139E-02
DAV:   5    -0.847213814320E+03   -0.16033E-05   -0.39443E-05 11728   0.112E-02    0.769E-03
DAV:   6    -0.847213815083E+03   -0.76356E-06   -0.37388E-06  9904   0.359E-03
  42 F= -.85499772E+03 E0= -.85499754E+03  d E =-.198638E-03  mag=     0.0000
 curvature:  62.47 expect dE= 0.186E-01 dE for cont linesearch  0.645E-04
 ZBRENT: bracketing found
 ZBRENT: interpolating
 opt :   4.5864  next Energy=  -854.997750 (dE=-0.225E-03)
 bond charge predicted
       N       E                     dE             d eps       ncg     rms          rms(c)
DAV:   1    -0.847213841538E+03   -0.27218E-04   -0.72814E-02 10736   0.500E-01    0.534E-02
DAV:   2    -0.847213913229E+03   -0.71691E-04   -0.11138E-03 10976   0.593E-02    0.471E-02
DAV:   3    -0.847213895375E+03    0.17854E-04   -0.34663E-05 12896   0.129E-02    0.339E-02
DAV:   4    -0.847213896511E+03   -0.11360E-05   -0.52312E-05 10832   0.152E-02    0.858E-03
DAV:   5    -0.847213897063E+03   -0.55259E-06   -0.15904E-05 11600   0.705E-03    0.468E-03
DAV:   6    -0.847213897345E+03   -0.28161E-06   -0.12255E-06  7504   0.213E-03
  43 F= -.85499775E+03 E0= -.85499757E+03  d E =-.227877E-03  mag=     0.0000
 curvature: -11.73 expect dE=-0.162E-02 dE for cont linesearch -0.351E-06
 trial: gam= 1.84806 g(F)=  0.138E-03 g(S)=  0.000E+00 ort = 0.633E-05 (trialstep = 0.721E+00)
 search vector abs. value=  0.474E-02
 bond charge predicted
       N       E                     dE             d eps       ncg     rms          rms(c)
DAV:   1    -0.847213928731E+03   -0.31668E-04   -0.38818E-02 10736   0.365E-01    0.391E-02
DAV:   2    -0.847213965576E+03   -0.36845E-04   -0.58220E-04 10944   0.431E-02    0.344E-02
DAV:   3    -0.847213956368E+03    0.92084E-05   -0.18645E-05 12912   0.944E-03    0.243E-02
DAV:   4    -0.847213957633E+03   -0.12650E-05   -0.24957E-05 10672   0.105E-02    0.609E-03
DAV:   5    -0.847213957968E+03   -0.33536E-06   -0.81440E-06 11440   0.485E-03
  44 F= -.85499785E+03 E0= -.85499766E+03  d E =-.940145E-04  mag=     0.0000
 trial-energy change:   -0.000094  1 .order   -0.000094   -0.000108   -0.000081
 step:   2.8463(harm=  2.8463)  dis= 0.00905  next Energy=  -854.997966 (dE=-0.213E-03)
 bond charge predicted
       N       E                     dE             d eps       ncg     rms          rms(c)
DAV:   1    -0.847213748116E+03    0.20952E-03   -0.33898E-01 10736   0.108E+00    0.116E-01
DAV:   2    -0.847214080848E+03   -0.33273E-03   -0.51515E-03 11104   0.128E-01    0.101E-01
DAV:   3    -0.847214008845E+03    0.72003E-04   -0.16176E-04 12928   0.279E-02    0.716E-02
DAV:   4    -0.847214026606E+03   -0.17760E-04   -0.21685E-04 11344   0.310E-02    0.181E-02
DAV:   5    -0.847214029416E+03   -0.28104E-05   -0.69029E-05 11648   0.144E-02    0.945E-03
DAV:   6    -0.847214030566E+03   -0.11502E-05   -0.58816E-06 10304   0.453E-03    0.473E-03
DAV:   7    -0.847214030539E+03    0.27416E-07   -0.93771E-07  9008   0.209E-03
  45 F= -.85499802E+03 E0= -.85499783E+03  d E =-.265185E-03  mag=     0.0000
 curvature: -44.97 expect dE=-0.479E-02 dE for cont linesearch -0.142E-04
 ZBRENT: increasing intervall
 opt :   7.0978  next Energy=  -854.997871 (dE=-0.118E-03)
 bond charge predicted
       N       E                     dE             d eps       ncg     rms          rms(c)
DAV:   1    -0.847212583665E+03    0.14469E-02   -0.13539E+00 10736   0.216E+00    0.232E-01
DAV:   2    -0.847213918877E+03   -0.13352E-02   -0.20588E-02 11232   0.256E-01    0.203E-01
DAV:   3    -0.847213617946E+03    0.30093E-03   -0.64879E-04 12944   0.558E-02    0.143E-01
DAV:   4    -0.847213666303E+03   -0.48357E-04   -0.86086E-04 11408   0.618E-02    0.365E-02
DAV:   5    -0.847213679500E+03   -0.13197E-04   -0.27248E-04 11632   0.282E-02    0.189E-02
DAV:   6    -0.847213683757E+03   -0.42563E-05   -0.23871E-05 11328   0.908E-03    0.943E-03
DAV:   7    -0.847213683797E+03   -0.40316E-07   -0.41694E-06 11808   0.414E-03
  46 F= -.85499787E+03 E0= -.85499767E+03  d E =-.115878E-03  mag=     0.0000
 curvature: 465.68 expect dE= 0.236E+00 dE for cont linesearch  0.132E-02
 ZBRENT: bracketing found
 ZBRENT: interpolating
 opt :   3.9115  next Energy=  -854.998039 (dE=-0.286E-03)
 bond charge predicted
       N       E                     dE             d eps       ncg     rms          rms(c)
DAV:   1    -0.847213407350E+03    0.27641E-03   -0.76067E-01 10736   0.162E+00    0.173E-01
DAV:   2    -0.847214144307E+03   -0.73696E-03   -0.11420E-02 11072   0.191E-01    0.152E-01
DAV:   3    -0.847213971514E+03    0.17279E-03   -0.36676E-04 12896   0.420E-02    0.107E-01
DAV:   4    -0.847213996616E+03   -0.25102E-04   -0.47942E-04 11392   0.462E-02    0.268E-02
DAV:   5    -0.847214002379E+03   -0.57632E-05   -0.15891E-04 11536   0.217E-02    0.137E-02
DAV:   6    -0.847214005261E+03   -0.28815E-05   -0.11682E-05 11312   0.638E-03    0.702E-03
DAV:   7    -0.847214005201E+03    0.59757E-07   -0.19584E-06 10032   0.298E-03
  47 F= -.85499804E+03 E0= -.85499785E+03  d E =-.289317E-03  mag=     0.0000
 curvature:  -7.29 expect dE=-0.113E-02 dE for cont linesearch -0.108E-06
 trial: gam= 0.86293 g(F)=  0.155E-03 g(S)=  0.000E+00 ort = 0.838E-05 (trialstep = 0.136E+01)
 search vector abs. value=  0.370E-02
 bond charge predicted
       N       E                     dE             d eps       ncg     rms          rms(c)
DAV:   1    -0.847214024613E+03   -0.19353E-04   -0.10914E-01 10736   0.613E-01    0.660E-02
DAV:   2    -0.847214132360E+03   -0.10775E-03   -0.16789E-03 10896   0.731E-02    0.580E-02
DAV:   3    -0.847214106768E+03    0.25592E-04   -0.53958E-05 13072   0.161E-02    0.413E-02
DAV:   4    -0.847214110425E+03   -0.36571E-05   -0.74164E-05 11312   0.183E-02    0.105E-02
DAV:   5    -0.847214111298E+03   -0.87258E-06   -0.23831E-05 11536   0.872E-03    0.544E-03
DAV:   6    -0.847214111741E+03   -0.44365E-06   -0.18422E-06  8432   0.256E-03
  48 F= -.85499821E+03 E0= -.85499802E+03  d E =-.164445E-03  mag=     0.0000
 trial-energy change:   -0.000164  1 .order   -0.000163   -0.000220   -0.000107
 step:   2.6398(harm=  2.6398)  dis= 0.00740  next Energy=  -854.998256 (dE=-0.214E-03)
 bond charge predicted
       N       E                     dE             d eps       ncg     rms          rms(c)
DAV:   1    -0.847214036354E+03    0.74944E-04   -0.97218E-02 10736   0.578E-01    0.623E-02
DAV:   2    -0.847214134199E+03   -0.97846E-04   -0.15122E-03 10928   0.692E-02    0.544E-02
DAV:   3    -0.847214112866E+03    0.21333E-04   -0.48339E-05 13136   0.152E-02    0.387E-02
DAV:   4    -0.847214118336E+03   -0.54701E-05   -0.65556E-05 11184   0.172E-02    0.100E-02
DAV:   5    -0.847214119179E+03   -0.84333E-06   -0.21233E-05 11520   0.824E-03    0.520E-03
DAV:   6    -0.847214119608E+03   -0.42808E-06   -0.16135E-06  8160   0.243E-03
  49 F= -.85499827E+03 E0= -.85499808E+03  d E =-.226671E-03  mag=     0.0000
 curvature: -30.15 expect dE=-0.252E-02 dE for cont linesearch -0.524E-06
 trial: gam= 0.46648 g(F)=  0.835E-04 g(S)=  0.000E+00 ort = 0.801E-05 (trialstep = 0.161E+01)
 search vector abs. value=  0.895E-03
 bond charge predicted
       N       E                     dE             d eps       ncg     rms          rms(c)
DAV:   1    -0.847214160529E+03   -0.41349E-04   -0.36783E-02 10704   0.361E-01    0.383E-02
DAV:   2    -0.847214198625E+03   -0.38096E-04   -0.58148E-04 11040   0.433E-02    0.335E-02
DAV:   3    -0.847214190685E+03    0.79402E-05   -0.19207E-05 13280   0.960E-03    0.240E-02
DAV:   4    -0.847214192883E+03   -0.21985E-05   -0.24535E-05 10704   0.106E-02    0.658E-03
DAV:   5    -0.847214193348E+03   -0.46467E-06   -0.78470E-06 11488   0.505E-03
  50 F= -.85499838E+03 E0= -.85499819E+03  d E =-.107148E-03  mag=     0.0000
 trial-energy change:   -0.000107  1 .order   -0.000102   -0.000141   -0.000064
 step:   2.4588(harm=  2.9487)  dis= 0.00332  next Energy=  -854.998394 (dE=-0.124E-03)
 bond charge predicted
       N       E                     dE             d eps       ncg     rms          rms(c)
DAV:   1    -0.847214191818E+03    0.10654E-05   -0.10077E-02 10704   0.189E-01    0.202E-02
DAV:   2    -0.847214202738E+03   -0.10920E-04   -0.16043E-04 11168   0.227E-02    0.175E-02
DAV:   3    -0.847214200930E+03    0.18083E-05   -0.51241E-06 12144   0.502E-03    0.126E-02
DAV:   4    -0.847214201887E+03   -0.95712E-06   -0.68497E-06 10336   0.564E-03
  51 F= -.85499840E+03 E0= -.85499821E+03  d E =-.133062E-03  mag=     0.0000
 curvature: -13.09 expect dE=-0.524E-03 dE for cont linesearch -0.203E-05
 ZBRENT: extrapolating
 opt :   2.8183  next Energy=  -854.998404 (dE=-0.135E-03)
 bond charge predicted
       N       E                     dE             d eps       ncg     rms          rms(c)
DAV:   1    -0.847214197286E+03    0.36431E-05   -0.18645E-03 10720   0.812E-02    0.949E-03
DAV:   2    -0.847214199307E+03   -0.20207E-05   -0.28828E-05 11360   0.971E-03    0.815E-03
DAV:   3    -0.847214199099E+03    0.20769E-06   -0.77444E-07  8448   0.215E-03
  52 F= -.85499841E+03 E0= -.85499822E+03  d E =-.137659E-03  mag=     0.0000
 curvature: -13.66 expect dE=-0.684E-03 dE for cont linesearch -0.157E-05
 ZBRENT: increasing intervall
 opt :   3.5371  next Energy=  -854.998413 (dE=-0.144E-03)
 bond charge predicted
       N       E                     dE             d eps       ncg     rms          rms(c)
DAV:   1    -0.847214176502E+03    0.22805E-04   -0.71531E-03 10688   0.159E-01    0.175E-02
DAV:   2    -0.847214183612E+03   -0.71106E-05   -0.10640E-04 11328   0.185E-02    0.153E-02
DAV:   3    -0.847214182371E+03    0.12413E-05   -0.33115E-06 11216   0.405E-03    0.108E-02
DAV:   4    -0.847214183147E+03   -0.77613E-06   -0.50299E-06 10032   0.476E-03
  53 F= -.85499841E+03 E0= -.85499822E+03  d E =-.136432E-03  mag=     0.0000
 curvature: -53.19 expect dE=-0.458E-02 dE for cont linesearch -0.205E-04
 ZBRENT: bracketing found
 ZBRENT: interpolating
 opt :   3.0720  next Energy=  -854.998408 (dE=-0.139E-03)
 bond charge predicted
       N       E                     dE             d eps       ncg     rms          rms(c)
DAV:   1    -0.847214193346E+03   -0.10975E-04   -0.29890E-03 10688   0.103E-01    0.104E-02
DAV:   2    -0.847214196346E+03   -0.29993E-05   -0.48044E-05 11056   0.124E-02    0.931E-03
DAV:   3    -0.847214195437E+03    0.90884E-06   -0.15276E-06  9520   0.280E-03
  54 F= -.85499841E+03 E0= -.85499822E+03  d E =-.139202E-03  mag=     0.0000
 curvature:  -3.33 expect dE=-0.208E-03 dE for cont linesearch -0.233E-07
 trial: gam= 0.84960 g(F)=  0.623E-04 g(S)=  0.000E+00 ort =-0.250E-05 (trialstep = 0.191E+01)
 search vector abs. value=  0.704E-03
 bond charge predicted
       N       E                     dE             d eps       ncg     rms          rms(c)
DAV:   1    -0.847214224067E+03   -0.27721E-04   -0.38603E-02 10704   0.372E-01    0.382E-02
DAV:   2    -0.847214264033E+03   -0.39966E-04   -0.61716E-04 10992   0.448E-02    0.337E-02
DAV:   3    -0.847214254724E+03    0.93083E-05   -0.20875E-05 13216   0.996E-03    0.241E-02
DAV:   4    -0.847214255467E+03   -0.74293E-06   -0.24421E-05 10592   0.106E-02    0.691E-03
DAV:   5    -0.847214256080E+03   -0.61264E-06   -0.77493E-06 11232   0.479E-03
  55 F= -.85499849E+03 E0= -.85499830E+03  d E =-.818043E-04  mag=     0.0000
 trial-energy change:   -0.000082  1 .order   -0.000077   -0.000115   -0.000039
 step:   2.5668(harm=  2.9030)  dis= 0.00310  next Energy=  -854.998497 (dE=-0.888E-04)
 bond charge predicted
       N       E                     dE             d eps       ncg     rms          rms(c)
DAV:   1    -0.847214254803E+03    0.66437E-06   -0.46328E-03 10720   0.129E-01    0.138E-02
DAV:   2    -0.847214259841E+03   -0.50378E-05   -0.73578E-05 11328   0.155E-02    0.120E-02
DAV:   3    -0.847214259118E+03    0.72291E-06   -0.22809E-06 10384   0.344E-03
  56 F= -.85499850E+03 E0= -.85499831E+03  d E =-.921383E-04  mag=     0.0000
 curvature: -15.05 expect dE=-0.535E-03 dE for cont linesearch -0.303E-05
 ZBRENT: increasing intervall
 opt :   3.8877  next Energy=  -854.998505 (dE=-0.963E-04)
 bond charge predicted
       N       E                     dE             d eps       ncg     rms          rms(c)
DAV:   1    -0.847214223787E+03    0.36053E-04   -0.18093E-02 10688   0.255E-01    0.284E-02
DAV:   2    -0.847214241128E+03   -0.17341E-04   -0.26744E-04 11360   0.295E-02    0.248E-02
DAV:   3    -0.847214238070E+03    0.30583E-05   -0.93411E-06 12960   0.676E-03    0.171E-02
DAV:   4    -0.847214240114E+03   -0.20443E-05   -0.10427E-05 10624   0.694E-03    0.436E-03
DAV:   5    -0.847214240269E+03   -0.15437E-06   -0.35135E-06  9488   0.328E-03
  57 F= -.85499850E+03 E0= -.85499831E+03  d E =-.878204E-04  mag=     0.0000
 curvature: -20.72 expect dE=-0.165E-02 dE for cont linesearch -0.126E-04
 ZBRENT: bracketing found
 ZBRENT: interpolating
 opt :   3.0494  next Energy=  -854.998503 (dE=-0.950E-04)
 bond charge predicted
       N       E                     dE             d eps       ncg     rms          rms(c)
DAV:   1    -0.847214251585E+03   -0.11470E-04   -0.73435E-03 10688   0.162E-01    0.173E-02
DAV:   2    -0.847214258577E+03   -0.69921E-05   -0.11216E-04 11072   0.191E-02    0.153E-02
DAV:   3    -0.847214256647E+03    0.19296E-05   -0.39405E-06 11440   0.439E-03    0.107E-02
DAV:   4    -0.847214256728E+03   -0.81127E-07   -0.49975E-06 10032   0.473E-03
  58 F= -.85499850E+03 E0= -.85499832E+03  d E =-.950683E-04  mag=     0.0000
 curvature:  -4.73 expect dE=-0.224E-03 dE for cont linesearch -0.140E-06
 trial: gam= 0.70758 g(F)=  0.474E-04 g(S)=  0.000E+00 ort = 0.456E-05 (trialstep = 0.213E+01)
 search vector abs. value=  0.406E-03
 bond charge predicted
       N       E                     dE             d eps       ncg     rms          rms(c)
DAV:   1    -0.847214295489E+03   -0.38842E-04   -0.28559E-02 10688   0.319E-01    0.330E-02
DAV:   2    -0.847214325862E+03   -0.30373E-04   -0.46249E-04 11072   0.385E-02    0.291E-02
DAV:   3    -0.847214318802E+03    0.70599E-05   -0.14640E-05 13216   0.866E-03    0.211E-02
DAV:   4    -0.847214319036E+03   -0.23386E-06   -0.20164E-05 10640   0.955E-03    0.589E-03
DAV:   5    -0.847214319492E+03   -0.45646E-06   -0.61096E-06 10880   0.437E-03
  59 F= -.85499858E+03 E0= -.85499839E+03  d E =-.725867E-04  mag=     0.0000
 trial-energy change:   -0.000073  1 .order   -0.000074   -0.000108   -0.000039
 step:   3.3385(harm=  3.3385)  dis= 0.00307  next Energy=  -854.998588 (dE=-0.845E-04)
 bond charge predicted
       N       E                     dE             d eps       ncg     rms          rms(c)
DAV:   1    -0.847214320028E+03   -0.99267E-06   -0.91635E-03 10720   0.181E-01    0.193E-02
DAV:   2    -0.847214330257E+03   -0.10228E-04   -0.14853E-04 11184   0.218E-02    0.167E-02
DAV:   3    -0.847214328621E+03    0.16359E-05   -0.44491E-06 11680   0.489E-03    0.121E-02
DAV:   4    -0.847214329549E+03   -0.92813E-06   -0.66551E-06 10192   0.551E-03
  60 F= -.85499859E+03 E0= -.85499840E+03  d E =-.881003E-04  mag=     0.0000
 curvature: -13.40 expect dE=-0.541E-03 dE for cont linesearch -0.267E-07
 trial: gam= 0.74191 g(F)=  0.404E-04 g(S)=  0.000E+00 ort = 0.899E-06 (trialstep = 0.238E+01)
 search vector abs. value=  0.265E-03
 bond charge predicted
       N       E                     dE             d eps       ncg     rms          rms(c)
DAV:   1    -0.847214373224E+03   -0.44603E-04   -0.21108E-02 10720   0.281E-01    0.302E-02
DAV:   2    -0.847214394765E+03   -0.21541E-04   -0.32865E-04 11376   0.335E-02    0.266E-02
DAV:   3    -0.847214390246E+03    0.45188E-05   -0.12285E-05 13232   0.824E-03    0.183E-02
DAV:   4    -0.847214391944E+03   -0.16971E-05   -0.14213E-05 10896   0.805E-03    0.558E-03
DAV:   5    -0.847214392218E+03   -0.27422E-06   -0.43144E-06  9200   0.393E-03
  61 F= -.85499866E+03 E0= -.85499847E+03  d E =-.674777E-04  mag=     0.0000
 trial-energy change:   -0.000067  1 .order   -0.000061   -0.000098   -0.000024
 step:   2.8545(harm=  3.1637)  dis= 0.00214  next Energy=  -854.998661 (dE=-0.700E-04)
 reached required accuracy - stopping structural energy minimisation
