<?xml version="1.0" encoding="ISO-8859-1"?>
<modeling>
 <generator>
  <i name="program" type="string">vasp </i>
  <i name="version" type="string">6.4.2  </i>
  <i name="subversion" type="string">20Jul23 (build Jan 24 2024 13:44:02) complex                          parallel </i>
  <i name="platform" type="string">LinuxNV </i>
  <i name="date" type="string">2025 11 25 </i>
  <i name="time" type="string">12:17:47 </i>
 </generator>
 <incar>
  <i type="int" name="ISTART">     0</i>
  <i type="string" name="ALGO">Normal</i>
  <i type="logical" name="ADDGRID"> T  </i>
  <i type="int" name="ISPIN">     2</i>
  <i type="int" name="IMIX">     4</i>
  <i name="AMIX">      0.20000000</i>
  <i name="BMIX">      0.00010000</i>
  <i name="AMIX_MAG">      0.80000000</i>
  <i name="BMIX_MAG">      0.00010000</i>
  <i type="int" name="ICHARG">     2</i>
  <i type="int" name="NELM">   200</i>
  <i type="int" name="IBRION">     2</i>
  <i name="EDIFF">      0.00000100</i>
  <i name="EDIFFG">     -0.01000000</i>
  <i type="int" name="NSW">   300</i>
  <i type="int" name="ISIF">     2</i>
  <i type="int" name="ISYM">     0</i>
  <i name="ENCUT">    520.00000000</i>
  <i name="POTIM">      0.10000000</i>
  <v name="MAGMOM">      0.60000000      0.60000000      0.60000000      0.60000000      0.60000000      0.60000000      0.60000000      0.60000000      0.60000000      0.60000000      0.60000000      0.60000000      0.60000000      0.60000000      0.60000000      0.60000000      0.60000000      0.60000000      0.60000000      0.60000000
      0.60000000      0.60000000      0.60000000      0.60000000      0.60000000      0.60000000      0.60000000      0.60000000      0.60000000      0.60000000      0.60000000      0.60000000      0.60000000      0.60000000      0.60000000      0.60000000      0.60000000      0.60000000      0.60000000      0.60000000
      0.60000000      0.60000000      0.60000000      0.60000000      0.60000000      0.60000000      0.60000000      0.60000000      0.60000000      0.60000000      0.60000000      0.60000000      0.60000000      0.60000000      0.60000000      0.60000000      0.60000000      0.60000000      0.60000000      0.60000000
      0.60000000      0.60000000      0.60000000      0.60000000      0.60000000      0.60000000      0.60000000      0.60000000      0.60000000      0.60000000      0.60000000      0.60000000      0.60000000      0.60000000      0.60000000      0.60000000      0.60000000      0.60000000      0.60000000      0.60000000
      0.60000000      0.60000000      0.60000000      0.60000000      0.60000000      0.60000000      0.60000000      0.60000000      0.60000000      0.60000000      0.60000000      0.60000000      0.60000000      0.60000000      0.60000000      0.60000000      0.60000000      0.60000000</v>
  <i type="logical" name="LREAL"> F  </i>
  <i type="int" name="ISMEAR">     0</i>
  <i name="SIGMA">      0.05000000</i>
  <i type="logical" name="LWAVE"> F  </i>
  <i type="logical" name="LCHARG"> F  </i>
  <i type="logical" name="LASPH"> T  </i>
  <i type="int" name="IVDW">    12</i>
 </incar>
 <primitive_cell>
  <structure name="primitive_cell" >
   <crystal>
    <varray name="basis" >
     <v>      17.27103806       0.00000000       0.00000000 </v>
     <v>      -8.63551903      14.95715771       0.00000000 </v>
     <v>       0.00000000       0.00000000      15.00000000 </v>
    </varray>
    <i name="volume">   3874.88459904 </i>
    <varray name="rec_basis" >
     <v>       0.05790040       0.03342881      -0.00000000 </v>
     <v>       0.00000000       0.06685762       0.00000000 </v>
     <v>       0.00000000      -0.00000000       0.06666667 </v>
    </varray>
   </crystal>
   <varray name="positions" >
    <v>       0.99994302       0.00011198       0.49825652 </v>
    <v>       0.99979129       0.14287146       0.49981521 </v>
    <v>       0.00005137       0.28594179       0.50069867 </v>
    <v>       0.00036412       0.42886653       0.50048399 </v>
    <v>       0.00058898       0.57172042       0.49904337 </v>
    <v>       0.00117176       0.71482254       0.49766660 </v>
    <v>       0.00087298       0.85788195       0.49738698 </v>
    <v>       0.14327317       0.00072478       0.49819581 </v>
    <v>       0.14297460       0.14345106       0.49937056 </v>
    <v>       0.14281338       0.28613423       0.49990277 </v>
    <v>       0.14338001       0.42956676       0.50023628 </v>
    <v>       0.14361215       0.57189293       0.49998452 </v>
    <v>       0.14357345       0.71461485       0.49867951 </v>
    <v>       0.14333973       0.85769773       0.49792556 </v>
    <v>       0.28585256       0.00028307       0.49971925 </v>
    <v>       0.28594724       0.14312553       0.50034957 </v>
    <v>       0.28644461       0.28775120       0.49995183 </v>
    <v>       0.28567067       0.42948289       0.49817563 </v>
    <v>       0.28820036       0.57276605       0.49951007 </v>
    <v>       0.28644091       0.71546719       0.49993081 </v>
    <v>       0.28564988       0.85790737       0.49956291 </v>
    <v>       0.42876324       0.00008218       0.50111803 </v>
    <v>       0.42864848       0.14260175       0.50202514 </v>
    <v>       0.42724112       0.28242336       0.50460589 </v>
    <v>       0.42787435       0.85702694       0.50078999 </v>
    <v>       0.57109357       0.99966607       0.50179251 </v>
    <v>       0.57156476       0.14239130       0.50253358 </v>
    <v>       0.57253400       0.28584979       0.50339975 </v>
    <v>       0.57016351       0.85562171       0.50160459 </v>
    <v>       0.71334791       0.99902012       0.50140287 </v>
    <v>       0.71435575       0.14253443       0.50201412 </v>
    <v>       0.71462467       0.28554803       0.50217484 </v>
    <v>       0.71419073       0.42769623       0.50166218 </v>
    <v>       0.71788347       0.57341041       0.50137965 </v>
    <v>       0.71740063       0.71488128       0.50154895 </v>
    <v>       0.71230696       0.85604511       0.50106120 </v>
    <v>       0.85663485       0.99964122       0.49992816 </v>
    <v>       0.85677377       0.14252610       0.50100907 </v>
    <v>       0.85725947       0.28556557       0.50135817 </v>
    <v>       0.85771888       0.42860167       0.50055693 </v>
    <v>       0.85803724       0.57194011       0.49915424 </v>
    <v>       0.85926345       0.71523862       0.49856538 </v>
    <v>       0.85727523       0.85695222       0.49891461 </v>
    <v>       0.04768674       0.09548240       0.49901980 </v>
    <v>       0.04729146       0.23805744       0.50021868 </v>
    <v>       0.04773059       0.38134093       0.50061571 </v>
    <v>       0.04831317       0.52418672       0.49985605 </v>
    <v>       0.04835263       0.66705780       0.49829788 </v>
    <v>       0.04821951       0.81001856       0.49736460 </v>
    <v>       0.04796982       0.95284209       0.49768487 </v>
    <v>       0.19070703       0.09563389       0.49906002 </v>
    <v>       0.19055498       0.23874391       0.49985110 </v>
    <v>       0.18998351       0.38134493       0.49970475 </v>
    <v>       0.19179570       0.52505083       0.50021754 </v>
    <v>       0.19114210       0.66724816       0.49951844 </v>
    <v>       0.19077982       0.81004942       0.49858873 </v>
    <v>       0.19086220       0.95286217       0.49843144 </v>
    <v>       0.33354369       0.09559802       0.50077853 </v>
    <v>       0.33437344       0.23838400       0.50169645 </v>
    <v>       0.33108277       0.38071996       0.49791901 </v>
    <v>       0.33238620       0.52410676       0.49751354 </v>
    <v>       0.33736911       0.67100847       0.50018563 </v>
    <v>       0.33313739       0.81022900       0.50009939 </v>
    <v>       0.33336590       0.95281095       0.50012462 </v>
    <v>       0.47637874       0.09501596       0.50190814 </v>
    <v>       0.47574742       0.23762947       0.50359966 </v>
    <v>       0.47252595       0.80646048       0.50119823 </v>
    <v>       0.47608769       0.95236697       0.50127075 </v>
    <v>       0.61892745       0.09478487       0.50217920 </v>
    <v>       0.61947986       0.23771533       0.50287267 </v>
    <v>       0.62129625       0.37910450       0.50266748 </v>
    <v>       0.61888213       0.81101971       0.50159237 </v>
    <v>       0.61794083       0.95128886       0.50167205 </v>
    <v>       0.76156419       0.09474008       0.50151246 </v>
    <v>       0.76217799       0.23771658       0.50188579 </v>
    <v>       0.76245157       0.38073119       0.50152224 </v>
    <v>       0.76222438       0.52495535       0.50063043 </v>
    <v>       0.76398214       0.66742625       0.50039813 </v>
    <v>       0.76126981       0.80766713       0.50052322 </v>
    <v>       0.76105145       0.95160171       0.50075825 </v>
    <v>       0.90430129       0.09470267       0.50023883 </v>
    <v>       0.90466377       0.23789582       0.50106483 </v>
    <v>       0.90502987       0.38109987       0.50081312 </v>
    <v>       0.90538625       0.52417836       0.49940399 </v>
    <v>       0.90594173       0.66710587       0.49813590 </v>
    <v>       0.90557606       0.81007681       0.49800634 </v>
    <v>       0.90462380       0.95211229       0.49880491 </v>
    <v>       0.46340965       0.35486870       0.50790562 </v>
    <v>       0.40378588       0.41924983       0.49712357 </v>
    <v>       0.40529410       0.56066402       0.49454242 </v>
    <v>       0.64473791       0.67555852       0.50403022 </v>
    <v>       0.64522089       0.54005252       0.50319261 </v>
    <v>       0.58527423       0.41559193       0.50244844 </v>
    <v>       0.58010634       0.73833082       0.50177257 </v>
    <v>       0.46800951       0.53900821       0.62336042 </v>
    <v>       0.55503944       0.54559717       0.65853768 </v>
    <v>       0.42739229       0.71597227       0.50101301 </v>
    <v>       0.51983169       0.53495519       0.60466391 </v>
   </varray>
  </structure>
  <varray name="primitive_index" >
   <v type="int" >        1 </v>
   <v type="int" >        2 </v>
   <v type="int" >        3 </v>
   <v type="int" >        4 </v>
   <v type="int" >        5 </v>
   <v type="int" >        6 </v>
   <v type="int" >        7 </v>
   <v type="int" >        8 </v>
   <v type="int" >        9 </v>
   <v type="int" >       10 </v>
   <v type="int" >       11 </v>
   <v type="int" >       12 </v>
   <v type="int" >       13 </v>
   <v type="int" >       14 </v>
   <v type="int" >       15 </v>
   <v type="int" >       16 </v>
   <v type="int" >       17 </v>
   <v type="int" >       18 </v>
   <v type="int" >       19 </v>
   <v type="int" >       20 </v>
   <v type="int" >       21 </v>
   <v type="int" >       22 </v>
   <v type="int" >       23 </v>
   <v type="int" >       24 </v>
   <v type="int" >       25 </v>
   <v type="int" >       26 </v>
   <v type="int" >       27 </v>
   <v type="int" >       28 </v>
   <v type="int" >       29 </v>
   <v type="int" >       30 </v>
   <v type="int" >       31 </v>
   <v type="int" >       32 </v>
   <v type="int" >       33 </v>
   <v type="int" >       34 </v>
   <v type="int" >       35 </v>
   <v type="int" >       36 </v>
   <v type="int" >       37 </v>
   <v type="int" >       38 </v>
   <v type="int" >       39 </v>
   <v type="int" >       40 </v>
   <v type="int" >       41 </v>
   <v type="int" >       42 </v>
   <v type="int" >       43 </v>
   <v type="int" >       44 </v>
   <v type="int" >       45 </v>
   <v type="int" >       46 </v>
   <v type="int" >       47 </v>
   <v type="int" >       48 </v>
   <v type="int" >       49 </v>
   <v type="int" >       50 </v>
   <v type="int" >       51 </v>
   <v type="int" >       52 </v>
   <v type="int" >       53 </v>
   <v type="int" >       54 </v>
   <v type="int" >       55 </v>
   <v type="int" >       56 </v>
   <v type="int" >       57 </v>
   <v type="int" >       58 </v>
   <v type="int" >       59 </v>
   <v type="int" >       60 </v>
   <v type="int" >       61 </v>
   <v type="int" >       62 </v>
   <v type="int" >       63 </v>
   <v type="int" >       64 </v>
   <v type="int" >       65 </v>
   <v type="int" >       66 </v>
   <v type="int" >       67 </v>
   <v type="int" >       68 </v>
   <v type="int" >       69 </v>
   <v type="int" >       70 </v>
   <v type="int" >       71 </v>
   <v type="int" >       72 </v>
   <v type="int" >       73 </v>
   <v type="int" >       74 </v>
   <v type="int" >       75 </v>
   <v type="int" >       76 </v>
   <v type="int" >       77 </v>
   <v type="int" >       78 </v>
   <v type="int" >       79 </v>
   <v type="int" >       80 </v>
   <v type="int" >       81 </v>
   <v type="int" >       82 </v>
   <v type="int" >       83 </v>
   <v type="int" >       84 </v>
   <v type="int" >       85 </v>
   <v type="int" >       86 </v>
   <v type="int" >       87 </v>
   <v type="int" >       88 </v>
   <v type="int" >       89 </v>
   <v type="int" >       90 </v>
   <v type="int" >       91 </v>
   <v type="int" >       92 </v>
   <v type="int" >       93 </v>
   <v type="int" >       94 </v>
   <v type="int" >       95 </v>
   <v type="int" >       96 </v>
   <v type="int" >       97 </v>
   <v type="int" >       98 </v>
  </varray>
 </primitive_cell>
 <kpoints>
  <generation param="Gamma">
   <v type="int" name="divisions">       4        4        1 </v>
   <v name="usershift">      0.00000000       0.00000000       0.00000000 </v>
   <v name="genvec1">      0.25000000       0.00000000       0.00000000 </v>
   <v name="genvec2">      0.00000000       0.25000000       0.00000000 </v>
   <v name="genvec3">      0.00000000       0.00000000       1.00000000 </v>
   <v name="shift">      0.00000000       0.00000000       0.00000000 </v>
  </generation>
  <varray name="kpointlist" >
   <v>       0.00000000       0.00000000       0.00000000 </v>
   <v>       0.25000000       0.00000000       0.00000000 </v>
   <v>       0.00000000       0.25000000       0.00000000 </v>
   <v>      -0.25000000       0.25000000       0.00000000 </v>
   <v>       0.50000000       0.00000000       0.00000000 </v>
   <v>       0.00000000       0.50000000       0.00000000 </v>
   <v>       0.50000000       0.50000000       0.00000000 </v>
   <v>       0.25000000       0.25000000       0.00000000 </v>
   <v>      -0.25000000       0.50000000       0.00000000 </v>
   <v>       0.50000000       0.25000000       0.00000000 </v>
  </varray>
  <varray name="weights" >
   <v>       0.06250000 </v>
   <v>       0.12500000 </v>
   <v>       0.12500000 </v>
   <v>       0.12500000 </v>
   <v>       0.06250000 </v>
   <v>       0.06250000 </v>
   <v>       0.06250000 </v>
   <v>       0.12500000 </v>
   <v>       0.12500000 </v>
   <v>       0.12500000 </v>
  </varray>
 </kpoints>
 <parameters>
  <separator name="general" >
   <i type="string" name="SYSTEM">unknown system</i>
   <i type="logical" name="LCOMPAT"> F  </i>
  </separator>
  <separator name="electronic" >
   <i type="string" name="PREC">normal</i>
   <i name="ENMAX">    520.00000000</i>
   <i name="ENAUG">    644.87300000</i>
   <i name="EDIFF">      0.00000100</i>
   <i type="int" name="IALGO">    38</i>
   <i type="int" name="IWAVPR">    11</i>
   <i type="int" name="NBANDS">   264</i>
   <i type="int" name="NBANDSLOW">    -1</i>
   <i type="int" name="NBANDSHIGH">    -1</i>
   <i name="NELECT">    368.00000000</i>
   <i type="int" name="TURBO">     0</i>
   <i type="int" name="IRESTART">     0</i>
   <i type="int" name="NREBOOT">     0</i>
   <i type="int" name="NMIN">     0</i>
   <i name="EREF">      0.00000000</i>
   <separator name="electronic smearing" >
    <i type="int" name="ISMEAR">     0</i>
    <i name="SIGMA">      0.05000000</i>
    <i name="KSPACING">      0.50000000</i>
    <i type="logical" name="KGAMMA"> T  </i>
    <i type="logical" name="KBLOWUP"> T  </i>
   </separator>
   <separator name="electronic projectors" >
    <i type="logical" name="LREAL"> F  </i>
    <v name="ROPT">      0.00000000      0.00000000      0.00000000      0.00000000</v>
    <i type="int" name="LMAXPAW">  -100</i>
    <i type="int" name="LMAXMIX">     2</i>
    <i type="logical" name="NLSPLINE"> F  </i>
   </separator>
   <separator name="electronic startup" >
    <i type="int" name="ISTART">     0</i>
    <i type="int" name="ICHARG">     2</i>
    <i type="int" name="INIWAV">     1</i>
   </separator>
   <separator name="electronic spin" >
    <i type="int" name="ISPIN">     2</i>
    <i type="logical" name="LNONCOLLINEAR"> F  </i>
    <v name="MAGMOM">      0.60000000      0.60000000      0.60000000      0.60000000      0.60000000      0.60000000      0.60000000      0.60000000      0.60000000      0.60000000      0.60000000      0.60000000      0.60000000      0.60000000      0.60000000      0.60000000      0.60000000      0.60000000      0.60000000      0.60000000
      0.60000000      0.60000000      0.60000000      0.60000000      0.60000000      0.60000000      0.60000000      0.60000000      0.60000000      0.60000000      0.60000000      0.60000000      0.60000000      0.60000000      0.60000000      0.60000000      0.60000000      0.60000000      0.60000000      0.60000000
      0.60000000      0.60000000      0.60000000      0.60000000      0.60000000      0.60000000      0.60000000      0.60000000      0.60000000      0.60000000      0.60000000      0.60000000      0.60000000      0.60000000      0.60000000      0.60000000      0.60000000      0.60000000      0.60000000      0.60000000
      0.60000000      0.60000000      0.60000000      0.60000000      0.60000000      0.60000000      0.60000000      0.60000000      0.60000000      0.60000000      0.60000000      0.60000000      0.60000000      0.60000000      0.60000000      0.60000000      0.60000000      0.60000000      0.60000000      0.60000000
      0.60000000      0.60000000      0.60000000      0.60000000      0.60000000      0.60000000      0.60000000      0.60000000      0.60000000      0.60000000      0.60000000      0.60000000      0.60000000      0.60000000      0.60000000      0.60000000      0.60000000      0.60000000</v>
    <i name="NUPDOWN">     -1.00000000</i>
    <i type="logical" name="LSORBIT"> F  </i>
    <v name="SAXIS">      0.00000000      0.00000000      1.00000000</v>
    <i type="logical" name="LSPIRAL"> F  </i>
    <v name="QSPIRAL">      0.00000000      0.00000000      0.00000000</v>
    <i type="logical" name="LZEROZ"> F  </i>
   </separator>
   <separator name="electronic exchange-correlation" >
    <i type="logical" name="LASPH"> T  </i>
    <i type="logical" name="LMETAGGA"> F  </i>
   </separator>
   <separator name="electronic convergence" >
    <i type="int" name="NELM">   200</i>
    <i type="int" name="NELMDL">    -5</i>
    <i type="int" name="NELMIN">     2</i>
    <i name="ENINI">    520.00000000</i>
    <separator name="electronic convergence detail" >
     <i type="logical" name="LDIAG"> T  </i>
     <i type="logical" name="LSUBROT"> F  </i>
     <i name="WEIMIN">      0.00100000</i>
     <i name="EBREAK">      0.00000000</i>
     <i name="DEPER">      0.30000000</i>
     <i type="int" name="NRMM">     4</i>
     <i name="TIME">      0.40000000</i>
    </separator>
   </separator>
   <separator name="electronic mixer" >
    <i name="AMIX">      0.20000000</i>
    <i name="BMIX">      0.00010000</i>
    <i name="AMIN">      0.10000000</i>
    <i name="AMIX_MAG">      0.80000000</i>
    <i name="BMIX_MAG">      0.00010000</i>
    <separator name="electronic mixer details" >
     <i type="int" name="IMIX">     4</i>
     <i type="logical" name="MIXFIRST"> F  </i>
     <i type="int" name="MAXMIX">   -45</i>
     <i name="WC">    100.00000000</i>
     <i type="int" name="INIMIX">     1</i>
     <i type="int" name="MIXPRE">     1</i>
     <i type="int" name="MREMOVE">     5</i>
    </separator>
   </separator>
   <separator name="electronic dipolcorrection" >
    <i type="logical" name="LDIPOL"> F  </i>
    <i type="logical" name="LMONO"> F  </i>
    <i type="int" name="IDIPOL">     0</i>
    <i name="EPSILON">      1.00000000</i>
    <v name="DIPOL">   -100.00000000   -100.00000000   -100.00000000</v>
    <i name="EFIELD">      0.00000000</i>
   </separator>
  </separator>
  <separator name="grids" >
   <i type="int" name="NGX">    96</i>
   <i type="int" name="NGY">    96</i>
   <i type="int" name="NGZ">    84</i>
   <i type="int" name="NGXF">   192</i>
   <i type="int" name="NGYF">   192</i>
   <i type="int" name="NGZF">   168</i>
   <i type="logical" name="ADDGRID"> T  </i>
  </separator>
  <separator name="ionic" >
   <i type="int" name="NSW">   300</i>
   <i type="int" name="IBRION">     2</i>
   <i type="int" name="MDALGO">     0</i>
   <i type="int" name="ISIF">     2</i>
   <i name="PSTRESS">      0.00000000</i>
   <i name="EDIFFG">     -0.01000000</i>
   <i type="int" name="NFREE">     1</i>
   <i name="POTIM">      0.10000000</i>
   <i name="SMASS">     -3.00000000</i>
   <i name="SCALEE">      1.00000000</i>
  </separator>
  <separator name="ionic md" >
   <i name="TEBEG">      0.00010000</i>
   <i name="TEEND">      0.00010000</i>
   <i type="int" name="NBLOCK">     1</i>
   <i type="int" name="KBLOCK">   300</i>
   <i type="int" name="NPACO">   256</i>
   <i name="APACO">     10.00000000</i>
  </separator>
  <separator name="symmetry" >
   <i type="int" name="ISYM">     0</i>
   <i name="SYMPREC">      0.00001000</i>
  </separator>
  <separator name="dos" >
   <i type="int" name="LORBIT">     0</i>
   <v name="RWIGS">     -1.00000000     -1.00000000     -1.00000000     -1.00000000</v>
   <i type="int" name="NEDOS">   301</i>
   <i name="EMIN">     10.00000000</i>
   <i name="EMAX">    -10.00000000</i>
   <i name="EFERMI">      0.00000000</i>
  </separator>
  <separator name="writing" >
   <i type="int" name="NWRITE">     2</i>
   <i type="logical" name="LWAVE"> F  </i>
   <i type="logical" name="LDOWNSAMPLE"> F  </i>
   <i type="logical" name="LCHARG"> F  </i>
   <i type="logical" name="LPARD"> F  </i>
   <i type="logical" name="LVTOT"> F  </i>
   <i type="logical" name="LVHAR"> F  </i>
   <i type="logical" name="LELF"> F  </i>
   <i type="logical" name="LOPTICS"> F  </i>
   <v name="STM">      0.00000000      0.00000000      0.00000000      0.00000000      0.00000000      0.00000000      0.00000000</v>
  </separator>
  <separator name="performance" >
   <i type="int" name="NPAR">     2</i>
   <i type="int" name="NSIM">     4</i>
   <i type="int" name="NBLK">    -1</i>
   <i type="logical" name="LPLANE"> T  </i>
   <i type="logical" name="LSCALAPACK"> T  </i>
   <i type="logical" name="LSCAAWARE"> F  </i>
   <i type="logical" name="LSCALU"> F  </i>
   <i type="logical" name="LASYNC"> F  </i>
   <i type="logical" name="LORBITALREAL"> F  </i>
  </separator>
  <separator name="miscellaneous" >
   <i type="int" name="IDIOT">     3</i>
   <i type="int" name="PHON_NSTRUCT">    -1</i>
   <i type="logical" name="LMUSIC"> F  </i>
   <v name="POMASS">     12.01100000      1.00000000     14.00100000     16.00000000</v>
   <v name="DARWINR">      0.00000000      0.00000000      0.00000000      0.00000000</v>
   <v name="DARWINV">      1.00000000      1.00000000      1.00000000      1.00000000</v>
   <i type="logical" name="LCORR"> T  </i>
  </separator>
  <i type="logical" name="GGA_COMPAT"> T  </i>
  <i type="logical" name="LBERRY"> F  </i>
  <i type="int" name="ICORELEVEL">     0</i>
  <i type="logical" name="LDAU"> F  </i>
  <i type="int" name="I_CONSTRAINED_M">     0</i>
  <separator name="electronic exchange-correlation" >
   <i type="string" name="GGA">--</i>
   <i type="int" name="VOSKOWN">     0</i>
   <i type="logical" name="LHFCALC"> F  </i>
   <i type="string" name="PRECFOCK"></i>
   <i type="logical" name="LSYMGRAD"> F  </i>
   <i type="logical" name="LHFONE"> F  </i>
   <i type="logical" name="LRHFCALC"> F  </i>
   <i type="logical" name="LTHOMAS"> F  </i>
   <i type="logical" name="LMODELHF"> F  </i>
   <i type="logical" name="LFOCKACE"> F  </i>
   <i name="ENCUT4O">     -1.00000000</i>
   <i type="int" name="EXXOEP">     0</i>
   <i type="int" name="FOURORBIT">     0</i>
   <i name="AEXX">      0.00000000</i>
   <i name="HFALPHA">      0.00000000</i>
   <i name="MCALPHA">      0.00000000</i>
   <i name="ALDAX">      1.00000000</i>
   <i name="AGGAX">      1.00000000</i>
   <i name="ALDAC">      1.00000000</i>
   <i name="AGGAC">      1.00000000</i>
   <i type="int" name="NKREDX">     1</i>
   <i type="int" name="NKREDY">     1</i>
   <i type="int" name="NKREDZ">     1</i>
   <i type="logical" name="SHIFTRED"> F  </i>
   <i type="logical" name="ODDONLY"> F  </i>
   <i type="logical" name="EVENONLY"> F  </i>
   <i type="int" name="LMAXFOCK">     0</i>
   <i type="int" name="NMAXFOCKAE">     0</i>
   <i type="logical" name="LFOCKAEDFT"> F  </i>
   <i name="HFSCREEN">      0.00000000</i>
   <i name="HFSCREENC">      0.00000000</i>
   <i type="int" name="NBANDSGWLOW">     0</i>
  </separator>
  <separator name="vdW DFT" >
   <i type="logical" name="LUSE_VDW"> F  </i>
   <i type="int" name="IVDW_NL">     1</i>
   <i type="logical" name="LSPIN_VDW"> F  </i>
   <i name="Zab_VDW">     -0.84910000</i>
   <i name="PARAM1">      0.12340000</i>
   <i name="PARAM2">      1.00000000</i>
   <i name="PARAM3">      0.00000000</i>
  </separator>
  <separator name="model GW" >
   <i type="int" name="MODEL_GW">     0</i>
   <i name="MODEL_EPS0">     23.72378326</i>
   <i name="MODEL_ALPHA">      1.00000000</i>
  </separator>
  <separator name="linear response parameters" >
   <i type="logical" name="LEPSILON"> F  </i>
   <i type="logical" name="LRPA"> F  </i>
   <i type="logical" name="LNABLA"> F  </i>
   <i type="logical" name="LVEL"> F  </i>
   <i name="CSHIFT">      0.10000000</i>
   <i name="OMEGAMAX">     -1.00000000</i>
   <i name="DEG_THRESHOLD">      0.00200000</i>
   <i name="RTIME">     -0.10000000</i>
   <i name="WPLASMAI">      0.00000000</i>
   <v name="DFIELD">      0.00000000      0.00000000      0.00000000</v>
   <v name="WPLASMA">      0.00000000      0.00000000      0.00000000      0.00000000      0.00000000      0.00000000      0.00000000      0.00000000      0.00000000</v>
  </separator>
  <separator name="orbital magnetization" >
   <i type="logical" name="NUCIND"> F  </i>
   <v name="MAGPOS">      0.00000000      0.00000000      0.00000000</v>
   <i type="logical" name="LNICSALL"> T  </i>
   <i type="logical" name="ORBITALMAG"> F  </i>
   <i type="logical" name="LMAGBLOCH"> F  </i>
   <i type="logical" name="LCHIMAG"> F  </i>
   <i type="logical" name="LGAUGE"> T  </i>
   <i type="int" name="MAGATOM">     0</i>
   <v name="MAGDIPOL">      0.00000000      0.00000000      0.00000000</v>
   <v name="AVECCONST">      0.00000000      0.00000000      0.00000000</v>
  </separator>
  <separator name="response functions" >
   <i type="logical" name="LALL_IN_ONE"> F  </i>
   <i type="int" name="IALL_IN_ONE">    -1</i>
   <i type="int" name="NBANDS_WAVE">    -1</i>
   <i type="logical" name="LFINITE_TEMPERATURE"> F  </i>
   <i type="logical" name="LADDER"> F  </i>
   <i type="logical" name="LRPAFORCE"> F  </i>
   <i type="logical" name="LFXC"> F  </i>
   <i type="logical" name="LHARTREE"> T  </i>
   <i type="int" name="IBSE">     0</i>
   <v type="int" name="KPOINT">    -1     0     0     0</v>
   <i type="logical" name="LTCTC"> F  </i>
   <i type="logical" name="LTCTE"> F  </i>
   <i type="logical" name="LTETE"> F  </i>
   <i type="logical" name="LTRIPLET"> F  </i>
   <i type="logical" name="LFXCEPS"> F  </i>
   <i type="logical" name="LFXHEG"> F  </i>
   <i type="int" name="NATURALO">     2</i>
   <i type="logical" name="LHOLEGF"> F  </i>
   <i type="logical" name="L2ORDER"> F  </i>
   <i type="logical" name="LDMP1"> F  </i>
   <i type="logical" name="LMP2LT"> F  </i>
   <i type="logical" name="LSMP2LT"> F  </i>
   <i type="logical" name="LGWLF"> F  </i>
   <i name="ENCUTGW">     -1.60000002</i>
   <i name="ENCUTGWSOFT">     -1.60000002</i>
   <i name="ENCUTLF">     -1.00000000</i>
   <i type="logical" name="LESF_SPLINES"> F  </i>
   <i type="int" name="LMAXMP2">    -1</i>
   <i name="SCISSOR">      0.00000000</i>
   <i type="int" name="NOMEGA">     0</i>
   <i type="int" name="NOMEGAR">     0</i>
   <i type="int" name="NBANDSGW">    -1</i>
   <i type="int" name="NBANDSO">    -1</i>
   <i type="int" name="NBANDSV">    -1</i>
   <i type="int" name="NELMGW">     1</i>
   <i type="int" name="NELMHF">     1</i>
   <i type="int" name="DIM">     3</i>
   <i type="int" name="IESPILON">     4</i>
   <i type="int" name="ANTIRES">     0</i>
   <i name="OMEGAMAX">    -30.00000000</i>
   <i name="OMEGAMIN">    -30.00000000</i>
   <i name="OMEGATL">   -200.00000000</i>
   <i type="int" name="OMEGAGRID">     0</i>
   <i name="CSHIFT">     -0.10000000</i>
   <i type="logical" name="LSELFENERGY"> F  </i>
   <i type="logical" name="LSPECTRAL"> F  </i>
   <i type="logical" name="LSPECTRALGW"> F  </i>
   <i type="logical" name="LSINGLES"> F  </i>
   <i type="logical" name="LFERMIGW"> F  </i>
   <i type="logical" name="ODDONLYGW"> F  </i>
   <i type="logical" name="EVENONLYGW"> F  </i>
   <i type="int" name="NKREDLFX">     1</i>
   <i type="int" name="NKREDLFY">     1</i>
   <i type="int" name="NKREDLFZ">     1</i>
   <i type="int" name="MAXMEM">  2800</i>
   <i type="int" name="TELESCOPE">     0</i>
   <i type="int" name="NTAUPAR">    -1</i>
   <i type="int" name="NOMEGAPAR">    -1</i>
   <i name="DAMP_NEWTON">      0.80000001</i>
   <i name="LAMBDA">      1.00000000</i>
  </separator>
  <separator name="External order field" >
   <i name="OFIELD_KAPPA">      0.00000000</i>
   <v name="OFIELD_K">      0.00000000      0.00000000      0.00000000</v>
   <i name="OFIELD_Q6_NEAR">      0.00000000</i>
   <i name="OFIELD_Q6_FAR">      0.00000000</i>
   <i name="OFIELD_A">      0.00000000</i>
  </separator>
  <separator name="optional k-points parameters" >
   <i type="int" name="KPOINTS_OPT_MODE">     1</i>
   <i type="logical" name="LKPOINTS_OPT"> F  </i>
  </separator>
 </parameters>
 <atominfo>
  <atoms>      98 </atoms>
  <types>       4 </types>
  <array name="atoms" >
   <dimension dim="1">ion</dimension>
   <field type="string">element</field>
   <field type="int">atomtype</field>
   <set>
    <rc><c>C </c><c>   1</c></rc>
    <rc><c>C </c><c>   1</c></rc>
    <rc><c>C </c><c>   1</c></rc>
    <rc><c>C </c><c>   1</c></rc>
    <rc><c>C </c><c>   1</c></rc>
    <rc><c>C </c><c>   1</c></rc>
    <rc><c>C </c><c>   1</c></rc>
    <rc><c>C </c><c>   1</c></rc>
    <rc><c>C </c><c>   1</c></rc>
    <rc><c>C </c><c>   1</c></rc>
    <rc><c>C </c><c>   1</c></rc>
    <rc><c>C </c><c>   1</c></rc>
    <rc><c>C </c><c>   1</c></rc>
    <rc><c>C </c><c>   1</c></rc>
    <rc><c>C </c><c>   1</c></rc>
    <rc><c>C </c><c>   1</c></rc>
    <rc><c>C </c><c>   1</c></rc>
    <rc><c>C </c><c>   1</c></rc>
    <rc><c>C </c><c>   1</c></rc>
    <rc><c>C </c><c>   1</c></rc>
    <rc><c>C </c><c>   1</c></rc>
    <rc><c>C </c><c>   1</c></rc>
    <rc><c>C </c><c>   1</c></rc>
    <rc><c>C </c><c>   1</c></rc>
    <rc><c>C </c><c>   1</c></rc>
    <rc><c>C </c><c>   1</c></rc>
    <rc><c>C </c><c>   1</c></rc>
    <rc><c>C </c><c>   1</c></rc>
    <rc><c>C </c><c>   1</c></rc>
    <rc><c>C </c><c>   1</c></rc>
    <rc><c>C </c><c>   1</c></rc>
    <rc><c>C </c><c>   1</c></rc>
    <rc><c>C </c><c>   1</c></rc>
    <rc><c>C </c><c>   1</c></rc>
    <rc><c>C </c><c>   1</c></rc>
    <rc><c>C </c><c>   1</c></rc>
    <rc><c>C </c><c>   1</c></rc>
    <rc><c>C </c><c>   1</c></rc>
    <rc><c>C </c><c>   1</c></rc>
    <rc><c>C </c><c>   1</c></rc>
    <rc><c>C </c><c>   1</c></rc>
    <rc><c>C </c><c>   1</c></rc>
    <rc><c>C </c><c>   1</c></rc>
    <rc><c>C </c><c>   1</c></rc>
    <rc><c>C </c><c>   1</c></rc>
    <rc><c>C </c><c>   1</c></rc>
    <rc><c>C </c><c>   1</c></rc>
    <rc><c>C </c><c>   1</c></rc>
    <rc><c>C </c><c>   1</c></rc>
    <rc><c>C </c><c>   1</c></rc>
    <rc><c>C </c><c>   1</c></rc>
    <rc><c>C </c><c>   1</c></rc>
    <rc><c>C </c><c>   1</c></rc>
    <rc><c>C </c><c>   1</c></rc>
    <rc><c>C </c><c>   1</c></rc>
    <rc><c>C </c><c>   1</c></rc>
    <rc><c>C </c><c>   1</c></rc>
    <rc><c>C </c><c>   1</c></rc>
    <rc><c>C </c><c>   1</c></rc>
    <rc><c>C </c><c>   1</c></rc>
    <rc><c>C </c><c>   1</c></rc>
    <rc><c>C </c><c>   1</c></rc>
    <rc><c>C </c><c>   1</c></rc>
    <rc><c>C </c><c>   1</c></rc>
    <rc><c>C </c><c>   1</c></rc>
    <rc><c>C </c><c>   1</c></rc>
    <rc><c>C </c><c>   1</c></rc>
    <rc><c>C </c><c>   1</c></rc>
    <rc><c>C </c><c>   1</c></rc>
    <rc><c>C </c><c>   1</c></rc>
    <rc><c>C </c><c>   1</c></rc>
    <rc><c>C </c><c>   1</c></rc>
    <rc><c>C </c><c>   1</c></rc>
    <rc><c>C </c><c>   1</c></rc>
    <rc><c>C </c><c>   1</c></rc>
    <rc><c>C </c><c>   1</c></rc>
    <rc><c>C </c><c>   1</c></rc>
    <rc><c>C </c><c>   1</c></rc>
    <rc><c>C </c><c>   1</c></rc>
    <rc><c>C </c><c>   1</c></rc>
    <rc><c>C </c><c>   1</c></rc>
    <rc><c>C </c><c>   1</c></rc>
    <rc><c>C </c><c>   1</c></rc>
    <rc><c>C </c><c>   1</c></rc>
    <rc><c>C </c><c>   1</c></rc>
    <rc><c>C </c><c>   1</c></rc>
    <rc><c>C </c><c>   1</c></rc>
    <rc><c>H </c><c>   2</c></rc>
    <rc><c>H </c><c>   2</c></rc>
    <rc><c>H </c><c>   2</c></rc>
    <rc><c>H </c><c>   2</c></rc>
    <rc><c>H </c><c>   2</c></rc>
    <rc><c>H </c><c>   2</c></rc>
    <rc><c>H </c><c>   2</c></rc>
    <rc><c>H </c><c>   2</c></rc>
    <rc><c>H </c><c>   2</c></rc>
    <rc><c>N </c><c>   3</c></rc>
    <rc><c>O </c><c>   4</c></rc>
   </set>
  </array>
  <array name="atomtypes" >
   <dimension dim="1">type</dimension>
   <field type="int">atomspertype</field>
   <field type="string">element</field>
   <field>mass</field>
   <field>valence</field>
   <field type="string">pseudopotential</field>
   <set>
    <rc><c>  87</c><c>C </c><c>     12.01100000</c><c>      4.00000000</c><c>  PAW_PBE C 08Apr2002                   </c></rc>
    <rc><c>   9</c><c>H </c><c>      1.00000000</c><c>      1.00000000</c><c>  PAW_PBE H 15Jun2001                   </c></rc>
    <rc><c>   1</c><c>N </c><c>     14.00100000</c><c>      5.00000000</c><c>  PAW_PBE N 08Apr2002                   </c></rc>
    <rc><c>   1</c><c>O </c><c>     16.00000000</c><c>      6.00000000</c><c>  PAW_PBE O 08Apr2002                   </c></rc>
   </set>
  </array>
 </atominfo>
 <structure name="initialpos" >
  <crystal>
   <varray name="basis" >
    <v>      17.27103806       0.00000000       0.00000000 </v>
    <v>      -8.63551903      14.95715771       0.00000000 </v>
    <v>       0.00000000       0.00000000      15.00000000 </v>
   </varray>
   <i name="volume">   3874.88459904 </i>
   <varray name="rec_basis" >
    <v>       0.05790040       0.03342881      -0.00000000 </v>
    <v>       0.00000000       0.06685762       0.00000000 </v>
    <v>       0.00000000      -0.00000000       0.06666667 </v>
   </varray>
  </crystal>
  <varray name="positions" >
   <v>       0.99994302       0.00011198       0.49825652 </v>
   <v>       0.99979129       0.14287146       0.49981521 </v>
   <v>       0.00005137       0.28594179       0.50069867 </v>
   <v>       0.00036412       0.42886653       0.50048399 </v>
   <v>       0.00058898       0.57172042       0.49904337 </v>
   <v>       0.00117176       0.71482254       0.49766660 </v>
   <v>       0.00087298       0.85788195       0.49738698 </v>
   <v>       0.14327317       0.00072478       0.49819581 </v>
   <v>       0.14297460       0.14345106       0.49937056 </v>
   <v>       0.14281338       0.28613423       0.49990277 </v>
   <v>       0.14338001       0.42956676       0.50023628 </v>
   <v>       0.14361215       0.57189293       0.49998452 </v>
   <v>       0.14357345       0.71461485       0.49867951 </v>
   <v>       0.14333973       0.85769773       0.49792556 </v>
   <v>       0.28585256       0.00028307       0.49971925 </v>
   <v>       0.28594724       0.14312553       0.50034957 </v>
   <v>       0.28644461       0.28775120       0.49995183 </v>
   <v>       0.28567067       0.42948289       0.49817563 </v>
   <v>       0.28820036       0.57276605       0.49951007 </v>
   <v>       0.28644091       0.71546719       0.49993081 </v>
   <v>       0.28564988       0.85790737       0.49956291 </v>
   <v>       0.42876324       0.00008218       0.50111803 </v>
   <v>       0.42864848       0.14260175       0.50202514 </v>
   <v>       0.42724112       0.28242336       0.50460589 </v>
   <v>       0.42787435       0.85702694       0.50078999 </v>
   <v>       0.57109357       0.99966607       0.50179251 </v>
   <v>       0.57156476       0.14239130       0.50253358 </v>
   <v>       0.57253400       0.28584979       0.50339975 </v>
   <v>       0.57016351       0.85562171       0.50160459 </v>
   <v>       0.71334791       0.99902012       0.50140287 </v>
   <v>       0.71435575       0.14253443       0.50201412 </v>
   <v>       0.71462467       0.28554803       0.50217484 </v>
   <v>       0.71419073       0.42769623       0.50166218 </v>
   <v>       0.71788347       0.57341041       0.50137965 </v>
   <v>       0.71740063       0.71488128       0.50154895 </v>
   <v>       0.71230696       0.85604511       0.50106120 </v>
   <v>       0.85663485       0.99964122       0.49992816 </v>
   <v>       0.85677377       0.14252610       0.50100907 </v>
   <v>       0.85725947       0.28556557       0.50135817 </v>
   <v>       0.85771888       0.42860167       0.50055693 </v>
   <v>       0.85803724       0.57194011       0.49915424 </v>
   <v>       0.85926345       0.71523862       0.49856538 </v>
   <v>       0.85727523       0.85695222       0.49891461 </v>
   <v>       0.04768674       0.09548240       0.49901980 </v>
   <v>       0.04729146       0.23805744       0.50021868 </v>
   <v>       0.04773059       0.38134093       0.50061571 </v>
   <v>       0.04831317       0.52418672       0.49985605 </v>
   <v>       0.04835263       0.66705780       0.49829788 </v>
   <v>       0.04821951       0.81001856       0.49736460 </v>
   <v>       0.04796982       0.95284209       0.49768487 </v>
   <v>       0.19070703       0.09563389       0.49906002 </v>
   <v>       0.19055498       0.23874391       0.49985110 </v>
   <v>       0.18998351       0.38134493       0.49970475 </v>
   <v>       0.19179570       0.52505083       0.50021754 </v>
   <v>       0.19114210       0.66724816       0.49951844 </v>
   <v>       0.19077982       0.81004942       0.49858873 </v>
   <v>       0.19086220       0.95286217       0.49843144 </v>
   <v>       0.33354369       0.09559802       0.50077853 </v>
   <v>       0.33437344       0.23838400       0.50169645 </v>
   <v>       0.33108277       0.38071996       0.49791901 </v>
   <v>       0.33238620       0.52410676       0.49751354 </v>
   <v>       0.33736911       0.67100847       0.50018563 </v>
   <v>       0.33313739       0.81022900       0.50009939 </v>
   <v>       0.33336590       0.95281095       0.50012462 </v>
   <v>       0.47637874       0.09501596       0.50190814 </v>
   <v>       0.47574742       0.23762947       0.50359966 </v>
   <v>       0.47252595       0.80646048       0.50119823 </v>
   <v>       0.47608769       0.95236697       0.50127075 </v>
   <v>       0.61892745       0.09478487       0.50217920 </v>
   <v>       0.61947986       0.23771533       0.50287267 </v>
   <v>       0.62129625       0.37910450       0.50266748 </v>
   <v>       0.61888213       0.81101971       0.50159237 </v>
   <v>       0.61794083       0.95128886       0.50167205 </v>
   <v>       0.76156419       0.09474008       0.50151246 </v>
   <v>       0.76217799       0.23771658       0.50188579 </v>
   <v>       0.76245157       0.38073119       0.50152224 </v>
   <v>       0.76222438       0.52495535       0.50063043 </v>
   <v>       0.76398214       0.66742625       0.50039813 </v>
   <v>       0.76126981       0.80766713       0.50052322 </v>
   <v>       0.76105145       0.95160171       0.50075825 </v>
   <v>       0.90430129       0.09470267       0.50023883 </v>
   <v>       0.90466377       0.23789582       0.50106483 </v>
   <v>       0.90502987       0.38109987       0.50081312 </v>
   <v>       0.90538625       0.52417836       0.49940399 </v>
   <v>       0.90594173       0.66710587       0.49813590 </v>
   <v>       0.90557606       0.81007681       0.49800634 </v>
   <v>       0.90462380       0.95211229       0.49880491 </v>
   <v>       0.46340965       0.35486870       0.50790562 </v>
   <v>       0.40378588       0.41924983       0.49712357 </v>
   <v>       0.40529410       0.56066402       0.49454242 </v>
   <v>       0.64473791       0.67555852       0.50403022 </v>
   <v>       0.64522089       0.54005252       0.50319261 </v>
   <v>       0.58527423       0.41559193       0.50244844 </v>
   <v>       0.58010634       0.73833082       0.50177257 </v>
   <v>       0.46800951       0.53900821       0.62336042 </v>
   <v>       0.55503944       0.54559717       0.65853768 </v>
   <v>       0.42739229       0.71597227       0.50101301 </v>
   <v>       0.51983169       0.53495519       0.60466391 </v>
  </varray>
  <varray name="selective"  type="logical" >
   <v type="logical" >  T  T  T </v>
   <v type="logical" >  T  T  T </v>
   <v type="logical" >  T  T  T </v>
   <v type="logical" >  T  T  T </v>
   <v type="logical" >  T  T  T </v>
   <v type="logical" >  T  T  T </v>
   <v type="logical" >  T  T  T </v>
   <v type="logical" >  T  T  T </v>
   <v type="logical" >  T  T  T </v>
   <v type="logical" >  T  T  T </v>
   <v type="logical" >  T  T  T </v>
   <v type="logical" >  T  T  T </v>
   <v type="logical" >  T  T  T </v>
   <v type="logical" >  T  T  T </v>
   <v type="logical" >  T  T  T </v>
   <v type="logical" >  T  T  T </v>
   <v type="logical" >  T  T  T </v>
   <v type="logical" >  T  T  T </v>
   <v type="logical" >  T  T  T </v>
   <v type="logical" >  T  T  T </v>
   <v type="logical" >  T  T  T </v>
   <v type="logical" >  T  T  T </v>
   <v type="logical" >  T  T  T </v>
   <v type="logical" >  T  T  T </v>
   <v type="logical" >  T  T  T </v>
   <v type="logical" >  T  T  T </v>
   <v type="logical" >  T  T  T </v>
   <v type="logical" >  T  T  T </v>
   <v type="logical" >  T  T  T </v>
   <v type="logical" >  T  T  T </v>
   <v type="logical" >  T  T  T </v>
   <v type="logical" >  T  T  T </v>
   <v type="logical" >  T  T  T </v>
   <v type="logical" >  T  T  T </v>
   <v type="logical" >  T  T  T </v>
   <v type="logical" >  T  T  T </v>
   <v type="logical" >  T  T  T </v>
   <v type="logical" >  T  T  T </v>
   <v type="logical" >  T  T  T </v>
   <v type="logical" >  T  T  T </v>
   <v type="logical" >  T  T  T </v>
   <v type="logical" >  T  T  T </v>
   <v type="logical" >  T  T  T </v>
   <v type="logical" >  T  T  T </v>
   <v type="logical" >  T  T  T </v>
   <v type="logical" >  T  T  T </v>
   <v type="logical" >  T  T  T </v>
   <v type="logical" >  T  T  T </v>
   <v type="logical" >  T  T  T </v>
   <v type="logical" >  T  T  T </v>
   <v type="logical" >  T  T  T </v>
   <v type="logical" >  T  T  T </v>
   <v type="logical" >  T  T  T </v>
   <v type="logical" >  T  T  T </v>
   <v type="logical" >  T  T  T </v>
   <v type="logical" >  T  T  T </v>
   <v type="logical" >  T  T  T </v>
   <v type="logical" >  T  T  T </v>
   <v type="logical" >  T  T  T </v>
   <v type="logical" >  T  T  T </v>
   <v type="logical" >  T  T  T </v>
   <v type="logical" >  T  T  T </v>
   <v type="logical" >  T  T  T </v>
   <v type="logical" >  T  T  T </v>
   <v type="logical" >  T  T  T </v>
   <v type="logical" >  T  T  T </v>
   <v type="logical" >  T  T  T </v>
   <v type="logical" >  T  T  T </v>
   <v type="logical" >  T  T  T </v>
   <v type="logical" >  T  T  T </v>
   <v type="logical" >  T  T  T </v>
   <v type="logical" >  T  T  T </v>
   <v type="logical" >  T  T  T </v>
   <v type="logical" >  T  T  T </v>
   <v type="logical" >  T  T  T </v>
   <v type="logical" >  T  T  T </v>
   <v type="logical" >  T  T  T </v>
   <v type="logical" >  T  T  T </v>
   <v type="logical" >  T  T  T </v>
   <v type="logical" >  T  T  T </v>
   <v type="logical" >  T  T  T </v>
   <v type="logical" >  T  T  T </v>
   <v type="logical" >  T  T  T </v>
   <v type="logical" >  T  T  T </v>
   <v type="logical" >  T  T  T </v>
   <v type="logical" >  T  T  T </v>
   <v type="logical" >  T  T  T </v>
   <v type="logical" >  T  T  T </v>
   <v type="logical" >  T  T  T </v>
   <v type="logical" >  T  T  T </v>
   <v type="logical" >  T  T  T </v>
   <v type="logical" >  T  T  T </v>
   <v type="logical" >  T  T  T </v>
   <v type="logical" >  T  T  T </v>
   <v type="logical" >  T  T  T </v>
   <v type="logical" >  T  T  T </v>
   <v type="logical" >  T  T  T </v>
   <v type="logical" >  T  T  F </v>
  </varray>
  <nose>
   <v>      -3.00000000       0.00000000       0.00010000       0.00010000 </v>
  </nose>
 </structure>
 <calculation>
  <scstep>
   <time name="dav">   98.60   99.44</time>
   <time name="total">  100.04  100.90</time>
   <energy>
    <i name="alphaZ">    176.01131809 </i>
    <i name="ewald">  36340.86561205 </i>
    <i name="hartreedc"> -46434.70308735 </i>
    <i name="XCdc">   1220.18842105 </i>
    <i name="pawpsdc">  10007.03170968 </i>
    <i name="pawaedc"> -10059.36457306 </i>
    <i name="eentropy">     -0.03883792 </i>
    <i name="bandstr">  -1619.21062334 </i>
    <i name="atom">  13611.23051297 </i>
    <i name="e_fr_energy">   3242.01045216 </i>
    <i name="e_wo_entrp">   3242.04929008 </i>
    <i name="e_0_energy">   3242.02987112 </i>
   </energy>
  </scstep>
  <scstep>
   <time name="dav">  125.30  126.42</time>
   <time name="total">  125.31  126.43</time>
   <energy>
    <i name="e_fr_energy">   -258.50391173 </i>
    <i name="e_wo_entrp">   -258.49850963 </i>
    <i name="e_0_energy">   -258.50121068 </i>
   </energy>
  </scstep>
  <scstep>
   <time name="dav">  108.23  109.18</time>
   <time name="total">  108.23  109.19</time>
   <energy>
    <i name="e_fr_energy">   -870.13812723 </i>
    <i name="e_wo_entrp">   -870.13188786 </i>
    <i name="e_0_energy">   -870.13500755 </i>
   </energy>
  </scstep>
  <scstep>
   <time name="dav">  109.56  110.54</time>
   <time name="total">  109.57  110.56</time>
   <energy>
    <i name="e_fr_energy">   -892.31004383 </i>
    <i name="e_wo_entrp">   -892.30363464 </i>
    <i name="e_0_energy">   -892.30683924 </i>
   </energy>
  </scstep>
  <scstep>
   <time name="dav">  119.66  120.68</time>
   <time name="total">  120.60  121.63</time>
   <energy>
    <i name="e_fr_energy">   -892.93991005 </i>
    <i name="e_wo_entrp">   -892.93346044 </i>
    <i name="e_0_energy">   -892.93668524 </i>
   </energy>
  </scstep>
  <scstep>
   <time name="dav">  105.33  106.33</time>
   <time name="total">  107.78  108.80</time>
   <energy>
    <i name="e_fr_energy">   -875.10860968 </i>
    <i name="e_wo_entrp">   -875.10567548 </i>
    <i name="e_0_energy">   -875.10714258 </i>
   </energy>
  </scstep>
  <scstep>
   <time name="dav">  101.65  102.56</time>
   <time name="total">  103.99  104.93</time>
   <energy>
    <i name="e_fr_energy">   -852.33619796 </i>
    <i name="e_wo_entrp">   -852.33438016 </i>
    <i name="e_0_energy">   -852.33528906 </i>
   </energy>
  </scstep>
  <scstep>
   <time name="dav">  103.98  104.95</time>
   <time name="total">  106.32  107.30</time>
   <energy>
    <i name="e_fr_energy">   -847.45231063 </i>
    <i name="e_wo_entrp">   -847.45191634 </i>
    <i name="e_0_energy">   -847.45211349 </i>
   </energy>
  </scstep>
  <scstep>
   <time name="dav">  100.49  101.44</time>
   <time name="total">  102.82  103.79</time>
   <energy>
    <i name="e_fr_energy">   -847.29664130 </i>
    <i name="e_wo_entrp">   -847.29625379 </i>
    <i name="e_0_energy">   -847.29644754 </i>
   </energy>
  </scstep>
  <scstep>
   <time name="dav">  101.22  102.08</time>
   <time name="total">  103.55  104.44</time>
   <energy>
    <i name="e_fr_energy">   -847.22367148 </i>
    <i name="e_wo_entrp">   -847.22329831 </i>
    <i name="e_0_energy">   -847.22348489 </i>
   </energy>
  </scstep>
  <scstep>
   <time name="dav">   99.65  100.54</time>
   <time name="total">  101.97  102.88</time>
   <energy>
    <i name="e_fr_energy">   -847.21281867 </i>
    <i name="e_wo_entrp">   -847.21244125 </i>
    <i name="e_0_energy">   -847.21262996 </i>
   </energy>
  </scstep>
  <scstep>
   <time name="dav">  105.97  106.93</time>
   <time name="total">  108.29  109.27</time>
   <energy>
    <i name="e_fr_energy">   -847.21153793 </i>
    <i name="e_wo_entrp">   -847.21115751 </i>
    <i name="e_0_energy">   -847.21134772 </i>
   </energy>
  </scstep>
  <scstep>
   <time name="dav">  103.70  104.59</time>
   <time name="total">  106.03  106.94</time>
   <energy>
    <i name="e_fr_energy">   -847.21128782 </i>
    <i name="e_wo_entrp">   -847.21090672 </i>
    <i name="e_0_energy">   -847.21109727 </i>
   </energy>
  </scstep>
  <scstep>
   <time name="dav">  101.83  102.70</time>
   <time name="total">  104.18  105.06</time>
   <energy>
    <i name="e_fr_energy">   -847.21139497 </i>
    <i name="e_wo_entrp">   -847.21101323 </i>
    <i name="e_0_energy">   -847.21120410 </i>
   </energy>
  </scstep>
  <scstep>
   <time name="dav">   99.84  100.73</time>
   <time name="total">  102.18  103.08</time>
   <energy>
    <i name="e_fr_energy">   -847.21143111 </i>
    <i name="e_wo_entrp">   -847.21104954 </i>
    <i name="e_0_energy">   -847.21124033 </i>
   </energy>
  </scstep>
  <scstep>
   <time name="dav">  101.92  102.82</time>
   <time name="total">  104.26  105.20</time>
   <energy>
    <i name="e_fr_energy">   -847.21143559 </i>
    <i name="e_wo_entrp">   -847.21105422 </i>
    <i name="e_0_energy">   -847.21124491 </i>
   </energy>
  </scstep>
  <scstep>
   <time name="dav">  102.98  103.86</time>
   <time name="total">  104.42  105.31</time>
   <energy>
    <i name="alphaZ">    176.01131809 </i>
    <i name="ewald">  36340.86561205 </i>
    <i name="hartreedc"> -47980.83736022 </i>
    <i name="XCdc">   1270.81714165 </i>
    <i name="pawpsdc">  37331.83003510 </i>
    <i name="pawaedc"> -37395.04217503 </i>
    <i name="eentropy">     -0.00038149 </i>
    <i name="bandstr">  -4202.08613886 </i>
    <i name="atom">  13611.23051297 </i>
    <i name="e_fr_energy">   -847.21143573 </i>
    <i name="e_wo_entrp">   -847.21105424 </i>
    <i name="e_0_energy">   -847.21124499 </i>
   </energy>
  </scstep>
  <structure>
   <crystal>
    <varray name="basis" >
     <v>      17.27103806       0.00000000       0.00000000 </v>
     <v>      -8.63551903      14.95715771       0.00000000 </v>
     <v>       0.00000000       0.00000000      15.00000000 </v>
    </varray>
    <i name="volume">   3874.88459904 </i>
    <varray name="rec_basis" >
     <v>       0.05790040       0.03342881      -0.00000000 </v>
     <v>       0.00000000       0.06685762       0.00000000 </v>
     <v>       0.00000000      -0.00000000       0.06666667 </v>
    </varray>
   </crystal>
   <varray name="positions" >
    <v>       0.99994302       0.00011198       0.49825652 </v>
    <v>       0.99979129       0.14287146       0.49981521 </v>
    <v>       0.00005137       0.28594179       0.50069867 </v>
    <v>       0.00036412       0.42886653       0.50048399 </v>
    <v>       0.00058898       0.57172042       0.49904337 </v>
    <v>       0.00117176       0.71482254       0.49766660 </v>
    <v>       0.00087298       0.85788195       0.49738698 </v>
    <v>       0.14327317       0.00072478       0.49819581 </v>
    <v>       0.14297460       0.14345106       0.49937056 </v>
    <v>       0.14281338       0.28613423       0.49990277 </v>
    <v>       0.14338001       0.42956676       0.50023628 </v>
    <v>       0.14361215       0.57189293       0.49998452 </v>
    <v>       0.14357345       0.71461485       0.49867951 </v>
    <v>       0.14333973       0.85769773       0.49792556 </v>
    <v>       0.28585256       0.00028307       0.49971925 </v>
    <v>       0.28594724       0.14312553       0.50034957 </v>
    <v>       0.28644461       0.28775120       0.49995183 </v>
    <v>       0.28567067       0.42948289       0.49817563 </v>
    <v>       0.28820036       0.57276605       0.49951007 </v>
    <v>       0.28644091       0.71546719       0.49993081 </v>
    <v>       0.28564988       0.85790737       0.49956291 </v>
    <v>       0.42876324       0.00008218       0.50111803 </v>
    <v>       0.42864848       0.14260175       0.50202514 </v>
    <v>       0.42724112       0.28242336       0.50460589 </v>
    <v>       0.42787435       0.85702694       0.50078999 </v>
    <v>       0.57109357       0.99966607       0.50179251 </v>
    <v>       0.57156476       0.14239130       0.50253358 </v>
    <v>       0.57253400       0.28584979       0.50339975 </v>
    <v>       0.57016351       0.85562171       0.50160459 </v>
    <v>       0.71334791       0.99902012       0.50140287 </v>
    <v>       0.71435575       0.14253443       0.50201412 </v>
    <v>       0.71462467       0.28554803       0.50217484 </v>
    <v>       0.71419073       0.42769623       0.50166218 </v>
    <v>       0.71788347       0.57341041       0.50137965 </v>
    <v>       0.71740063       0.71488128       0.50154895 </v>
    <v>       0.71230696       0.85604511       0.50106120 </v>
    <v>       0.85663485       0.99964122       0.49992816 </v>
    <v>       0.85677377       0.14252610       0.50100907 </v>
    <v>       0.85725947       0.28556557       0.50135817 </v>
    <v>       0.85771888       0.42860167       0.50055693 </v>
    <v>       0.85803724       0.57194011       0.49915424 </v>
    <v>       0.85926345       0.71523862       0.49856538 </v>
    <v>       0.85727523       0.85695222       0.49891461 </v>
    <v>       0.04768674       0.09548240       0.49901980 </v>
    <v>       0.04729146       0.23805744       0.50021868 </v>
    <v>       0.04773059       0.38134093       0.50061571 </v>
    <v>       0.04831317       0.52418672       0.49985605 </v>
    <v>       0.04835263       0.66705780       0.49829788 </v>
    <v>       0.04821951       0.81001856       0.49736460 </v>
    <v>       0.04796982       0.95284209       0.49768487 </v>
    <v>       0.19070703       0.09563389       0.49906002 </v>
    <v>       0.19055498       0.23874391       0.49985110 </v>
    <v>       0.18998351       0.38134493       0.49970475 </v>
    <v>       0.19179570       0.52505083       0.50021754 </v>
    <v>       0.19114210       0.66724816       0.49951844 </v>
    <v>       0.19077982       0.81004942       0.49858873 </v>
    <v>       0.19086220       0.95286217       0.49843144 </v>
    <v>       0.33354369       0.09559802       0.50077853 </v>
    <v>       0.33437344       0.23838400       0.50169645 </v>
    <v>       0.33108277       0.38071996       0.49791901 </v>
    <v>       0.33238620       0.52410676       0.49751354 </v>
    <v>       0.33736911       0.67100847       0.50018563 </v>
    <v>       0.33313739       0.81022900       0.50009939 </v>
    <v>       0.33336590       0.95281095       0.50012462 </v>
    <v>       0.47637874       0.09501596       0.50190814 </v>
    <v>       0.47574742       0.23762947       0.50359966 </v>
    <v>       0.47252595       0.80646048       0.50119823 </v>
    <v>       0.47608769       0.95236697       0.50127075 </v>
    <v>       0.61892745       0.09478487       0.50217920 </v>
    <v>       0.61947986       0.23771533       0.50287267 </v>
    <v>       0.62129625       0.37910450       0.50266748 </v>
    <v>       0.61888213       0.81101971       0.50159237 </v>
    <v>       0.61794083       0.95128886       0.50167205 </v>
    <v>       0.76156419       0.09474008       0.50151246 </v>
    <v>       0.76217799       0.23771658       0.50188579 </v>
    <v>       0.76245157       0.38073119       0.50152224 </v>
    <v>       0.76222438       0.52495535       0.50063043 </v>
    <v>       0.76398214       0.66742625       0.50039813 </v>
    <v>       0.76126981       0.80766713       0.50052322 </v>
    <v>       0.76105145       0.95160171       0.50075825 </v>
    <v>       0.90430129       0.09470267       0.50023883 </v>
    <v>       0.90466377       0.23789582       0.50106483 </v>
    <v>       0.90502987       0.38109987       0.50081312 </v>
    <v>       0.90538625       0.52417836       0.49940399 </v>
    <v>       0.90594173       0.66710587       0.49813590 </v>
    <v>       0.90557606       0.81007681       0.49800634 </v>
    <v>       0.90462380       0.95211229       0.49880491 </v>
    <v>       0.46340965       0.35486870       0.50790562 </v>
    <v>       0.40378588       0.41924983       0.49712357 </v>
    <v>       0.40529410       0.56066402       0.49454242 </v>
    <v>       0.64473791       0.67555852       0.50403022 </v>
    <v>       0.64522089       0.54005252       0.50319261 </v>
    <v>       0.58527423       0.41559193       0.50244844 </v>
    <v>       0.58010634       0.73833082       0.50177257 </v>
    <v>       0.46800951       0.53900821       0.62336042 </v>
    <v>       0.55503944       0.54559717       0.65853768 </v>
    <v>       0.42739229       0.71597227       0.50101301 </v>
    <v>       0.51983169       0.53495519       0.60466391 </v>
   </varray>
  </structure>
  <varray name="forces" >
   <v>      -0.00104651       0.00142458       0.01078602 </v>
   <v>      -0.01718331      -0.00852375       0.00062544 </v>
   <v>       0.03664205      -0.01727359      -0.00548291 </v>
   <v>       0.00759546      -0.01658213      -0.00194521 </v>
   <v>      -0.01137916       0.01307174       0.00431285 </v>
   <v>       0.00068457       0.01235855      -0.00144170 </v>
   <v>       0.01783851      -0.02798569       0.00122969 </v>
   <v>      -0.00657875      -0.00719203      -0.00124277 </v>
   <v>       0.02828005      -0.00635737      -0.00480924 </v>
   <v>      -0.00864564      -0.00646173       0.00013879 </v>
   <v>      -0.00150309      -0.00733557      -0.00203656 </v>
   <v>       0.01129935       0.02357375      -0.00023811 </v>
   <v>       0.01026610       0.00380309       0.00335854 </v>
   <v>       0.00269240      -0.00077764      -0.00087018 </v>
   <v>      -0.00497016      -0.01616595      -0.00054971 </v>
   <v>       0.01277302      -0.00104249      -0.00973328 </v>
   <v>      -0.02536129      -0.00138065      -0.00248091 </v>
   <v>      -0.00871673      -0.03257197       0.00233381 </v>
   <v>       0.03050890      -0.00599889      -0.00624941 </v>
   <v>       0.01063811       0.01183352      -0.00338749 </v>
   <v>      -0.02916861      -0.01115571      -0.00204708 </v>
   <v>       0.01268852      -0.00188610      -0.00185632 </v>
   <v>      -0.03704980       0.03019488      -0.00426308 </v>
   <v>      -0.01866524       0.01249118      -0.01542335 </v>
   <v>       0.01015754      -0.05518344       0.00674544 </v>
   <v>      -0.03794839       0.00341003      -0.00215440 </v>
   <v>      -0.02404113      -0.02787175      -0.00616274 </v>
   <v>       0.03039560      -0.03237171       0.00773648 </v>
   <v>       0.01885870       0.01957752       0.00240516 </v>
   <v>       0.01706941      -0.03494280      -0.00197913 </v>
   <v>       0.03868136       0.01454391      -0.00314358 </v>
   <v>      -0.00603930      -0.00611944       0.00379576 </v>
   <v>      -0.00183975      -0.02120983       0.00498612 </v>
   <v>       0.01838567      -0.01487647      -0.00213393 </v>
   <v>      -0.00478068       0.01363568      -0.00209389 </v>
   <v>      -0.03170768       0.00409171       0.00310398 </v>
   <v>       0.02215968      -0.00500935      -0.00026761 </v>
   <v>      -0.01603899      -0.00086936       0.00113242 </v>
   <v>      -0.01182150      -0.03238089      -0.00440639 </v>
   <v>       0.00589643       0.00040714       0.00410890 </v>
   <v>      -0.00381357       0.00836858       0.00708293 </v>
   <v>      -0.02238587      -0.00012178      -0.00216819 </v>
   <v>      -0.00447950      -0.02651664      -0.00487479 </v>
   <v>      -0.00327021       0.02346473       0.00788490 </v>
   <v>       0.00064123       0.02272729      -0.00219583 </v>
   <v>       0.02474587       0.01343628      -0.00221014 </v>
   <v>      -0.00296848       0.00120106       0.00114537 </v>
   <v>       0.02130175       0.00075982       0.00038999 </v>
   <v>      -0.01566603       0.01127056       0.00776362 </v>
   <v>       0.02260049       0.01634251       0.00500748 </v>
   <v>      -0.05415965      -0.01047348       0.00368265 </v>
   <v>      -0.01282174       0.02215823      -0.00118711 </v>
   <v>       0.00806500       0.00174857       0.00083443 </v>
   <v>       0.00961270      -0.00875969      -0.00890608 </v>
   <v>      -0.04403346      -0.00661183      -0.00744755 </v>
   <v>       0.00534121       0.02039820       0.00212893 </v>
   <v>       0.00294421      -0.00595539       0.00475167 </v>
   <v>       0.01505833       0.01948088       0.00084546 </v>
   <v>       0.00323364       0.00669171      -0.00291018 </v>
   <v>      -0.01648211       0.01790742       0.00560004 </v>
   <v>       0.00606949       0.00994499       0.01066927 </v>
   <v>       0.00892015       0.01535865      -0.00688891 </v>
   <v>       0.02452204       0.00666580       0.00065594 </v>
   <v>      -0.01048903      -0.01398497      -0.00206033 </v>
   <v>       0.05007305      -0.00456556       0.00130446 </v>
   <v>       0.01712221      -0.01583494       0.00208095 </v>
   <v>      -0.04187221       0.00669654       0.00090178 </v>
   <v>       0.01104689       0.05298385       0.00069905 </v>
   <v>      -0.03253005      -0.01372143       0.00288303 </v>
   <v>      -0.00229268       0.05123465      -0.00310712 </v>
   <v>      -0.00180012       0.02835788      -0.00138328 </v>
   <v>       0.00293969      -0.03683271      -0.00201146 </v>
   <v>       0.01394420      -0.03951933      -0.00313894 </v>
   <v>      -0.01418856       0.02193669      -0.00234087 </v>
   <v>       0.00259055       0.00962676      -0.00078088 </v>
   <v>      -0.00787903      -0.00044700      -0.00358496 </v>
   <v>       0.00772777       0.00240891      -0.00195083 </v>
   <v>      -0.01478459       0.01402382       0.00394236 </v>
   <v>       0.01155453       0.00600301      -0.00933919 </v>
   <v>      -0.01677775      -0.02459835       0.00684200 </v>
   <v>       0.03398904      -0.00097356      -0.00415384 </v>
   <v>      -0.01919167       0.00028922       0.00317718 </v>
   <v>      -0.01761714       0.02345060       0.00130190 </v>
   <v>       0.00927146      -0.02200404       0.00819609 </v>
   <v>       0.02591187      -0.01086808       0.01365030 </v>
   <v>       0.00747727       0.02150267       0.01141570 </v>
   <v>      -0.02537793       0.01797274       0.01032138 </v>
   <v>      -0.00359548       0.00031103       0.00333336 </v>
   <v>       0.00363618      -0.00422380      -0.00148880 </v>
   <v>      -0.00585006      -0.00290140      -0.00178411 </v>
   <v>      -0.00040558       0.00130573       0.00461388 </v>
   <v>      -0.00282049      -0.00018443       0.00518215 </v>
   <v>      -0.00326144      -0.00363638       0.00884689 </v>
   <v>      -0.00189693       0.01560050      -0.00476517 </v>
   <v>       0.00341200       0.00096215      -0.00039135 </v>
   <v>       0.00642590       0.01351117      -0.00126297 </v>
   <v>      -0.00657897      -0.01072698      -0.00044010 </v>
   <v>       0.01008590      -0.00753242      -0.03476260 </v>
  </varray>
  <varray name="stress" >
   <v>       2.60367836      -1.50808345       0.01553816 </v>
   <v>      -1.50808395      -0.56094409       0.00910021 </v>
   <v>       0.01553805       0.00909996      -0.31615361 </v>
  </varray>
  <energy>
   <i name="e_fr_energy">   -854.99454612 </i>
   <i name="e_wo_entrp">   -854.99416463 </i>
   <i name="e_0_energy">   -854.99435537 </i>
  </energy>
  <time name="totalsc"> 1956.91 1974.37</time>
 </calculation>
 <calculation>
  <scstep>
   <time name="dav">   94.05   94.87</time>
   <time name="total">   96.36   97.19</time>
   <energy>
    <i name="alphaZ">    176.01131809 </i>
    <i name="ewald">  36340.85613632 </i>
    <i name="hartreedc"> -47980.79552760 </i>
    <i name="XCdc">   1270.81724858 </i>
    <i name="pawpsdc">  37332.14199165 </i>
    <i name="pawaedc"> -37395.35395487 </i>
    <i name="eentropy">     -0.00037710 </i>
    <i name="bandstr">  -4202.11923279 </i>
    <i name="atom">  13611.23051297 </i>
    <i name="e_fr_energy">   -847.21188475 </i>
    <i name="e_wo_entrp">   -847.21150764 </i>
    <i name="e_0_energy">   -847.21169620 </i>
   </energy>
  </scstep>
  <scstep>
   <time name="dav">  103.75  104.70</time>
   <time name="total">  106.09  107.06</time>
   <energy>
    <i name="e_fr_energy">   -847.21190930 </i>
    <i name="e_wo_entrp">   -847.21153215 </i>
    <i name="e_0_energy">   -847.21172072 </i>
   </energy>
  </scstep>
  <scstep>
   <time name="dav">  108.19  109.14</time>
   <time name="total">  110.52  111.49</time>
   <energy>
    <i name="e_fr_energy">   -847.21189383 </i>
    <i name="e_wo_entrp">   -847.21151670 </i>
    <i name="e_0_energy">   -847.21170527 </i>
   </energy>
  </scstep>
  <scstep>
   <time name="dav">   93.29   94.07</time>
   <time name="total">   95.60   96.40</time>
   <energy>
    <i name="e_fr_energy">   -847.21188572 </i>
    <i name="e_wo_entrp">   -847.21150843 </i>
    <i name="e_0_energy">   -847.21169708 </i>
   </energy>
  </scstep>
  <scstep>
   <time name="dav">   90.13   90.88</time>
   <time name="total">   91.54   92.33</time>
   <energy>
    <i name="alphaZ">    176.01131809 </i>
    <i name="ewald">  36340.85613632 </i>
    <i name="hartreedc"> -47980.79101902 </i>
    <i name="XCdc">   1270.81772662 </i>
    <i name="pawpsdc">  37331.65688925 </i>
    <i name="pawaedc"> -37394.86895846 </i>
    <i name="eentropy">     -0.00037740 </i>
    <i name="bandstr">  -4202.12411409 </i>
    <i name="atom">  13611.23051297 </i>
    <i name="e_fr_energy">   -847.21188572 </i>
    <i name="e_wo_entrp">   -847.21150832 </i>
    <i name="e_0_energy">   -847.21169702 </i>
   </energy>
  </scstep>
  <structure>
   <crystal>
    <varray name="basis" >
     <v>      17.27103806       0.00000000       0.00000000 </v>
     <v>      -8.63551903      14.95715771       0.00000000 </v>
     <v>       0.00000000       0.00000000      15.00000000 </v>
    </varray>
    <i name="volume">   3874.88459904 </i>
    <varray name="rec_basis" >
     <v>       0.05790040       0.03342881      -0.00000000 </v>
     <v>       0.00000000       0.06685762       0.00000000 </v>
     <v>       0.00000000      -0.00000000       0.06666667 </v>
    </varray>
   </crystal>
   <varray name="positions" >
    <v>       0.99994289       0.00011289       0.49826346 </v>
    <v>       0.99977894       0.14286596       0.49981562 </v>
    <v>       0.00006626       0.28593065       0.50069515 </v>
    <v>       0.00036301       0.42885583       0.50048273 </v>
    <v>       0.00058684       0.57172885       0.49904614 </v>
    <v>       0.00117613       0.71483051       0.49766568 </v>
    <v>       0.00087392       0.85786390       0.49738778 </v>
    <v>       0.14326717       0.00072014       0.49819501 </v>
    <v>       0.14298835       0.14344696       0.49936747 </v>
    <v>       0.14280646       0.28613007       0.49990286 </v>
    <v>       0.14337681       0.42956203       0.50023497 </v>
    <v>       0.14362607       0.57190813       0.49998436 </v>
    <v>       0.14358041       0.71461731       0.49868167 </v>
    <v>       0.14334098       0.85769723       0.49792500 </v>
    <v>       0.28584457       0.00027264       0.49971890 </v>
    <v>       0.28595404       0.14312486       0.50034331 </v>
    <v>       0.28642999       0.28775031       0.49995024 </v>
    <v>       0.28565529       0.42946188       0.49817713 </v>
    <v>       0.28821547       0.57276218       0.49950605 </v>
    <v>       0.28645067       0.71547483       0.49992864 </v>
    <v>       0.28562999       0.85790018       0.49956159 </v>
    <v>       0.42876972       0.00008096       0.50111683 </v>
    <v>       0.42863752       0.14262123       0.50202240 </v>
    <v>       0.42723472       0.28243142       0.50459597 </v>
    <v>       0.42786222       0.85699135       0.50079433 </v>
    <v>       0.57107347       0.99966827       0.50179112 </v>
    <v>       0.57154234       0.14237332       0.50252962 </v>
    <v>       0.57254054       0.28582890       0.50340473 </v>
    <v>       0.57018036       0.85563434       0.50160614 </v>
    <v>       0.71334618       0.99899758       0.50140160 </v>
    <v>       0.71438205       0.14254381       0.50201210 </v>
    <v>       0.71461932       0.28554408       0.50217728 </v>
    <v>       0.71418286       0.42768254       0.50166539 </v>
    <v>       0.71788894       0.57340082       0.50137828 </v>
    <v>       0.71740236       0.71489007       0.50154761 </v>
    <v>       0.71229056       0.85604775       0.50106319 </v>
    <v>       0.85664562       0.99963799       0.49992799 </v>
    <v>       0.85676453       0.14252554       0.50100980 </v>
    <v>       0.85724242       0.28554468       0.50135533 </v>
    <v>       0.85772230       0.42860194       0.50055958 </v>
    <v>       0.85803781       0.57194551       0.49915879 </v>
    <v>       0.85925091       0.71523854       0.49856399 </v>
    <v>       0.85726418       0.85693511       0.49891147 </v>
    <v>       0.04769248       0.09549753       0.49902487 </v>
    <v>       0.04729915       0.23807210       0.50021727 </v>
    <v>       0.04774874       0.38134959       0.50061429 </v>
    <v>       0.04831190       0.52418749       0.49985679 </v>
    <v>       0.04836477       0.66705829       0.49829813 </v>
    <v>       0.04821440       0.81002583       0.49736960 </v>
    <v>       0.04798771       0.95285263       0.49768809 </v>
    <v>       0.19067340       0.09562714       0.49906239 </v>
    <v>       0.19055497       0.23875820       0.49985033 </v>
    <v>       0.18998858       0.38134606       0.49970528 </v>
    <v>       0.19179824       0.52504518       0.50021182 </v>
    <v>       0.19111537       0.66724390       0.49951365 </v>
    <v>       0.19078939       0.81006258       0.49859010 </v>
    <v>       0.19086192       0.95285833       0.49843449 </v>
    <v>       0.33355838       0.09561058       0.50077907 </v>
    <v>       0.33437740       0.23838832       0.50169458 </v>
    <v>       0.33107934       0.38073151       0.49792261 </v>
    <v>       0.33239280       0.52411317       0.49752040 </v>
    <v>       0.33737905       0.67101838       0.50018120 </v>
    <v>       0.33315323       0.81023330       0.50009981 </v>
    <v>       0.33335553       0.95280192       0.50012329 </v>
    <v>       0.47640524       0.09501301       0.50190897 </v>
    <v>       0.47575187       0.23761925       0.50360100 </v>
    <v>       0.47250472       0.80646480       0.50119881 </v>
    <v>       0.47611095       0.95240115       0.50127120 </v>
    <v>       0.61890485       0.09477602       0.50218106 </v>
    <v>       0.61949511       0.23774838       0.50287067 </v>
    <v>       0.62130439       0.37912279       0.50266659 </v>
    <v>       0.61887189       0.81099595       0.50159107 </v>
    <v>       0.61793587       0.95126337       0.50167003 </v>
    <v>       0.76156334       0.09475423       0.50151095 </v>
    <v>       0.76218254       0.23772279       0.50188529 </v>
    <v>       0.76244702       0.38073090       0.50151993 </v>
    <v>       0.76222947       0.52495691       0.50062918 </v>
    <v>       0.76397841       0.66743530       0.50040067 </v>
    <v>       0.76127820       0.80767101       0.50051722 </v>
    <v>       0.76103414       0.95158584       0.50076266 </v>
    <v>       0.90431997       0.09470204       0.50023616 </v>
    <v>       0.90465314       0.23789601       0.50106688 </v>
    <v>       0.90502759       0.38111500       0.50081396 </v>
    <v>       0.90538433       0.52416417       0.49940926 </v>
    <v>       0.90595270       0.66709886       0.49814468 </v>
    <v>       0.90558718       0.81009068       0.49801368 </v>
    <v>       0.90461542       0.95212388       0.49881154 </v>
    <v>       0.46340775       0.35486890       0.50790776 </v>
    <v>       0.40378655       0.41924711       0.49712261 </v>
    <v>       0.40528990       0.56066215       0.49454127 </v>
    <v>       0.64473810       0.67555936       0.50403319 </v>
    <v>       0.64521925       0.54005240       0.50319594 </v>
    <v>       0.58527124       0.41558958       0.50245413 </v>
    <v>       0.58011031       0.73834089       0.50176951 </v>
    <v>       0.46801172       0.53900883       0.62336017 </v>
    <v>       0.55504739       0.54560588       0.65853687 </v>
    <v>       0.42738515       0.71596536       0.50101273 </v>
    <v>       0.51983489       0.53495033       0.60466391 </v>
   </varray>
  </structure>
  <varray name="forces" >
   <v>      -0.00000896       0.00797421       0.01069805 </v>
   <v>      -0.00285353       0.00437838       0.00055888 </v>
   <v>       0.01391904      -0.00256878      -0.00470701 </v>
   <v>       0.00483059      -0.00466662      -0.00164332 </v>
   <v>      -0.00267394       0.00283748       0.00435004 </v>
   <v>       0.00857355       0.00468522       0.00004118 </v>
   <v>       0.00951956      -0.00205725       0.00251936 </v>
   <v>      -0.00430723      -0.00444376      -0.00031155 </v>
   <v>       0.00318112       0.00509226      -0.00355969 </v>
   <v>      -0.00488009       0.00305666      -0.00001847 </v>
   <v>       0.00528482       0.00105573      -0.00232415 </v>
   <v>       0.00409580       0.00456372      -0.00118221 </v>
   <v>       0.00160528       0.00668031       0.00252102 </v>
   <v>      -0.00110192       0.00238537      -0.00005426 </v>
   <v>       0.00147488      -0.00611477      -0.00011206 </v>
   <v>      -0.00298662      -0.00296390      -0.00838476 </v>
   <v>      -0.01690359       0.00543009      -0.00207986 </v>
   <v>      -0.00684435      -0.00881140       0.00276267 </v>
   <v>       0.01718391      -0.00263050      -0.00558222 </v>
   <v>      -0.00165969       0.00452218      -0.00387303 </v>
   <v>      -0.00672304      -0.00307546      -0.00160703 </v>
   <v>       0.00654464       0.00029141      -0.00160206 </v>
   <v>      -0.00131446       0.00969060      -0.00345114 </v>
   <v>       0.00033701       0.00625664      -0.01375308 </v>
   <v>       0.00416072      -0.00690337       0.00603650 </v>
   <v>      -0.00966788       0.00137750      -0.00182690 </v>
   <v>      -0.00522190      -0.00055994      -0.00509282 </v>
   <v>       0.01395799       0.00041834       0.00653828 </v>
   <v>       0.00541231      -0.00471902       0.00190275 </v>
   <v>       0.00239379      -0.01795526      -0.00163804 </v>
   <v>       0.00433087       0.00576418      -0.00259944 </v>
   <v>      -0.00155527       0.00617106       0.00264302 </v>
   <v>      -0.00004125      -0.00703686       0.00357129 </v>
   <v>       0.00801641      -0.00583289      -0.00157119 </v>
   <v>      -0.00670653       0.00705299      -0.00190866 </v>
   <v>      -0.01400503      -0.00788437       0.00240134 </v>
   <v>       0.00636334      -0.00420770       0.00052658 </v>
   <v>      -0.00268644      -0.00066976       0.00068634 </v>
   <v>      -0.00916990      -0.00354235      -0.00372467 </v>
   <v>      -0.00071633      -0.00154257       0.00378905 </v>
   <v>       0.00791050      -0.00240969       0.00712246 </v>
   <v>      -0.00568466       0.00226609      -0.00047705 </v>
   <v>      -0.00241521      -0.00427303      -0.00373644 </v>
   <v>      -0.00024765       0.01050008       0.00709014 </v>
   <v>       0.00058309       0.00366237      -0.00228064 </v>
   <v>       0.01472502      -0.00245525      -0.00244762 </v>
   <v>       0.00142578       0.00104999       0.00121488 </v>
   <v>       0.00701272       0.00870915       0.00050377 </v>
   <v>      -0.00250454       0.00290293       0.00638246 </v>
   <v>       0.00887571      -0.00054949       0.00468452 </v>
   <v>      -0.01551218      -0.00491214       0.00252984 </v>
   <v>      -0.00582985       0.00915584      -0.00147337 </v>
   <v>       0.00099222      -0.00657682       0.00078165 </v>
   <v>       0.00983478      -0.00009279      -0.00818519 </v>
   <v>      -0.01244032       0.00727930      -0.00631988 </v>
   <v>      -0.00242156       0.00720341       0.00166550 </v>
   <v>       0.00059722      -0.00441814       0.00380342 </v>
   <v>       0.00091307       0.00697503      -0.00042618 </v>
   <v>      -0.00659422       0.00211056      -0.00452306 </v>
   <v>      -0.00829741       0.00492953       0.00510420 </v>
   <v>       0.00553387      -0.00492929       0.00929453 </v>
   <v>       0.00242439       0.00503177      -0.00656995 </v>
   <v>       0.00456826      -0.00275125       0.00059443 </v>
   <v>      -0.00779444      -0.00959505      -0.00194582 </v>
   <v>       0.00590922      -0.00071435       0.00034129 </v>
   <v>       0.00128274       0.00040818       0.00137338 </v>
   <v>      -0.01245273      -0.00207060       0.00145454 </v>
   <v>       0.00019332       0.00774579       0.00051196 </v>
   <v>      -0.00976856      -0.00173568       0.00181455 </v>
   <v>       0.00278470       0.01187216      -0.00240450 </v>
   <v>      -0.00184733       0.00022435       0.00000347 </v>
   <v>      -0.00429106      -0.01357706      -0.00167920 </v>
   <v>       0.00616066      -0.01548904      -0.00274364 </v>
   <v>      -0.00183893       0.00041545      -0.00239085 </v>
   <v>       0.00023171       0.00012282      -0.00088393 </v>
   <v>      -0.00235550      -0.00644394      -0.00231848 </v>
   <v>       0.00658154      -0.00106691      -0.00124575 </v>
   <v>      -0.00935221       0.00455852       0.00291381 </v>
   <v>      -0.00067238       0.00720986      -0.00843681 </v>
   <v>      -0.00468832      -0.01378423       0.00589765 </v>
   <v>       0.00938024      -0.00203198      -0.00339315 </v>
   <v>      -0.00319257      -0.00432741       0.00215214 </v>
   <v>      -0.00595803       0.00028623       0.00100521 </v>
   <v>       0.00025501      -0.00457581       0.00776002 </v>
   <v>       0.00741030       0.00057048       0.01182620 </v>
   <v>       0.00310276       0.00313877       0.00940027 </v>
   <v>      -0.00851845       0.00153914       0.00902140 </v>
   <v>      -0.00402172       0.00374613       0.00301761 </v>
   <v>       0.00084047      -0.00392401      -0.00125091 </v>
   <v>      -0.00094342      -0.00121914      -0.00154101 </v>
   <v>      -0.00013279       0.00250318       0.00449607 </v>
   <v>       0.00114822       0.00034229       0.00487595 </v>
   <v>      -0.00606248      -0.00088361       0.00859378 </v>
   <v>      -0.00239558      -0.00041707      -0.00480960 </v>
   <v>       0.00577497       0.00082372      -0.00094153 </v>
   <v>       0.00673951       0.01359656      -0.00061852 </v>
   <v>      -0.00105317      -0.00008059      -0.00067021 </v>
   <v>       0.00693759      -0.00707310      -0.03245655 </v>
  </varray>
  <varray name="stress" >
   <v>       2.62256525      -1.50054326       0.01571954 </v>
   <v>      -1.50054377      -0.57636850       0.00936029 </v>
   <v>       0.01571944       0.00936003      -0.31166229 </v>
  </varray>
  <energy>
   <i name="e_fr_energy">   -854.99497313 </i>
   <i name="e_wo_entrp">   -854.99459573 </i>
   <i name="e_0_energy">   -854.99478443 </i>
  </energy>
  <time name="totalsc">  637.53  643.18</time>
 </calculation>
 <calculation>
  <scstep>
   <time name="dav">   94.05   94.90</time>
[...]
       <r>   -13.9382     7.8594    57.5291 </r>
       <r>   -13.8342     8.4545    58.4082 </r>
       <r>   -13.7303     4.1895    58.8438 </r>
       <r>   -13.6263     6.3395    59.5029 </r>
       <r>   -13.5223     8.4668    60.3832 </r>
       <r>   -13.4184     9.4092    61.3615 </r>
       <r>   -13.3144     5.3505    61.9178 </r>
       <r>   -13.2104     8.3951    62.7907 </r>
       <r>   -13.1064     5.5741    63.3703 </r>
       <r>   -13.0025     4.9129    63.8811 </r>
       <r>   -12.8985     4.7688    64.3769 </r>
       <r>   -12.7945     6.9872    65.1034 </r>
       <r>   -12.6905     6.3821    65.7670 </r>
       <r>   -12.5866     8.8779    66.6900 </r>
       <r>   -12.4826     8.6824    67.5928 </r>
       <r>   -12.3786    12.3203    68.8738 </r>
       <r>   -12.2746     7.5203    69.6557 </r>
       <r>   -12.1707     7.0939    70.3932 </r>
       <r>   -12.0667     7.4799    71.1710 </r>
       <r>   -11.9627     7.5662    71.9576 </r>
       <r>   -11.8588    15.7584    73.5961 </r>
       <r>   -11.7548    12.2007    74.8647 </r>
       <r>   -11.6508     7.2981    75.6235 </r>
       <r>   -11.5468     8.2050    76.4766 </r>
       <r>   -11.4429     9.2890    77.4424 </r>
       <r>   -11.3389     9.1841    78.3973 </r>
       <r>   -11.2349     9.8154    79.4178 </r>
       <r>   -11.1309    11.8247    80.6473 </r>
       <r>   -11.0270     7.3515    81.4116 </r>
       <r>   -10.9230     6.6008    82.0979 </r>
       <r>   -10.8190     7.9927    82.9290 </r>
       <r>   -10.7150    11.2535    84.0990 </r>
       <r>   -10.6111    13.1205    85.4632 </r>
       <r>   -10.5071     9.3032    86.4305 </r>
       <r>   -10.4031     8.0764    87.2702 </r>
       <r>   -10.2991     7.3044    88.0297 </r>
       <r>   -10.1952     9.3369    89.0005 </r>
       <r>   -10.0912    10.8807    90.1318 </r>
       <r>    -9.9872    13.4643    91.5317 </r>
       <r>    -9.8833    11.4406    92.7212 </r>
       <r>    -9.7793    16.0638    94.3914 </r>
       <r>    -9.6753    16.8705    96.1455 </r>
       <r>    -9.5713    15.7614    97.7843 </r>
       <r>    -9.4674    17.1243    99.5648 </r>
       <r>    -9.3634    19.6491   101.6078 </r>
       <r>    -9.2594    17.0091   103.3763 </r>
       <r>    -9.1554    16.1276   105.0531 </r>
       <r>    -9.0515    24.2397   107.5734 </r>
       <r>    -8.9475    18.5379   109.5008 </r>
       <r>    -8.8435    20.5338   111.6358 </r>
       <r>    -8.7395    25.3915   114.2758 </r>
       <r>    -8.6356    24.0904   116.7806 </r>
       <r>    -8.5316    21.8042   119.0477 </r>
       <r>    -8.4276    22.0861   121.3440 </r>
       <r>    -8.3236    18.6503   123.2832 </r>
       <r>    -8.2197    19.0464   125.2635 </r>
       <r>    -8.1157    21.3276   127.4810 </r>
       <r>    -8.0117    22.7042   129.8416 </r>
       <r>    -7.9078    18.4493   131.7599 </r>
       <r>    -7.8038    11.8140   132.9882 </r>
       <r>    -7.6998    17.6190   134.8201 </r>
       <r>    -7.5958    21.8173   137.0886 </r>
       <r>    -7.4919    13.7069   138.5137 </r>
       <r>    -7.3879    11.9588   139.7571 </r>
       <r>    -7.2839    13.0022   141.1090 </r>
       <r>    -7.1799    16.7719   142.8528 </r>
       <r>    -7.0760    17.8422   144.7079 </r>
       <r>    -6.9720    15.6960   146.3399 </r>
       <r>    -6.8680    10.7835   147.4611 </r>
       <r>    -6.7640    11.2362   148.6294 </r>
       <r>    -6.6601    15.7183   150.2637 </r>
       <r>    -6.5561    18.4149   152.1783 </r>
       <r>    -6.4521     8.8472   153.0982 </r>
       <r>    -6.3482    11.3982   154.2833 </r>
       <r>    -6.2442    13.8722   155.7257 </r>
       <r>    -6.1402    16.2295   157.4131 </r>
       <r>    -6.0362    17.9756   159.2821 </r>
       <r>    -5.9323    15.1272   160.8549 </r>
       <r>    -5.8283    11.1353   162.0127 </r>
       <r>    -5.7243    11.0891   163.1657 </r>
       <r>    -5.6203    16.7798   164.9103 </r>
       <r>    -5.5164    15.6837   166.5410 </r>
       <r>    -5.4124     7.6539   167.3368 </r>
       <r>    -5.3084     5.4164   167.9000 </r>
       <r>    -5.2044     8.4820   168.7819 </r>
       <r>    -5.1005     6.8258   169.4916 </r>
       <r>    -4.9965     8.1677   170.3408 </r>
       <r>    -4.8925    11.9852   171.5870 </r>
       <r>    -4.7885    11.0770   172.7387 </r>
       <r>    -4.6846    12.0638   173.9930 </r>
       <r>    -4.5806     7.2159   174.7433 </r>
       <r>    -4.4766    12.0238   175.9934 </r>
       <r>    -4.3727    17.2073   177.7825 </r>
       <r>    -4.2687     6.2931   178.4368 </r>
       <r>    -4.1647     5.7781   179.0376 </r>
       <r>    -4.0607     3.9573   179.4491 </r>
       <r>    -3.9568     5.0591   179.9751 </r>
       <r>    -3.8528     6.4012   180.6406 </r>
       <r>    -3.7488     4.4909   181.1076 </r>
       <r>    -3.6448     3.6496   181.4870 </r>
       <r>    -3.5409     1.6953   181.6633 </r>
       <r>    -3.4369     4.1611   182.0959 </r>
       <r>    -3.3329     3.1819   182.4268 </r>
       <r>    -3.2289     4.1806   182.8614 </r>
       <r>    -3.1250     2.5785   183.1295 </r>
       <r>    -3.0210     0.8871   183.2218 </r>
       <r>    -2.9170     0.9747   183.3231 </r>
       <r>    -2.8131     2.2261   183.5546 </r>
       <r>    -2.7091     1.8214   183.7440 </r>
       <r>    -2.6051     0.3765   183.7831 </r>
       <r>    -2.5011     1.0825   183.8956 </r>
       <r>    -2.3972     0.9886   183.9984 </r>
       <r>    -2.2932     0.7385   184.0752 </r>
       <r>    -2.1892     1.2363   184.2038 </r>
       <r>    -2.0852     0.4655   184.2522 </r>
       <r>    -1.9813     1.5936   184.4178 </r>
       <r>    -1.8773     2.6016   184.6883 </r>
       <r>    -1.7733     1.0599   184.7985 </r>
       <r>    -1.6693     1.7154   184.9769 </r>
       <r>    -1.5654     3.0994   185.2992 </r>
       <r>    -1.4614     4.0239   185.7175 </r>
       <r>    -1.3574     4.6489   186.2009 </r>
       <r>    -1.2534     3.5982   186.5750 </r>
       <r>    -1.1495     5.8097   187.1791 </r>
       <r>    -1.0455     5.0502   187.7042 </r>
       <r>    -0.9415     0.9741   187.8055 </r>
       <r>    -0.8376     5.7236   188.4006 </r>
       <r>    -0.7336    12.7161   189.7227 </r>
       <r>    -0.6296     7.2769   190.4793 </r>
       <r>    -0.5256     9.4460   191.4614 </r>
       <r>    -0.4217    15.3126   193.0535 </r>
       <r>    -0.3177    10.7730   194.1736 </r>
       <r>    -0.2137     7.5634   194.9600 </r>
       <r>    -0.1097     3.6669   195.3413 </r>
       <r>    -0.0058     6.8126   196.0496 </r>
       <r>     0.0982     8.7581   196.9602 </r>
       <r>     0.2022     8.1427   197.8069 </r>
       <r>     0.3062    11.2034   198.9717 </r>
       <r>     0.4101     4.3842   199.4276 </r>
       <r>     0.5141     5.7187   200.0222 </r>
       <r>     0.6181     8.6380   200.9203 </r>
       <r>     0.7220     7.1779   201.6666 </r>
       <r>     0.8260     6.8361   202.3774 </r>
       <r>     0.9300     9.2657   203.3407 </r>
       <r>     1.0340     9.0492   204.2816 </r>
       <r>     1.1379    13.7966   205.7161 </r>
       <r>     1.2419     6.5844   206.4007 </r>
       <r>     1.3459     8.6198   207.2969 </r>
       <r>     1.4499    13.1502   208.6642 </r>
       <r>     1.5538    11.0711   209.8153 </r>
       <r>     1.6578    13.3350   211.2018 </r>
       <r>     1.7618    12.7864   212.5312 </r>
       <r>     1.8658    12.8912   213.8716 </r>
       <r>     1.9697    14.8392   215.4145 </r>
       <r>     2.0737    16.6895   217.1497 </r>
       <r>     2.1777    13.2870   218.5312 </r>
       <r>     2.2817    20.7286   220.6864 </r>
       <r>     2.3856    20.0515   222.7713 </r>
       <r>     2.4896    24.1418   225.2814 </r>
       <r>     2.5936    21.8407   227.5522 </r>
       <r>     2.6975    17.2668   229.3475 </r>
       <r>     2.8015    20.9106   231.5217 </r>
       <r>     2.9055    22.8018   233.8925 </r>
       <r>     3.0095    20.0887   235.9812 </r>
       <r>     3.1134    24.7730   238.5569 </r>
       <r>     3.2174    24.2334   241.0765 </r>
       <r>     3.3214    20.2192   243.1788 </r>
       <r>     3.4254    16.4485   244.8890 </r>
       <r>     3.5293    24.9934   247.4877 </r>
       <r>     3.6333    20.7819   249.6484 </r>
       <r>     3.7373    19.5281   251.6788 </r>
       <r>     3.8413    23.6999   254.1430 </r>
       <r>     3.9452    23.1047   256.5453 </r>
       <r>     4.0492    22.4087   258.8752 </r>
       <r>     4.1532    20.0311   260.9579 </r>
       <r>     4.2571    19.0456   262.9381 </r>
       <r>     4.3611    10.1319   263.9916 </r>
       <r>     4.4651     0.0809   264.0000 </r>
       <r>     4.5691     0.0000   264.0000 </r>
       <r>     4.6730     0.0000   264.0000 </r>
       <r>     4.7770     0.0000   264.0000 </r>
       <r>     4.8810     0.0000   264.0000 </r>
       <r>     4.9850     0.0000   264.0000 </r>
       <r>     5.0889     0.0000   264.0000 </r>
       <r>     5.1929     0.0000   264.0000 </r>
       <r>     5.2969     0.0000   264.0000 </r>
       <r>     5.4009     0.0000   264.0000 </r>
       <r>     5.5048     0.0000   264.0000 </r>
       <r>     5.6088     0.0000   264.0000 </r>
       <r>     5.7128     0.0000   264.0000 </r>
      </set>
     </set>
    </array>
   </total>
  </dos>
 </calculation>
 <structure name="finalpos" >
  <crystal>
   <varray name="basis" >
    <v>      17.27103806       0.00000000       0.00000000 </v>
    <v>      -8.63551903      14.95715771       0.00000000 </v>
    <v>       0.00000000       0.00000000      15.00000000 </v>
   </varray>
   <i name="volume">   3874.88459904 </i>
   <varray name="rec_basis" >
    <v>       0.05790040       0.03342881      -0.00000000 </v>
    <v>       0.00000000       0.06685762       0.00000000 </v>
    <v>       0.00000000      -0.00000000       0.06666667 </v>
   </varray>
  </crystal>
  <varray name="positions" >
   <v>       0.99985108       0.00009974       0.49966001 </v>
   <v>       0.99965616       0.14283236       0.50010920 </v>
   <v>      -0.00004471       0.28587618       0.50012053 </v>
   <v>       0.00028023       0.42880580       0.50002396 </v>
   <v>       0.00051425       0.57170880       0.49985697 </v>
   <v>       0.00108565       0.71479876       0.49960932 </v>
   <v>       0.00077747       0.85783380       0.49945761 </v>
   <v>       0.14315190       0.00069142       0.49909304 </v>
   <v>       0.14287472       0.14344233       0.49960808 </v>
   <v>       0.14268260       0.28611585       0.49947901 </v>
   <v>       0.14330636       0.42954277       0.49933437 </v>
   <v>       0.14357271       0.57189550       0.49937416 </v>
   <v>       0.14349744       0.71461390       0.49913142 </v>
   <v>       0.14322165       0.85767118       0.49895244 </v>
   <v>       0.28574394       0.00024501       0.49951556 </v>
   <v>       0.28581618       0.14308929       0.49992701 </v>
   <v>       0.28628553       0.28772371       0.49950902 </v>
   <v>       0.28555819       0.42941626       0.49793480 </v>
   <v>       0.28816468       0.57271994       0.49879089 </v>
   <v>       0.28635022       0.71544129       0.49935359 </v>
   <v>       0.28551092       0.85786294       0.49941359 </v>
   <v>       0.42866502       0.00005659       0.50043403 </v>
   <v>       0.42853713       0.14262452       0.50127058 </v>
   <v>       0.42712116       0.28242753       0.50346165 </v>
   <v>       0.42773403       0.85695240       0.50023829 </v>
   <v>       0.57094067       0.99960627       0.50129506 </v>
   <v>       0.57142667       0.14234564       0.50186297 </v>
   <v>       0.57245496       0.28580748       0.50366903 </v>
   <v>       0.57000602       0.85552025       0.50102595 </v>
   <v>       0.71318584       0.99888429       0.50135778 </v>
   <v>       0.71424761       0.14247142       0.50167395 </v>
   <v>       0.71451430       0.28549749       0.50228107 </v>
   <v>       0.71408180       0.42763071       0.50324944 </v>
   <v>       0.71777968       0.57333073       0.50289213 </v>
   <v>       0.71728043       0.71486530       0.50224595 </v>
   <v>       0.71209171       0.85594129       0.50114602 </v>
   <v>       0.85651751       0.99955834       0.50067641 </v>
   <v>       0.85662516       0.14244939       0.50093197 </v>
   <v>       0.85710140       0.28546132       0.50105726 </v>
   <v>       0.85763002       0.42854762       0.50120558 </v>
   <v>       0.85796253       0.57190113       0.50129900 </v>
   <v>       0.85914401       0.71520426       0.50089256 </v>
   <v>       0.85715092       0.85689279       0.50045241 </v>
   <v>       0.04759058       0.09549103       0.49974988 </v>
   <v>       0.04718097       0.23803730       0.49989835 </v>
   <v>       0.04767505       0.38130817       0.49981614 </v>
   <v>       0.04824844       0.52415682       0.49967546 </v>
   <v>       0.04829130       0.66704610       0.49943833 </v>
   <v>       0.04809663       0.80999207       0.49921215 </v>
   <v>       0.04789059       0.95282338       0.49927028 </v>
   <v>       0.19052282       0.09560246       0.49933054 </v>
   <v>       0.19042658       0.23875454       0.49959297 </v>
   <v>       0.18989601       0.38131750       0.49907247 </v>
   <v>       0.19174756       0.52502627       0.49926479 </v>
   <v>       0.19102097       0.66723546       0.49920189 </v>
   <v>       0.19067679       0.81004790       0.49903660 </v>
   <v>       0.19074934       0.95282691       0.49904593 </v>
   <v>       0.33345692       0.09560358       0.50018661 </v>
   <v>       0.33424447       0.23836268       0.50092964 </v>
   <v>       0.33097840       0.38070809       0.49781998 </v>
   <v>       0.33232431       0.52405783       0.49738603 </v>
   <v>       0.33727399       0.67096832       0.49942063 </v>
   <v>       0.33303774       0.81019442       0.49966843 </v>
   <v>       0.33323436       0.95275804       0.49972739 </v>
   <v>       0.47629753       0.09499104       0.50116637 </v>
   <v>       0.47565632       0.23761736       0.50301599 </v>
   <v>       0.47234114       0.80641146       0.50051800 </v>
   <v>       0.47599044       0.95237059       0.50066692 </v>
   <v>       0.61876147       0.09471625       0.50167032 </v>
   <v>       0.61939879       0.23772722       0.50262538 </v>
   <v>       0.62119980       0.37910086       0.50441060 </v>
   <v>       0.61866519       0.81085176       0.50090614 </v>
   <v>       0.61777977       0.95114664       0.50134404 </v>
   <v>       0.76141395       0.09466392       0.50137086 </v>
   <v>       0.76205137       0.23765076       0.50168165 </v>
   <v>       0.76234304       0.38067196       0.50224797 </v>
   <v>       0.76214900       0.52491086       0.50260624 </v>
   <v>       0.76384571       0.66738341       0.50205383 </v>
   <v>       0.76114960       0.80763613       0.50124174 </v>
   <v>       0.76087088       0.95148194       0.50111403 </v>
   <v>       0.90419751       0.09463502       0.50057614 </v>
   <v>       0.90452172       0.23782188       0.50070955 </v>
   <v>       0.90491737       0.38104836       0.50070806 </v>
   <v>       0.90530584       0.52411992       0.50075004 </v>
   <v>       0.90586556       0.66706215       0.50054520 </v>
   <v>       0.90549049       0.81005693       0.50019973 </v>
   <v>       0.90451074       0.95208670       0.50016668 </v>
   <v>       0.46329133       0.35487938       0.50640509 </v>
   <v>       0.40369548       0.41916167       0.49719580 </v>
   <v>       0.40523558       0.56060530       0.49492820 </v>
   <v>       0.64458799       0.67559278       0.50381711 </v>
   <v>       0.64509173       0.53993370       0.50390536 </v>
   <v>       0.58510133       0.41550532       0.50578668 </v>
   <v>       0.57988740       0.73819765       0.50037449 </v>
   <v>       0.47075814       0.53867907       0.62288220 </v>
   <v>       0.56133609       0.55232325       0.65595229 </v>
   <v>       0.42725841       0.71592123       0.50023966 </v>
   <v>       0.52158635       0.53268335       0.60466391 </v>
  </varray>
  <varray name="selective"  type="logical" >
   <v type="logical" >  T  T  T </v>
   <v type="logical" >  T  T  T </v>
   <v type="logical" >  T  T  T </v>
   <v type="logical" >  T  T  T </v>
   <v type="logical" >  T  T  T </v>
   <v type="logical" >  T  T  T </v>
   <v type="logical" >  T  T  T </v>
   <v type="logical" >  T  T  T </v>
   <v type="logical" >  T  T  T </v>
   <v type="logical" >  T  T  T </v>
   <v type="logical" >  T  T  T </v>
   <v type="logical" >  T  T  T </v>
   <v type="logical" >  T  T  T </v>
   <v type="logical" >  T  T  T </v>
   <v type="logical" >  T  T  T </v>
   <v type="logical" >  T  T  T </v>
   <v type="logical" >  T  T  T </v>
   <v type="logical" >  T  T  T </v>
   <v type="logical" >  T  T  T </v>
   <v type="logical" >  T  T  T </v>
   <v type="logical" >  T  T  T </v>
   <v type="logical" >  T  T  T </v>
   <v type="logical" >  T  T  T </v>
   <v type="logical" >  T  T  T </v>
   <v type="logical" >  T  T  T </v>
   <v type="logical" >  T  T  T </v>
   <v type="logical" >  T  T  T </v>
   <v type="logical" >  T  T  T </v>
   <v type="logical" >  T  T  T </v>
   <v type="logical" >  T  T  T </v>
   <v type="logical" >  T  T  T </v>
   <v type="logical" >  T  T  T </v>
   <v type="logical" >  T  T  T </v>
   <v type="logical" >  T  T  T </v>
   <v type="logical" >  T  T  T </v>
   <v type="logical" >  T  T  T </v>
   <v type="logical" >  T  T  T </v>
   <v type="logical" >  T  T  T </v>
   <v type="logical" >  T  T  T </v>
   <v type="logical" >  T  T  T </v>
   <v type="logical" >  T  T  T </v>
   <v type="logical" >  T  T  T </v>
   <v type="logical" >  T  T  T </v>
   <v type="logical" >  T  T  T </v>
   <v type="logical" >  T  T  T </v>
   <v type="logical" >  T  T  T </v>
   <v type="logical" >  T  T  T </v>
   <v type="logical" >  T  T  T </v>
   <v type="logical" >  T  T  T </v>
   <v type="logical" >  T  T  T </v>
   <v type="logical" >  T  T  T </v>
   <v type="logical" >  T  T  T </v>
   <v type="logical" >  T  T  T </v>
   <v type="logical" >  T  T  T </v>
   <v type="logical" >  T  T  T </v>
   <v type="logical" >  T  T  T </v>
   <v type="logical" >  T  T  T </v>
   <v type="logical" >  T  T  T </v>
   <v type="logical" >  T  T  T </v>
   <v type="logical" >  T  T  T </v>
   <v type="logical" >  T  T  T </v>
   <v type="logical" >  T  T  T </v>
   <v type="logical" >  T  T  T </v>
   <v type="logical" >  T  T  T </v>
   <v type="logical" >  T  T  T </v>
   <v type="logical" >  T  T  T </v>
   <v type="logical" >  T  T  T </v>
   <v type="logical" >  T  T  T </v>
   <v type="logical" >  T  T  T </v>
   <v type="logical" >  T  T  T </v>
   <v type="logical" >  T  T  T </v>
   <v type="logical" >  T  T  T </v>
   <v type="logical" >  T  T  T </v>
   <v type="logical" >  T  T  T </v>
   <v type="logical" >  T  T  T </v>
   <v type="logical" >  T  T  T </v>
   <v type="logical" >  T  T  T </v>
   <v type="logical" >  T  T  T </v>
   <v type="logical" >  T  T  T </v>
   <v type="logical" >  T  T  T </v>
   <v type="logical" >  T  T  T </v>
   <v type="logical" >  T  T  T </v>
   <v type="logical" >  T  T  T </v>
   <v type="logical" >  T  T  T </v>
   <v type="logical" >  T  T  T </v>
   <v type="logical" >  T  T  T </v>
   <v type="logical" >  T  T  T </v>
   <v type="logical" >  T  T  T </v>
   <v type="logical" >  T  T  T </v>
   <v type="logical" >  T  T  T </v>
   <v type="logical" >  T  T  T </v>
   <v type="logical" >  T  T  T </v>
   <v type="logical" >  T  T  T </v>
   <v type="logical" >  T  T  T </v>
   <v type="logical" >  T  T  T </v>
   <v type="logical" >  T  T  T </v>
   <v type="logical" >  T  T  T </v>
   <v type="logical" >  T  T  F </v>
  </varray>
  <nose>
   <v>      -3.00000000       0.00000000       0.00010000       0.00010000 </v>
  </nose>
 </structure>
</modeling>
