unknown system                          
            1
    17.271038    0.000000    0.000000
    -8.635519   14.957158    0.000000
     0.000000    0.000000   15.000000
   C    H    N    O 
    87     9     1     1
Direct configuration=     1
   0.99994302  0.00011198  0.49825652
   0.99979129  0.14287146  0.49981521
   0.00005137  0.28594179  0.50069867
   0.00036412  0.42886653  0.50048399
   0.00058898  0.57172042  0.49904337
   0.00117176  0.71482254  0.49766660
   0.00087298  0.85788195  0.49738698
   0.14327317  0.00072478  0.49819581
   0.14297460  0.14345106  0.49937056
   0.14281338  0.28613423  0.49990277
   0.14338001  0.42956676  0.50023628
   0.14361215  0.57189293  0.49998452
   0.14357345  0.71461485  0.49867951
   0.14333973  0.85769773  0.49792556
   0.28585256  0.00028307  0.49971925
   0.28594724  0.14312553  0.50034957
   0.28644461  0.28775120  0.49995183
   0.28567067  0.42948289  0.49817563
   0.28820036  0.57276605  0.49951007
   0.28644091  0.71546719  0.49993081
   0.28564988  0.85790737  0.49956291
   0.42876324  0.00008218  0.50111803
   0.42864848  0.14260175  0.50202514
   0.42724112  0.28242336  0.50460589
   0.42787435  0.85702694  0.50078999
   0.57109357  0.99966607  0.50179251
   0.57156476  0.14239130  0.50253358
   0.57253400  0.28584979  0.50339975
   0.57016351  0.85562171  0.50160459
   0.71334791  0.99902012  0.50140287
   0.71435575  0.14253443  0.50201412
   0.71462467  0.28554803  0.50217484
   0.71419073  0.42769623  0.50166218
   0.71788347  0.57341041  0.50137965
   0.71740063  0.71488128  0.50154895
   0.71230696  0.85604511  0.50106120
   0.85663485  0.99964122  0.49992816
   0.85677377  0.14252610  0.50100907
   0.85725947  0.28556557  0.50135817
   0.85771888  0.42860167  0.50055693
   0.85803724  0.57194011  0.49915424
   0.85926345  0.71523862  0.49856538
   0.85727523  0.85695222  0.49891461
   0.04768674  0.09548240  0.49901980
   0.04729146  0.23805744  0.50021868
   0.04773059  0.38134093  0.50061571
   0.04831317  0.52418672  0.49985605
   0.04835263  0.66705780  0.49829788
   0.04821951  0.81001856  0.49736460
   0.04796982  0.95284209  0.49768487
   0.19070703  0.09563389  0.49906002
   0.19055498  0.23874391  0.49985110
   0.18998351  0.38134493  0.49970475
   0.19179570  0.52505083  0.50021754
   0.19114210  0.66724816  0.49951844
   0.19077982  0.81004942  0.49858873
   0.19086220  0.95286217  0.49843144
   0.33354369  0.09559802  0.50077853
   0.33437344  0.23838400  0.50169645
   0.33108277  0.38071996  0.49791901
   0.33238620  0.52410676  0.49751354
   0.33736911  0.67100847  0.50018563
   0.33313739  0.81022900  0.50009939
   0.33336590  0.95281095  0.50012462
   0.47637874  0.09501596  0.50190814
   0.47574742  0.23762947  0.50359966
   0.47252595  0.80646048  0.50119823
   0.47608769  0.95236697  0.50127075
   0.61892745  0.09478487  0.50217920
   0.61947986  0.23771533  0.50287267
   0.62129625  0.37910450  0.50266748
   0.61888213  0.81101971  0.50159237
   0.61794083  0.95128886  0.50167205
   0.76156419  0.09474008  0.50151246
   0.76217799  0.23771658  0.50188579
   0.76245157  0.38073119  0.50152224
   0.76222438  0.52495535  0.50063043
   0.76398214  0.66742625  0.50039813
   0.76126981  0.80766713  0.50052322
   0.76105145  0.95160171  0.50075825
   0.90430129  0.09470267  0.50023883
   0.90466377  0.23789582  0.50106483
   0.90502987  0.38109987  0.50081312
   0.90538625  0.52417836  0.49940399
   0.90594173  0.66710587  0.49813590
   0.90557606  0.81007681  0.49800634
   0.90462380  0.95211229  0.49880491
   0.46340965  0.35486870  0.50790562
   0.40378588  0.41924983  0.49712357
   0.40529410  0.56066402  0.49454242
   0.64473791  0.67555852  0.50403022
   0.64522089  0.54005252  0.50319261
   0.58527423  0.41559193  0.50244844
   0.58010634  0.73833082  0.50177257
   0.46800951  0.53900821  0.62336042
   0.55503944  0.54559717  0.65853768
   0.42739229  0.71597227  0.50101301
   0.51983169  0.53495519  0.60466391
Direct configuration=     2
   0.99994289  0.00011289  0.49826346
   0.99977894  0.14286596  0.49981562
   0.00006626  0.28593065  0.50069515
   0.00036301  0.42885583  0.50048273
   0.00058684  0.57172885  0.49904614
   0.00117613  0.71483051  0.49766568
   0.00087392  0.85786390  0.49738778
   0.14326717  0.00072014  0.49819501
   0.14298835  0.14344696  0.49936747
   0.14280646  0.28613007  0.49990286
   0.14337681  0.42956203  0.50023497
   0.14362607  0.57190813  0.49998436
   0.14358041  0.71461731  0.49868167
   0.14334098  0.85769723  0.49792500
   0.28584457  0.00027264  0.49971890
   0.28595404  0.14312486  0.50034331
   0.28642999  0.28775031  0.49995024
   0.28565529  0.42946188  0.49817713
   0.28821547  0.57276218  0.49950605
   0.28645067  0.71547483  0.49992864
   0.28562999  0.85790018  0.49956159
   0.42876972  0.00008096  0.50111683
   0.42863752  0.14262123  0.50202240
   0.42723472  0.28243142  0.50459597
   0.42786222  0.85699135  0.50079433
   0.57107347  0.99966827  0.50179112
   0.57154234  0.14237332  0.50252962
   0.57254054  0.28582890  0.50340473
   0.57018036  0.85563434  0.50160614
   0.71334618  0.99899758  0.50140160
   0.71438205  0.14254381  0.50201210
   0.71461932  0.28554408  0.50217728
   0.71418286  0.42768254  0.50166539
   0.71788894  0.57340082  0.50137828
   0.71740236  0.71489007  0.50154761
   0.71229056  0.85604775  0.50106319
   0.85664562  0.99963799  0.49992799
   0.85676453  0.14252554  0.50100980
   0.85724242  0.28554468  0.50135533
   0.85772230  0.42860194  0.50055958
   0.85803781  0.57194551  0.49915879
   0.85925091  0.71523854  0.49856399
   0.85726418  0.85693511  0.49891147
   0.04769248  0.09549753  0.49902487
   0.04729915  0.23807210  0.50021727
   0.04774874  0.38134959  0.50061429
   0.04831190  0.52418749  0.49985679
   0.04836477  0.66705829  0.49829813
   0.04821440  0.81002583  0.49736960
   0.04798771  0.95285263  0.49768809
   0.19067340  0.09562714  0.49906239
   0.19055497  0.23875820  0.49985033
   0.18998858  0.38134606  0.49970528
   0.19179824  0.52504518  0.50021182
   0.19111537  0.66724390  0.49951365
   0.19078939  0.81006258  0.49859010
   0.19086192  0.95285833  0.49843449
   0.33355838  0.09561058  0.50077907
   0.33437740  0.23838832  0.50169458
   0.33107934  0.38073151  0.49792261
   0.33239280  0.52411317  0.49752040
   0.33737905  0.67101838  0.50018120
   0.33315323  0.81023330  0.50009981
   0.33335553  0.95280192  0.50012329
   0.47640524  0.09501301  0.50190897
   0.47575187  0.23761925  0.50360100
   0.47250472  0.80646480  0.50119881
   0.47611095  0.95240115  0.50127120
   0.61890485  0.09477602  0.50218106
   0.61949511  0.23774838  0.50287067
   0.62130439  0.37912279  0.50266659
   0.61887189  0.81099595  0.50159107
   0.61793587  0.95126337  0.50167003
   0.76156334  0.09475423  0.50151095
   0.76218254  0.23772279  0.50188529
   0.76244702  0.38073090  0.50151993
   0.76222947  0.52495691  0.50062918
   0.76397841  0.66743530  0.50040067
   0.76127820  0.80767101  0.50051722
   0.76103414  0.95158584  0.50076266
   0.90431997  0.09470204  0.50023616
   0.90465314  0.23789601  0.50106688
   0.90502759  0.38111500  0.50081396
   0.90538433  0.52416417  0.49940926
   0.90595270  0.66709886  0.49814468
   0.90558718  0.81009068  0.49801368
   0.90461542  0.95212388  0.49881154
   0.46340775  0.35486890  0.50790776
   0.40378655  0.41924711  0.49712261
   0.40528990  0.56066215  0.49454127
   0.64473810  0.67555936  0.50403319
   0.64521925  0.54005240  0.50319594
   0.58527124  0.41558958  0.50245413
   0.58011031  0.73834089  0.50176951
   0.46801172  0.53900883  0.62336017
   0.55504739  0.54560588  0.65853687
   0.42738515  0.71596536  0.50101273
   0.51983489  0.53495033  0.60466391
Direct configuration=     3
   0.99994285  0.00011323  0.49826603
   0.99977437  0.14286392  0.49981576
   0.00007179  0.28592652  0.50069384
   0.00036260  0.42885187  0.50048227
   0.00058605  0.57173198  0.49904717
   0.00117775  0.71483347  0.49766533
   0.00087427  0.85785721  0.49738807
   0.14326495  0.00071842  0.49819471
   0.14299345  0.14344544  0.49936632
   0.14280390  0.28612852  0.49990289
   0.14337562  0.42956028  0.50023448
   0.14363122  0.57191377  0.49998431
   0.14358299  0.71461822  0.49868247
   0.14334144  0.85769704  0.49792480
   0.28584161  0.00026878  0.49971877
   0.28595656  0.14312461  0.50034099
   0.28642458  0.28774998  0.49994965
   0.28564959  0.42945409  0.49817769
   0.28822107  0.57276075  0.49950456
   0.28645428  0.71547766  0.49992783
   0.28562262  0.85789751  0.49956110
   0.42877212  0.00008051  0.50111639
   0.42863346  0.14262844  0.50202138
   0.42723235  0.28243440  0.50459229
   0.42785773  0.85697816  0.50079594
   0.57106602  0.99966909  0.50179061
   0.57153403  0.14236666  0.50252815
   0.57254296  0.28582116  0.50340657
   0.57018660  0.85563902  0.50160671
   0.71334554  0.99898923  0.50140112
   0.71439180  0.14254729  0.50201135
   0.71461734  0.28554262  0.50217818
   0.71417995  0.42767747  0.50166657
   0.71789097  0.57339726  0.50137777
   0.71740300  0.71489333  0.50154711
   0.71228449  0.85604873  0.50106393
   0.85664961  0.99963679  0.49992793
   0.85676110  0.14252533  0.50101007
   0.85723610  0.28553694  0.50135428
   0.85772357  0.42860203  0.50056055
   0.85803802  0.57194751  0.49916048
   0.85924626  0.71523851  0.49856347
   0.85726008  0.85692877  0.49891031
   0.04769460  0.09550314  0.49902675
   0.04730200  0.23807753  0.50021675
   0.04775547  0.38135280  0.50061376
   0.04831143  0.52418778  0.49985706
   0.04836927  0.66705847  0.49829823
   0.04821250  0.81002853  0.49737145
   0.04799434  0.95285654  0.49768928
   0.19066093  0.09562463  0.49906327
   0.19055496  0.23876350  0.49985005
   0.18999046  0.38134647  0.49970548
   0.19179919  0.52504309  0.50020969
   0.19110546  0.66724232  0.49951187
   0.19079293  0.81006746  0.49859060
   0.19086182  0.95285690  0.49843563
   0.33356383  0.09561524  0.50077927
   0.33437887  0.23838992  0.50169388
   0.33107807  0.38073579  0.49792394
   0.33239525  0.52411555  0.49752294
   0.33738273  0.67102205  0.50017955
   0.33315911  0.81023490  0.50009996
   0.33335169  0.95279858  0.50012280
   0.47641506  0.09501192  0.50190929
   0.47575353  0.23761547  0.50360149
   0.47249685  0.80646640  0.50119903
   0.47611957  0.95241381  0.50127137
   0.61889647  0.09477274  0.50218174
   0.61950076  0.23776062  0.50286993
   0.62130741  0.37912957  0.50266626
   0.61886810  0.81098715  0.50159059
   0.61793404  0.95125392  0.50166928
   0.76156303  0.09475947  0.50151039
   0.76218423  0.23772509  0.50188510
   0.76244534  0.38073079  0.50151908
   0.76223136  0.52495748  0.50062871
   0.76397702  0.66743865  0.50040161
   0.76128131  0.80767244  0.50051499
   0.76102773  0.95157996  0.50076429
   0.90432689  0.09470181  0.50023517
   0.90464921  0.23789608  0.50106764
   0.90502674  0.38112061  0.50081427
   0.90538362  0.52415891  0.49941122
   0.90595677  0.66709626  0.49814794
   0.90559129  0.81009582  0.49801640
   0.90461232  0.95212818  0.49881400
   0.46340704  0.35486898  0.50790856
   0.40378680  0.41924610  0.49712225
   0.40528834  0.56066146  0.49454084
   0.64473818  0.67555967  0.50403429
   0.64521865  0.54005235  0.50319718
   0.58527013  0.41558871  0.50245624
   0.58011179  0.73834462  0.50176837
   0.46801255  0.53900906  0.62336008
   0.55505033  0.54560911  0.65853656
   0.42738251  0.71596279  0.50101262
   0.51983608  0.53494853  0.60466391
Direct configuration=     4
   0.99994665  0.00012056  0.49827432
   0.99977745  0.14286965  0.49981619
   0.00007797  0.28592709  0.50069033
   0.00036465  0.42885024  0.50048106
   0.00058574  0.57173243  0.49905056
   0.00118589  0.71483581  0.49766562
   0.00088085  0.85786014  0.49739025
   0.14326101  0.00071549  0.49819463
   0.14299485  0.14345149  0.49936378
   0.14280319  0.28613257  0.49990286
   0.14338137  0.42956259  0.50023264
   0.14363309  0.57191401  0.49998324
   0.14358566  0.71462397  0.49868429
   0.14334132  0.85769941  0.49792490
   0.28584210  0.00026582  0.49971876
   0.28595082  0.14312194  0.50033472
   0.28641716  0.28775541  0.49994811
   0.28564391  0.42945142  0.49817991
   0.28822987  0.57275930  0.49950035
   0.28645237  0.71547987  0.49992475
   0.28562101  0.85789650  0.49955994
   0.42877578  0.00008108  0.50111520
   0.42863991  0.14263235  0.50201885
   0.42723737  0.28243817  0.50458192
   0.42786111  0.85698125  0.50080051
   0.57106430  0.99966981  0.50178926
   0.57153565  0.14237116  0.50252439
   0.57255293  0.28582731  0.50341145
   0.57018427  0.85563108  0.50160811
   0.71333947  0.99897833  0.50139992
   0.71439099  0.14255025  0.50200943
   0.71462046  0.28554954  0.50218005
   0.71417865  0.42767442  0.50166911
   0.71789335  0.57339433  0.50137665
   0.71740035  0.71489771  0.50154567
   0.71227360  0.85604054  0.50106568
   0.85664986  0.99963370  0.49992848
   0.85676105  0.14252477  0.50101053
   0.85723149  0.28553925  0.50135151
   0.85772129  0.42860048  0.50056345
   0.85804324  0.57194379  0.49916601
   0.85924604  0.71524068  0.49856339
   0.85725908  0.85692932  0.49890761
   0.04769788  0.09550907  0.49903212
   0.04730217  0.23807700  0.50021497
   0.04776151  0.38134812  0.50061184
   0.04831347  0.52418855  0.49985802
   0.04837594  0.66706664  0.49829864
   0.04821318  0.81002930  0.49737617
   0.04799649  0.95285310  0.49769287
   0.19065485  0.09562172  0.49906504
   0.19055449  0.23876832  0.49984887
   0.18998677  0.38133990  0.49970609
   0.19180656  0.52504450  0.50020347
   0.19110587  0.66725038  0.49950717
   0.19079178  0.81007075  0.49859182
   0.19086031  0.95285377  0.49843842
   0.33356390  0.09561839  0.50077873
   0.33437337  0.23839076  0.50169011
   0.33107453  0.38073734  0.49792783
   0.33239568  0.52410904  0.49752993
   0.33738447  0.67102416  0.50017452
   0.33315730  0.81023122  0.50010042
   0.33334352  0.95279189  0.50012132
   0.47641232  0.09501197  0.50190940
   0.47575359  0.23761873  0.50360245
   0.47249135  0.80646318  0.50120026
   0.47611705  0.95241185  0.50127174
   0.61889378  0.09477350  0.50218298
   0.61950462  0.23776296  0.50286819
   0.62130370  0.37912478  0.50266650
   0.61886083  0.81098063  0.50158936
   0.61793308  0.95124616  0.50166723
   0.76156185  0.09475591  0.50150854
   0.76218318  0.23772353  0.50188441
   0.76244157  0.38072473  0.50151750
   0.76223492  0.52495604  0.50062787
   0.76397241  0.66744049  0.50040370
   0.76128189  0.80767825  0.50050860
   0.76102205  0.95157114  0.50076871
   0.90432858  0.09470000  0.50023268
   0.90464747  0.23789198  0.50106914
   0.90502258  0.38111679  0.50081501
   0.90538214  0.52415833  0.49941717
   0.90596020  0.66709869  0.49815681
   0.90559241  0.81009513  0.49802336
   0.90460830  0.95212646  0.49882079
   0.46340602  0.35487249  0.50791087
   0.40378547  0.41924309  0.49712132
   0.40528809  0.56066079  0.49453969
   0.64473921  0.67556184  0.50403777
   0.64522018  0.54005271  0.50320093
   0.58526549  0.41558849  0.50246289
   0.58010855  0.73834153  0.50176463
   0.46801722  0.53900966  0.62335914
   0.55506016  0.54561971  0.65853599
   0.42738352  0.71596467  0.50101207
   0.51983760  0.53494309  0.60466391
Direct configuration=     5
   0.99995381  0.00013432  0.49828990
   0.99978323  0.14288042  0.49981700
   0.00008959  0.28592816  0.50068373
   0.00036849  0.42884718  0.50047877
   0.00058515  0.57173328  0.49905693
   0.00120120  0.71484021  0.49766616
   0.00089322  0.85786566  0.49739434
   0.14325360  0.00071000  0.49819449
   0.14299749  0.14346287  0.49935901
   0.14280186  0.28614018  0.49990280
   0.14339217  0.42956695  0.50022918
   0.14363659  0.57191447  0.49998124
   0.14359066  0.71463479  0.49868772
   0.14334107  0.85770386  0.49792508
   0.28584303  0.00026026  0.49971876
   0.28594003  0.14311692  0.50032293
   0.28640323  0.28776561  0.49994521
   0.28563324  0.42944639  0.49818410
   0.28824643  0.57275659  0.49949245
   0.28644877  0.71548403  0.49991897
   0.28561798  0.85789459  0.49955775
   0.42878264  0.00008217  0.50111296
   0.42865203  0.14263970  0.50201409
   0.42724680  0.28244525  0.50456242
   0.42786748  0.85698706  0.50080910
   0.57106106  0.99967116  0.50178672
   0.57153869  0.14237961  0.50251733
   0.57257167  0.28583885  0.50342062
   0.57017987  0.85561616  0.50161074
   0.71332806  0.99895785  0.50139766
   0.71438946  0.14255581  0.50200583
   0.71462632  0.28556254  0.50218355
   0.71417622  0.42766869  0.50167388
   0.71789782  0.57338881  0.50137455
   0.71739538  0.71490593  0.50154295
   0.71225315  0.85602513  0.50106897
   0.85665034  0.99962788  0.49992952
   0.85676096  0.14252373  0.50101141
   0.85722281  0.28554358  0.50134631
   0.85771700  0.42859755  0.50056888
   0.85805305  0.57193681  0.49917642
   0.85924563  0.71524475  0.49856324
   0.85725721  0.85693035  0.49890253
   0.04770405  0.09552022  0.49904222
   0.04730249  0.23807599  0.50021163
   0.04777287  0.38133933  0.50060821
   0.04831729  0.52419000  0.49985984
   0.04838847  0.66708199  0.49829942
   0.04821444  0.81003075  0.49738505
   0.04800053  0.95284665  0.49769960
   0.19064341  0.09561626  0.49906838
   0.19055359  0.23877738  0.49984664
   0.18997984  0.38132755  0.49970723
   0.19182042  0.52504717  0.50019178
   0.19110665  0.66726554  0.49949833
   0.19078961  0.81007694  0.49859412
   0.19085747  0.95284788  0.49844368
   0.33356403  0.09562430  0.50077772
   0.33436302  0.23839235  0.50168301
   0.33106789  0.38074027  0.49793513
   0.33239650  0.52409679  0.49754305
   0.33738773  0.67102813  0.50016505
   0.33315391  0.81022431  0.50010129
   0.33332817  0.95277931  0.50011854
   0.47640718  0.09501207  0.50190960
   0.47575372  0.23762487  0.50360425
   0.47248102  0.80645712  0.50120257
   0.47611231  0.95240815  0.50127244
   0.61888872  0.09477492  0.50218531
   0.61951190  0.23776736  0.50286492
   0.62129672  0.37911577  0.50266695
   0.61884717  0.81096838  0.50158703
   0.61793129  0.95123157  0.50166337
   0.76155963  0.09474921  0.50150505
   0.76218120  0.23772060  0.50188310
   0.76243449  0.38071333  0.50151453
   0.76224160  0.52495334  0.50062629
   0.76396374  0.66744395  0.50040763
   0.76128298  0.80768916  0.50049660
   0.76101138  0.95155456  0.50077702
   0.90433175  0.09469662  0.50022799
   0.90464420  0.23788428  0.50107197
   0.90501477  0.38110963  0.50081640
   0.90537937  0.52415725  0.49942835
   0.90596665  0.66710325  0.49817348
   0.90559452  0.81009382  0.49803643
   0.90460074  0.95212324  0.49883354
   0.46340409  0.35487908  0.50791520
   0.40378298  0.41923744  0.49711957
   0.40528762  0.56065954  0.49453751
   0.64474116  0.67556591  0.50404432
   0.64522305  0.54005337  0.50320797
   0.58525677  0.41558807  0.50247540
   0.58010247  0.73833573  0.50175760
   0.46802601  0.53901078  0.62335739
   0.55507862  0.54563962  0.65853491
   0.42738543  0.71596821  0.50101103
   0.51984045  0.53493287  0.60466391
Direct configuration=     6
   0.99995574  0.00013710  0.49830120
   0.99978464  0.14288275  0.49981755
   0.00008825  0.28592510  0.50067968
   0.00037048  0.42884315  0.50047756
   0.00058876  0.57173681  0.49906164
   0.00120455  0.71484329  0.49766829
   0.00089388  0.85786530  0.49739886
   0.14325270  0.00070772  0.49819548
   0.14299837  0.14346897  0.49935686
   0.14279901  0.28613942  0.49990260
   0.14339837  0.42956814  0.50022629
   0.14364193  0.57191802  0.49997855
   0.14359362  0.71464305  0.49868933
   0.14334025  0.85770547  0.49792620
   0.28584246  0.00026105  0.49971897
   0.28593457  0.14311730  0.50031591
   0.28639972  0.28776862  0.49994355
   0.28562938  0.42944318  0.49818809
   0.28825393  0.57275813  0.49948721
   0.28644728  0.71548360  0.49991426
   0.28561590  0.85789086  0.49955646
   0.42877733  0.00007997  0.50111149
   0.42865249  0.14264185  0.50201138
   0.42724338  0.28244690  0.50455002
   0.42786530  0.85698763  0.50081444
   0.57106258  0.99966824  0.50178520
   0.57153988  0.14238392  0.50251322
   0.57257272  0.28583950  0.50342613
   0.57017099  0.85560644  0.50161222
   0.71332479  0.99895155  0.50139634
   0.71438608  0.14255249  0.50200361
   0.71462734  0.28556093  0.50218502
   0.71417478  0.42766662  0.50167607
   0.71790064  0.57338980  0.50137365
   0.71739479  0.71491057  0.50154089
   0.71224630  0.85601821  0.50107056
   0.85664529  0.99962357  0.49993118
   0.85676010  0.14251947  0.50101156
   0.85722173  0.28554089  0.50134342
   0.85771429  0.42859478  0.50057258
   0.85805741  0.57193868  0.49918413
   0.85924576  0.71524475  0.49856533
   0.85725810  0.85693180  0.49890023
   0.04770671  0.09552578  0.49904899
   0.04730402  0.23807688  0.50020916
   0.04777772  0.38133970  0.50060518
   0.04831871  0.52418892  0.49986123
   0.04839202  0.66708346  0.49830052
   0.04821836  0.81003225  0.49739020
   0.04799890  0.95284800  0.49770467
   0.19063899  0.09561483  0.49906929
   0.19055041  0.23878189  0.49984475
   0.18997776  0.38132676  0.49970796
   0.19182879  0.52505106  0.50018396
   0.19110788  0.66726875  0.49949293
   0.19078916  0.81008045  0.49859545
   0.19085750  0.95284901  0.49844662
   0.33356469  0.09562468  0.50077586
   0.33435967  0.23839569  0.50167637
   0.33106546  0.38074361  0.49793970
   0.33239859  0.52409095  0.49755089
   0.33738767  0.67102690  0.50015854
   0.33315429  0.81022583  0.50010199
   0.33333014  0.95277828  0.50011682
   0.47640708  0.09501359  0.50190890
   0.47576113  0.23763168  0.50360429
   0.47248181  0.80645711  0.50120477
   0.47611174  0.95240680  0.50127317
   0.61888817  0.09477689  0.50218570
   0.61951642  0.23776933  0.50286346
   0.62129670  0.37911873  0.50266863
   0.61883791  0.81095907  0.50158574
   0.61792536  0.95122556  0.50166106
   0.76155474  0.09474244  0.50150263
   0.76217884  0.23772231  0.50188199
   0.76243454  0.38071457  0.50151372
   0.76224533  0.52494980  0.50062608
   0.76396038  0.66744409  0.50040938
   0.76127965  0.80769134  0.50048889
   0.76100683  0.95154573  0.50078211
   0.90433193  0.09469534  0.50022540
   0.90464560  0.23788622  0.50107290
   0.90501510  0.38110952  0.50081693
   0.90538204  0.52415539  0.49943642
   0.90597050  0.66710447  0.49818385
   0.90559666  0.81009544  0.49804379
   0.90460475  0.95212431  0.49884171
   0.46340315  0.35488410  0.50791780
   0.40377924  0.41923283  0.49711859
   0.40528808  0.56065751  0.49453651
   0.64474033  0.67556845  0.50404918
   0.64522610  0.54005329  0.50321294
   0.58525180  0.41558571  0.50248460
   0.58009568  0.73832755  0.50175221
   0.46803270  0.53901158  0.62335597
   0.55509139  0.54565430  0.65853214
   0.42738377  0.71596832  0.50100987
   0.51984386  0.53492563  0.60466391
Direct configuration=     7
   0.99996151  0.00014544  0.49833510
   0.99978888  0.14288977  0.49981918
   0.00008422  0.28591591  0.50066754
   0.00037643  0.42883105  0.50047391
   0.00059958  0.57174740  0.49907579
   0.00121460  0.71485255  0.49767469
   0.00089585  0.85786424  0.49741245
   0.14325002  0.00070089  0.49819845
   0.14300103  0.14348728  0.49935043
   0.14279045  0.28613714  0.49990199
   0.14341697  0.42957174  0.50021764
   0.14365798  0.57192867  0.49997049
   0.14360249  0.71466784  0.49869417
   0.14333778  0.85771028  0.49792953
   0.28584073  0.00026343  0.49971962
   0.28591821  0.14311842  0.50029484
   0.28638919  0.28777764  0.49993855
   0.28561781  0.42943356  0.49820005
   0.28827644  0.57276274  0.49947150
   0.28644280  0.71548233  0.49990016
   0.28560964  0.85787966  0.49955258
   0.42876139  0.00007336  0.50110710
   0.42865388  0.14264830  0.50200324
   0.42723312  0.28245184  0.50451281
   0.42785876  0.85698935  0.50083047
   0.57106712  0.99965950  0.50178063
   0.57154347  0.14239685  0.50250090
   0.57257586  0.28584145  0.50344267
   0.57014435  0.85557730  0.50161666
   0.71331496  0.99893264  0.50139238
   0.71437594  0.14254253  0.50199692
   0.71463038  0.28555611  0.50218942
   0.71417046  0.42766040  0.50168263
   0.71790911  0.57339278  0.50137093
   0.71739304  0.71492451  0.50153471
   0.71222574  0.85599743  0.50107534
   0.85663014  0.99961061  0.49993618
   0.85675750  0.14250668  0.50101200
   0.85721848  0.28553282  0.50133473
   0.85770617  0.42858646  0.50058368
   0.85807048  0.57194432  0.49920729
   0.85924616  0.71524477  0.49857160
   0.85726075  0.85693616  0.49889335
   0.04771470  0.09554247  0.49906930
   0.04730862  0.23807955  0.50020176
   0.04779227  0.38134083  0.50059608
   0.04832297  0.52418568  0.49986541
   0.04840265  0.66708786  0.49830382
   0.04823013  0.81003674  0.49740566
   0.04799402  0.95285205  0.49771987
   0.19062574  0.09561056  0.49907201
   0.19054088  0.23879539  0.49983908
   0.18997153  0.38132439  0.49971014
   0.19185392  0.52506275  0.50016050
   0.19111156  0.66727837  0.49947673
   0.19078783  0.81009098  0.49859943
   0.19085756  0.95285239  0.49845543
   0.33356667  0.09562584  0.50077028
   0.33434963  0.23840570  0.50165645
   0.33105818  0.38075366  0.49795343
   0.33240484  0.52407341  0.49757441
   0.33738749  0.67102321  0.50013899
   0.33315543  0.81023041  0.50010408
   0.33333603  0.95277518  0.50011164
   0.47640678  0.09501813  0.50190678
   0.47578337  0.23765211  0.50360441
   0.47248417  0.80645706  0.50121137
   0.47611001  0.95240275  0.50127536
   0.61888651  0.09478279  0.50218689
   0.61952999  0.23777524  0.50285906
   0.62129666  0.37912758  0.50267367
   0.61881011  0.81093114  0.50158184
   0.61790755  0.95120752  0.50165414
   0.76154005  0.09472211  0.50149535
   0.76217173  0.23772744  0.50187864
   0.76243471  0.38071831  0.50151128
   0.76225651  0.52493916  0.50062544
   0.76395027  0.66744452  0.50041463
   0.76126965  0.80769787  0.50046575
   0.76099317  0.95151925  0.50079740
   0.90433246  0.09469149  0.50021763
   0.90464979  0.23789206  0.50107571
   0.90501611  0.38110919  0.50081855
   0.90539007  0.52414981  0.49946060
   0.90598206  0.66710813  0.49821497
   0.90560307  0.81010031  0.49806587
   0.90461680  0.95212752  0.49886624
   0.46340032  0.35489915  0.50792559
   0.40376803  0.41921899  0.49711568
   0.40528947  0.56065142  0.49453348
   0.64473786  0.67557608  0.50406377
   0.64523525  0.54005306  0.50322787
   0.58523688  0.41557864  0.50251223
   0.58007532  0.73830302  0.50173606
   0.46805279  0.53901398  0.62335172
   0.55512968  0.54569834  0.65852380
   0.42737879  0.71596865  0.50100639
   0.51985406  0.53490390  0.60466391
Direct configuration=     8
   0.99996360  0.00014715  0.49835403
   0.99978565  0.14288490  0.49982006
   0.00008126  0.28591809  0.50066240
   0.00037903  0.42883156  0.50047290
   0.00060780  0.57174523  0.49908445
   0.00121314  0.71485276  0.49768321
   0.00089129  0.85786422  0.49742416
   0.14324993  0.00070477  0.49820298
   0.14299854  0.14348841  0.49935035
   0.14278598  0.28613715  0.49990099
   0.14341911  0.42957674  0.50021151
   0.14366352  0.57193127  0.49996250
   0.14360321  0.71466848  0.49869450
   0.14334229  0.85771549  0.49793402
   0.28584326  0.00026782  0.49972011
   0.28591927  0.14312283  0.50028625
   0.28639116  0.28778091  0.49993596
   0.28561806  0.42943373  0.49820958
   0.28828019  0.57276337  0.49946369
   0.28644671  0.71548072  0.49989092
   0.28561217  0.85788320  0.49955141
   0.42876096  0.00007502  0.50110524
   0.42865218  0.14265407  0.50200032
   0.42722909  0.28245728  0.50449754
   0.42785561  0.85698673  0.50083722
   0.57106526  0.99965662  0.50177885
   0.57154138  0.14239443  0.50249669
   0.57257561  0.28584421  0.50344845
   0.57013535  0.85557316  0.50161821
   0.71330923  0.99892687  0.50139110
   0.71437309  0.14253666  0.50199392
   0.71463105  0.28555365  0.50218903
   0.71417279  0.42766412  0.50168348
   0.71791435  0.57339365  0.50137131
   0.71739211  0.71492234  0.50153103
   0.71221700  0.85599041  0.50107574
   0.85662597  0.99960553  0.49994150
   0.85675285  0.14250245  0.50101065
   0.85722202  0.28553079  0.50133213
   0.85771100  0.42858764  0.50058945
   0.85807380  0.57194617  0.49922101
   0.85924610  0.71524171  0.49858080
   0.85726337  0.85693893  0.49889337
   0.04771427  0.09554393  0.49907951
   0.04730397  0.23807814  0.50019747
   0.04779338  0.38134262  0.50058980
   0.04833022  0.52418523  0.49986770
   0.04840276  0.66708812  0.49830755
   0.04823181  0.81003999  0.49741170
   0.04799065  0.95285542  0.49772996
   0.19062588  0.09561531  0.49906971
   0.19053914  0.23879699  0.49983548
   0.18997415  0.38132840  0.49971125
   0.19186167  0.52506885  0.50014893
   0.19111384  0.66727889  0.49946980
   0.19079022  0.81009603  0.49860076
   0.19085969  0.95285883  0.49845828
   0.33356220  0.09562773  0.50076428
   0.33434586  0.23840748  0.50164093
   0.33105525  0.38074952  0.49795948
   0.33240865  0.52407560  0.49758288
   0.33738626  0.67102089  0.50012885
   0.33315288  0.81023032  0.50010506
   0.33333720  0.95277737  0.50010940
   0.47640700  0.09502029  0.50190327
   0.47578147  0.23765518  0.50360072
   0.47247866  0.80645543  0.50121605
   0.47611066  0.95240523  0.50127727
   0.61888577  0.09477819  0.50218384
   0.61952792  0.23777664  0.50285906
   0.62129765  0.37913397  0.50268069
   0.61880060  0.81091783  0.50158046
   0.61790020  0.95119954  0.50165176
   0.76153525  0.09471426  0.50149164
   0.76217196  0.23772121  0.50187620
   0.76243595  0.38072047  0.50151356
   0.76225964  0.52494418  0.50062807
   0.76395655  0.66744702  0.50041489
   0.76126850  0.80769457  0.50045582
   0.76098836  0.95151439  0.50080322
   0.90432585  0.09468609  0.50021592
   0.90464711  0.23788726  0.50107405
   0.90502097  0.38110652  0.50081847
   0.90539892  0.52415209  0.49947423
   0.90598379  0.66711103  0.49822845
   0.90560143  0.81010013  0.49807323
   0.90462262  0.95213149  0.49887774
   0.46339531  0.35490252  0.50792791
   0.40376127  0.41921296  0.49711487
   0.40529311  0.56064525  0.49453363
   0.64473495  0.67558109  0.50407221