  99  99   0   0
  0.3914025E+02  0.1727104E-08  0.1727104E-08  0.1500000E-08  0.0000000E+00
  1.000000000000000E-004
  CAR 
 unknown system                          
      6.06238417    -31.34664324  301     -2.40043409      1.00000000
    -31.347  0.0000E+00  0.0000E+00  0.0000E+00  0.0000E+00
    -31.222  0.0000E+00  0.0000E+00  0.0000E+00  0.0000E+00
    -31.097  0.0000E+00  0.0000E+00  0.0000E+00  0.0000E+00
    -30.973  0.0000E+00  0.0000E+00  0.0000E+00  0.0000E+00
    -30.848  0.0000E+00  0.0000E+00  0.0000E+00  0.0000E+00
    -30.723  0.0000E+00  0.0000E+00  0.0000E+00  0.0000E+00
    -30.598  0.0000E+00  0.0000E+00  0.0000E+00  0.0000E+00
    -30.474  0.0000E+00  0.0000E+00  0.0000E+00  0.0000E+00
    -30.349  0.0000E+00  0.0000E+00  0.0000E+00  0.0000E+00
    -30.224  0.0000E+00  0.0000E+00  0.0000E+00  0.0000E+00
    -30.100  0.0000E+00  0.0000E+00  0.0000E+00  0.0000E+00
    -29.975  0.0000E+00  0.0000E+00  0.0000E+00  0.0000E+00
    -29.850  0.3145E-10  0.3145E-10  0.3921E-11  0.3921E-11
    -29.726  0.9938E-04  0.9938E-04  0.1239E-04  0.1239E-04
    -29.601  0.8536E-02  0.8536E-02  0.1077E-02  0.1077E-02
    -29.476  0.1311E-01  0.1311E-01  0.2712E-02  0.2712E-02
    -29.351  0.5349E-02  0.5349E-02  0.3379E-02  0.3379E-02
    -29.227  0.1299E-01  0.1299E-01  0.4999E-02  0.4999E-02
    -29.102  0.1317E-01  0.1317E-01  0.6642E-02  0.6642E-02
    -28.977  0.1069E-01  0.1069E-01  0.7974E-02  0.7974E-02
    -28.853  0.2067E-03  0.2067E-03  0.8000E-02  0.8000E-02
    -28.728  0.1759E-09  0.1759E-09  0.8000E-02  0.8000E-02
    -28.603  0.0000E+00  0.0000E+00  0.8000E-02  0.8000E-02
    -28.479  0.0000E+00  0.0000E+00  0.8000E-02  0.8000E-02
    -28.354  0.0000E+00  0.0000E+00  0.8000E-02  0.8000E-02
    -28.229  0.0000E+00  0.0000E+00  0.8000E-02  0.8000E-02
    -28.105  0.0000E+00  0.0000E+00  0.8000E-02  0.8000E-02
    -27.980  0.0000E+00  0.0000E+00  0.8000E-02  0.8000E-02
    -27.855  0.0000E+00  0.0000E+00  0.8000E-02  0.8000E-02
    -27.730  0.0000E+00  0.0000E+00  0.8000E-02  0.8000E-02
    -27.606  0.0000E+00  0.0000E+00  0.8000E-02  0.8000E-02
    -27.481  0.0000E+00  0.0000E+00  0.8000E-02  0.8000E-02
    -27.356  0.0000E+00  0.0000E+00  0.8000E-02  0.8000E-02
    -27.232  0.0000E+00  0.0000E+00  0.8000E-02  0.8000E-02
    -27.107  0.0000E+00  0.0000E+00  0.8000E-02  0.8000E-02
    -26.982  0.0000E+00  0.0000E+00  0.8000E-02  0.8000E-02
    -26.858  0.0000E+00  0.0000E+00  0.8000E-02  0.8000E-02
    -26.733  0.0000E+00  0.0000E+00  0.8000E-02  0.8000E-02
    -26.608  0.0000E+00  0.0000E+00  0.8000E-02  0.8000E-02
    -26.483  0.0000E+00  0.0000E+00  0.8000E-02  0.8000E-02
    -26.359  0.0000E+00  0.0000E+00  0.8000E-02  0.8000E-02
    -26.234  0.0000E+00  0.0000E+00  0.8000E-02  0.8000E-02
    -26.109  0.0000E+00  0.0000E+00  0.8000E-02  0.8000E-02
    -25.985  0.0000E+00  0.0000E+00  0.8000E-02  0.8000E-02
    -25.860  0.0000E+00  0.0000E+00  0.8000E-02  0.8000E-02
    -25.735  0.0000E+00  0.0000E+00  0.8000E-02  0.8000E-02
    -25.611  0.0000E+00  0.0000E+00  0.8000E-02  0.8000E-02
    -25.486  0.0000E+00  0.0000E+00  0.8000E-02  0.8000E-02
    -25.361  0.0000E+00  0.0000E+00  0.8000E-02  0.8000E-02
    -25.237  0.0000E+00  0.0000E+00  0.8000E-02  0.8000E-02
    -25.112  0.0000E+00  0.0000E+00  0.8000E-02  0.8000E-02
    -24.987  0.0000E+00  0.0000E+00  0.8000E-02  0.8000E-02
    -24.862  0.0000E+00  0.0000E+00  0.8000E-02  0.8000E-02
    -24.738  0.0000E+00  0.0000E+00  0.8000E-02  0.8000E-02
    -24.613  0.0000E+00  0.0000E+00  0.8000E-02  0.8000E-02
    -24.488  0.0000E+00  0.0000E+00  0.8000E-02  0.8000E-02
    -24.364  0.0000E+00  0.0000E+00  0.8000E-02  0.8000E-02
    -24.239  0.0000E+00  0.0000E+00  0.8000E-02  0.8000E-02
    -24.114  0.0000E+00  0.0000E+00  0.8000E-02  0.8000E-02
    -23.990  0.0000E+00  0.0000E+00  0.8000E-02  0.8000E-02
    -23.865  0.0000E+00  0.0000E+00  0.8000E-02  0.8000E-02
    -23.740  0.0000E+00  0.0000E+00  0.8000E-02  0.8000E-02
    -23.615  0.0000E+00  0.0000E+00  0.8000E-02  0.8000E-02
    -23.491  0.0000E+00  0.0000E+00  0.8000E-02  0.8000E-02
    -23.366  0.0000E+00  0.0000E+00  0.8000E-02  0.8000E-02
    -23.241  0.0000E+00  0.0000E+00  0.8000E-02  0.8000E-02
    -23.117  0.0000E+00  0.0000E+00  0.8000E-02  0.8000E-02
    -22.992  0.0000E+00  0.0000E+00  0.8000E-02  0.8000E-02
    -22.867  0.3742E-11  0.3742E-11  0.8000E-02  0.8000E-02
    -22.743  0.3810E-04  0.3810E-04  0.8005E-02  0.8005E-02
    -22.618  0.6576E-02  0.6576E-02  0.8825E-02  0.8825E-02
    -22.493  0.1406E-02  0.1406E-02  0.9000E-02  0.9000E-02
    -22.368  0.3279E-07  0.3279E-07  0.9000E-02  0.9000E-02
    -22.244  0.0000E+00  0.0000E+00  0.9000E-02  0.9000E-02
    -22.119  0.6510E-13  0.6510E-13  0.9000E-02  0.9000E-02
    -21.994  0.2665E-05  0.2665E-05  0.9000E-02  0.9000E-02
    -21.870  0.1873E-02  0.1873E-02  0.9234E-02  0.9234E-02
    -21.745  0.8708E-02  0.8708E-02  0.1032E-01  0.1032E-01
    -21.620  0.3675E-02  0.3675E-02  0.1078E-01  0.1078E-01
    -21.496  0.7634E-02  0.7634E-02  0.1173E-01  0.1173E-01
    -21.371  0.1063E-01  0.1063E-01  0.1305E-01  0.1305E-01
    -21.246  0.3487E-02  0.3487E-02  0.1349E-01  0.1349E-01
    -21.122  0.3769E-02  0.3769E-02  0.1396E-01  0.1396E-01
    -20.997  0.1216E-01  0.1216E-01  0.1548E-01  0.1548E-01
    -20.872  0.8128E-02  0.8128E-02  0.1649E-01  0.1649E-01
    -20.747  0.2111E-02  0.2111E-02  0.1675E-01  0.1675E-01
    -20.623  0.4478E-02  0.4478E-02  0.1731E-01  0.1731E-01
    -20.498  0.9060E-02  0.9060E-02  0.1844E-01  0.1844E-01
    -20.373  0.9775E-02  0.9775E-02  0.1966E-01  0.1966E-01
    -20.249  0.1045E-01  0.1045E-01  0.2096E-01  0.2096E-01
    -20.124  0.2874E-02  0.2874E-02  0.2132E-01  0.2132E-01
    -19.999  0.3780E-02  0.3780E-02  0.2179E-01  0.2179E-01
    -19.875  0.7353E-02  0.7353E-02  0.2271E-01  0.2271E-01
    -19.750  0.3954E-02  0.3954E-02  0.2320E-01  0.2320E-01
    -19.625  0.1034E-01  0.1034E-01  0.2449E-01  0.2449E-01
    -19.500  0.1459E-01  0.1459E-01  0.2631E-01  0.2631E-01
    -19.376  0.3625E-02  0.3625E-02  0.2676E-01  0.2676E-01
    -19.251  0.4011E-02  0.4011E-02  0.2726E-01  0.2726E-01
    -19.126  0.8058E-02  0.8058E-02  0.2827E-01  0.2827E-01
    -19.002  0.6189E-02  0.6189E-02  0.2904E-01  0.2904E-01
    -18.877  0.2266E-02  0.2266E-02  0.2932E-01  0.2932E-01
    -18.752  0.9175E-02  0.9175E-02  0.3047E-01  0.3047E-01
    -18.628  0.1264E-01  0.1264E-01  0.3204E-01  0.3204E-01
    -18.503  0.8166E-02  0.8166E-02  0.3306E-01  0.3306E-01
    -18.378  0.6523E-02  0.6523E-02  0.3387E-01  0.3387E-01
    -18.253  0.6898E-02  0.6898E-02  0.3473E-01  0.3473E-01
    -18.129  0.7938E-02  0.7938E-02  0.3572E-01  0.3572E-01
    -18.004  0.7444E-02  0.7444E-02  0.3665E-01  0.3665E-01
    -17.879  0.3854E-02  0.3854E-02  0.3713E-01  0.3713E-01
    -17.755  0.3230E-02  0.3230E-02  0.3754E-01  0.3754E-01
    -17.630  0.7520E-02  0.7520E-02  0.3847E-01  0.3847E-01
    -17.505  0.1522E-01  0.1522E-01  0.4037E-01  0.4037E-01
    -17.381  0.1214E-01  0.1214E-01  0.4188E-01  0.4188E-01
    -17.256  0.8711E-02  0.8711E-02  0.4297E-01  0.4297E-01
    -17.131  0.5984E-02  0.5984E-02  0.4372E-01  0.4372E-01
    -17.007  0.7411E-02  0.7411E-02  0.4464E-01  0.4464E-01
    -16.882  0.7024E-02  0.7024E-02  0.4552E-01  0.4552E-01
    -16.757  0.8016E-02  0.8016E-02  0.4652E-01  0.4652E-01
    -16.632  0.3955E-02  0.3955E-02  0.4701E-01  0.4701E-01
    -16.508  0.1124E-01  0.1124E-01  0.4841E-01  0.4841E-01
    -16.383  0.1509E-01  0.1509E-01  0.5029E-01  0.5029E-01
    -16.258  0.5349E-02  0.5349E-02  0.5096E-01  0.5096E-01
    -16.134  0.2395E-02  0.2395E-02  0.5126E-01  0.5126E-01
    -16.009  0.2383E-02  0.2383E-02  0.5156E-01  0.5156E-01
    -15.884  0.2596E-02  0.2596E-02  0.5188E-01  0.5188E-01
    -15.760  0.3222E-02  0.3222E-02  0.5228E-01  0.5228E-01
    -15.635  0.4136E-02  0.4136E-02  0.5280E-01  0.5280E-01
    -15.510  0.6052E-02  0.6052E-02  0.5355E-01  0.5355E-01
    -15.385  0.7667E-02  0.7667E-02  0.5451E-01  0.5451E-01
    -15.261  0.7777E-02  0.7777E-02  0.5548E-01  0.5548E-01
    -15.136  0.9417E-02  0.9417E-02  0.5665E-01  0.5665E-01
    -15.011  0.1128E-01  0.1128E-01  0.5806E-01  0.5806E-01
    -14.887  0.7829E-02  0.7829E-02  0.5904E-01  0.5904E-01
    -14.762  0.6801E-02  0.6801E-02  0.5988E-01  0.5988E-01
    -14.637  0.8778E-02  0.8778E-02  0.6098E-01  0.6098E-01
    -14.513  0.9979E-02  0.9979E-02  0.6222E-01  0.6222E-01
    -14.388  0.1578E-01  0.1578E-01  0.6419E-01  0.6419E-01
    -14.263  0.9064E-02  0.9064E-02  0.6532E-01  0.6532E-01
    -14.138  0.5315E-02  0.5315E-02  0.6598E-01  0.6598E-01
    -14.014  0.4744E-02  0.4744E-02  0.6657E-01  0.6657E-01
    -13.889  0.4865E-02  0.4865E-02  0.6718E-01  0.6718E-01
    -13.764  0.6874E-02  0.6874E-02  0.6804E-01  0.6804E-01
    -13.640  0.1252E-01  0.1252E-01  0.6960E-01  0.6960E-01
    -13.515  0.9974E-02  0.9974E-02  0.7084E-01  0.7084E-01
    -13.390  0.8508E-02  0.8508E-02  0.7190E-01  0.7190E-01
    -13.266  0.4165E-02  0.4165E-02  0.7242E-01  0.7242E-01
    -13.141  0.3219E-02  0.3219E-02  0.7283E-01  0.7283E-01
    -13.016  0.6243E-02  0.6243E-02  0.7360E-01  0.7360E-01
    -12.892  0.7832E-02  0.7832E-02  0.7458E-01  0.7458E-01
    -12.767  0.1560E-01  0.1560E-01  0.7653E-01  0.7653E-01
    -12.642  0.1632E-01  0.1632E-01  0.7856E-01  0.7856E-01
    -12.517  0.3474E-02  0.3474E-02  0.7899E-01  0.7899E-01
    -12.393  0.1335E-01  0.1335E-01  0.8066E-01  0.8066E-01
    -12.268  0.1147E-01  0.1147E-01  0.8209E-01  0.8209E-01
    -12.143  0.6012E-02  0.6012E-02  0.8284E-01  0.8284E-01
    -12.019  0.8506E-02  0.8506E-02  0.8390E-01  0.8390E-01
    -11.894  0.1445E-01  0.1445E-01  0.8570E-01  0.8570E-01
    -11.769  0.1224E-01  0.1224E-01  0.8723E-01  0.8723E-01
    -11.645  0.1150E-01  0.1150E-01  0.8866E-01  0.8866E-01
    -11.520  0.1187E-01  0.1187E-01  0.9014E-01  0.9014E-01
    -11.395  0.9090E-02  0.9090E-02  0.9127E-01  0.9127E-01
    -11.270  0.1294E-01  0.1294E-01  0.9289E-01  0.9289E-01
    -11.146  0.1329E-01  0.1329E-01  0.9455E-01  0.9455E-01
    -11.021  0.1131E-01  0.1131E-01  0.9596E-01  0.9596E-01
    -10.896  0.1173E-01  0.1173E-01  0.9742E-01  0.9742E-01
    -10.772  0.1026E-01  0.1026E-01  0.9870E-01  0.9870E-01
    -10.647  0.1068E-01  0.1068E-01  0.1000E+00  0.1000E+00
    -10.522  0.1372E-01  0.1372E-01  0.1017E+00  0.1017E+00
    -10.398  0.1248E-01  0.1248E-01  0.1033E+00  0.1033E+00
    -10.273  0.1605E-01  0.1605E-01  0.1053E+00  0.1053E+00
    -10.148  0.2333E-01  0.2333E-01  0.1082E+00  0.1082E+00
    -10.023  0.2354E-01  0.2354E-01  0.1111E+00  0.1111E+00
     -9.899  0.2083E-01  0.2083E-01  0.1137E+00  0.1137E+00
     -9.774  0.1724E-01  0.1724E-01  0.1159E+00  0.1159E+00
     -9.649  0.1936E-01  0.1936E-01  0.1183E+00  0.1183E+00
     -9.525  0.2157E-01  0.2157E-01  0.1210E+00  0.1210E+00
     -9.400  0.2429E-01  0.2429E-01  0.1240E+00  0.1240E+00
     -9.275  0.2329E-01  0.2329E-01  0.1269E+00  0.1269E+00
     -9.151  0.2540E-01  0.2540E-01  0.1301E+00  0.1301E+00
     -9.026  0.1422E-01  0.1422E-01  0.1319E+00  0.1319E+00
     -8.901  0.2196E-01  0.2196E-01  0.1346E+00  0.1346E+00
     -8.777  0.2775E-01  0.2775E-01  0.1381E+00  0.1381E+00
     -8.652  0.2383E-01  0.2383E-01  0.1410E+00  0.1410E+00
     -8.527  0.1633E-01  0.1633E-01  0.1431E+00  0.1431E+00
     -8.402  0.1415E-01  0.1415E-01  0.1448E+00  0.1448E+00
     -8.278  0.1506E-01  0.1506E-01  0.1467E+00  0.1467E+00
     -8.153  0.1676E-01  0.1676E-01  0.1488E+00  0.1488E+00
     -8.028  0.2487E-01  0.2487E-01  0.1519E+00  0.1519E+00
     -7.904  0.2310E-01  0.2310E-01  0.1548E+00  0.1548E+00
     -7.779  0.1555E-01  0.1555E-01  0.1567E+00  0.1567E+00
     -7.654  0.1495E-01  0.1495E-01  0.1586E+00  0.1586E+00
     -7.530  0.1307E-01  0.1307E-01  0.1602E+00  0.1602E+00
     -7.405  0.1717E-01  0.1717E-01  0.1624E+00  0.1624E+00
     -7.280  0.2131E-01  0.2131E-01  0.1650E+00  0.1650E+00
     -7.155  0.1592E-01  0.1592E-01  0.1670E+00  0.1670E+00
     -7.031  0.1748E-01  0.1748E-01  0.1692E+00  0.1692E+00
     -6.906  0.1996E-01  0.1996E-01  0.1717E+00  0.1717E+00
     -6.781  0.1653E-01  0.1653E-01  0.1737E+00  0.1737E+00
     -6.657  0.1506E-01  0.1506E-01  0.1756E+00  0.1756E+00
     -6.532  0.1400E-01  0.1400E-01  0.1774E+00  0.1774E+00
     -6.407  0.1059E-01  0.1059E-01  0.1787E+00  0.1787E+00
     -6.283  0.8971E-02  0.8971E-02  0.1798E+00  0.1798E+00
     -6.158  0.2245E-01  0.2245E-01  0.1826E+00  0.1826E+00
     -6.033  0.2174E-01  0.2174E-01  0.1853E+00  0.1853E+00
     -5.909  0.4995E-02  0.4995E-02  0.1859E+00  0.1859E+00
     -5.784  0.1133E-01  0.1133E-01  0.1873E+00  0.1873E+00
     -5.659  0.1187E-01  0.1187E-01  0.1888E+00  0.1888E+00
     -5.534  0.7641E-02  0.7641E-02  0.1898E+00  0.1898E+00
     -5.410  0.7196E-02  0.7196E-02  0.1907E+00  0.1907E+00
     -5.285  0.6030E-02  0.6030E-02  0.1914E+00  0.1914E+00
     -5.160  0.4075E-02  0.4075E-02  0.1919E+00  0.1919E+00
     -5.036  0.1939E-01  0.1939E-01  0.1944E+00  0.1944E+00
     -4.911  0.1200E-01  0.1200E-01  0.1958E+00  0.1958E+00
     -4.786  0.1819E-01  0.1819E-01  0.1981E+00  0.1981E+00
     -4.662  0.3969E-02  0.3969E-02  0.1986E+00  0.1986E+00
     -4.537  0.8719E-02  0.8719E-02  0.1997E+00  0.1997E+00
     -4.412  0.9080E-02  0.9080E-02  0.2008E+00  0.2008E+00
     -4.287  0.6383E-02  0.6383E-02  0.2016E+00  0.2016E+00
     -4.163  0.8967E-02  0.8967E-02  0.2027E+00  0.2027E+00
     -4.038  0.6448E-02  0.6448E-02  0.2035E+00  0.2035E+00
     -3.913  0.5416E-02  0.5416E-02  0.2042E+00  0.2042E+00
     -3.789  0.5653E-02  0.5653E-02  0.2049E+00  0.2049E+00
     -3.664  0.6101E-02  0.6101E-02  0.2057E+00  0.2057E+00
     -3.539  0.2492E-02  0.2492E-02  0.2060E+00  0.2060E+00
     -3.415  0.1810E-05  0.1810E-05  0.2060E+00  0.2060E+00
     -3.290  0.1035E-02  0.1035E-02  0.2061E+00  0.2061E+00
     -3.165  0.6768E-02  0.6768E-02  0.2070E+00  0.2070E+00
     -3.040  0.2756E-02  0.2756E-02  0.2073E+00  0.2073E+00
     -2.916  0.1468E-02  0.1468E-02  0.2075E+00  0.2075E+00
     -2.791  0.2646E-05  0.2646E-05  0.2075E+00  0.2075E+00
     -2.666  0.4345E-03  0.4345E-03  0.2076E+00  0.2076E+00
     -2.542  0.3527E-02  0.3527E-02  0.2080E+00  0.2080E+00
     -2.417  0.4842E-04  0.4842E-04  0.2080E+00  0.2080E+00
     -2.292  0.3122E-05  0.3122E-05  0.2080E+00  0.2080E+00
     -2.168  0.2556E-02  0.2556E-02  0.2083E+00  0.2083E+00
     -2.043  0.1450E-02  0.1450E-02  0.2085E+00  0.2085E+00
     -1.918  0.2722E-03  0.2722E-03  0.2085E+00  0.2085E+00
     -1.794  0.1728E-02  0.1728E-02  0.2087E+00  0.2087E+00
     -1.669  0.4198E-02  0.4198E-02  0.2093E+00  0.2093E+00
     -1.544  0.3918E-02  0.3918E-02  0.2098E+00  0.2098E+00
     -1.419  0.1886E-02  0.1886E-02  0.2100E+00  0.2100E+00
     -1.295  0.2786E-03  0.2786E-03  0.2100E+00  0.2100E+00
     -1.170  0.4855E-02  0.4855E-02  0.2106E+00  0.2106E+00
     -1.045  0.4875E-02  0.4875E-02  0.2112E+00  0.2112E+00
     -0.921  0.1855E-01  0.1855E-01  0.2136E+00  0.2136E+00
     -0.796  0.9496E-02  0.9496E-02  0.2147E+00  0.2147E+00
     -0.671  0.3467E-02  0.3467E-02  0.2152E+00  0.2152E+00
     -0.547  0.1343E-01  0.1343E-01  0.2168E+00  0.2168E+00
     -0.422  0.1016E-01  0.1016E-01  0.2181E+00  0.2181E+00
     -0.297  0.4560E-02  0.4560E-02  0.2187E+00  0.2187E+00
     -0.172  0.3074E-02  0.3074E-02  0.2191E+00  0.2191E+00
     -0.048  0.8030E-02  0.8030E-02  0.2201E+00  0.2201E+00
      0.077  0.1215E-01  0.1215E-01  0.2216E+00  0.2216E+00
      0.202  0.1507E-01  0.1507E-01  0.2235E+00  0.2235E+00
      0.326  0.4793E-02  0.4793E-02  0.2241E+00  0.2241E+00
      0.451  0.4116E-02  0.4116E-02  0.2246E+00  0.2246E+00
      0.576  0.4464E-02  0.4464E-02  0.2251E+00  0.2251E+00
      0.700  0.6618E-02  0.6618E-02  0.2260E+00  0.2260E+00
      0.825  0.6722E-02  0.6722E-02  0.2268E+00  0.2268E+00
      0.950  0.7354E-02  0.7354E-02  0.2277E+00  0.2277E+00
      1.075  0.9684E-02  0.9683E-02  0.2289E+00  0.2289E+00
      1.199  0.7602E-02  0.7602E-02  0.2299E+00  0.2299E+00
      1.324  0.7624E-02  0.7624E-02  0.2308E+00  0.2308E+00
      1.449  0.2108E-01  0.2108E-01  0.2334E+00  0.2334E+00
      1.573  0.1772E-01  0.1772E-01  0.2357E+00  0.2357E+00
      1.698  0.7928E-02  0.7928E-02  0.2366E+00  0.2366E+00
      1.823  0.7490E-02  0.7489E-02  0.2376E+00  0.2376E+00
      1.947  0.1202E-01  0.1202E-01  0.2391E+00  0.2391E+00
      2.072  0.2518E-01  0.2518E-01  0.2422E+00  0.2422E+00
      2.197  0.1248E-01  0.1248E-01  0.2438E+00  0.2438E+00
      2.321  0.1396E-01  0.1396E-01  0.2455E+00  0.2455E+00
      2.446  0.2115E-01  0.2115E-01  0.2482E+00  0.2482E+00
      2.571  0.2247E-01  0.2247E-01  0.2510E+00  0.2510E+00
      2.696  0.7831E-02  0.7832E-02  0.2519E+00  0.2519E+00
      2.820  0.2132E-01  0.2132E-01  0.2546E+00  0.2546E+00
      2.945  0.3112E-01  0.3112E-01  0.2585E+00  0.2585E+00
      3.070  0.4572E-01  0.4572E-01  0.2642E+00  0.2642E+00
      3.194  0.1356E-01  0.1356E-01  0.2659E+00  0.2659E+00
      3.319  0.1556E-01  0.1556E-01  0.2678E+00  0.2678E+00
      3.444  0.1724E-01  0.1724E-01  0.2700E+00  0.2699E+00
      3.568  0.2220E-01  0.2220E-01  0.2727E+00  0.2727E+00
      3.693  0.2131E-01  0.2131E-01  0.2754E+00  0.2754E+00
      3.818  0.2047E-01  0.2047E-01  0.2779E+00  0.2779E+00
      3.943  0.3113E-01  0.3113E-01  0.2818E+00  0.2818E+00
      4.067  0.2727E-01  0.2727E-01  0.2852E+00  0.2852E+00
      4.192  0.1830E-01  0.1830E-01  0.2875E+00  0.2875E+00
      4.317  0.1429E-01  0.1429E-01  0.2893E+00  0.2893E+00
      4.441  0.5794E-02  0.5794E-02  0.2900E+00  0.2900E+00
      4.566  0.2942E-04  0.2943E-04  0.2900E+00  0.2900E+00
      4.691  0.8002E-11  0.8011E-11  0.2900E+00  0.2900E+00
      4.815  0.0000E+00  0.0000E+00  0.2900E+00  0.2900E+00
      4.940  0.0000E+00  0.0000E+00  0.2900E+00  0.2900E+00
      5.065  0.0000E+00  0.0000E+00  0.2900E+00  0.2900E+00
      5.190  0.0000E+00  0.0000E+00  0.2900E+00  0.2900E+00
      5.314  0.0000E+00  0.0000E+00  0.2900E+00  0.2900E+00
      5.439  0.0000E+00  0.0000E+00  0.2900E+00  0.2900E+00
      5.564  0.0000E+00  0.0000E+00  0.2900E+00  0.2900E+00
      5.688  0.0000E+00  0.0000E+00  0.2900E+00  0.2900E+00
      5.813  0.0000E+00  0.0000E+00  0.2900E+00  0.2900E+00
      5.938  0.0000E+00  0.0000E+00  0.2900E+00  0.2900E+00
      6.062  0.0000E+00  0.0000E+00  0.2900E+00  0.2900E+00
