       N       E                     dE             d eps       ncg     rms          rms(c)
DAV:   1     0.386504686017E+04    0.38650E+04   -0.16162E+05  5040   0.110E+03
DAV:   2    -0.177896462108E+03   -0.40429E+04   -0.38212E+04  6880   0.276E+02
DAV:   3    -0.871680034477E+03   -0.69378E+03   -0.69042E+03  5710   0.119E+02
DAV:   4    -0.893801616513E+03   -0.22122E+02   -0.22014E+02  5770   0.263E+01
DAV:   5    -0.894456945446E+03   -0.65533E+00   -0.65432E+00  6660   0.384E+00    0.529E+01
DAV:   6    -0.876234592890E+03    0.18222E+02   -0.21322E+01  5720   0.108E+01    0.341E+01
DAV:   7    -0.855562221483E+03    0.20672E+02   -0.38130E+01  5490   0.102E+01    0.208E+01
DAV:   8    -0.850695103083E+03    0.48671E+01   -0.19558E+01  5640   0.681E+00    0.913E+00
DAV:   9    -0.850913852760E+03   -0.21875E+00   -0.12371E+00  5600   0.214E+00    0.426E+00
DAV:  10    -0.850705233156E+03    0.20862E+00   -0.67076E-01  5390   0.141E+00    0.123E+00
DAV:  11    -0.850690025265E+03    0.15208E-01   -0.11055E-01  5310   0.653E-01    0.305E-01
DAV:  12    -0.850689829495E+03    0.19577E-03   -0.14227E-02  5600   0.249E-01    0.134E-01
DAV:  13    -0.850690024445E+03   -0.19495E-03   -0.18120E-03  5540   0.878E-02    0.101E-01
DAV:  14    -0.850690056846E+03   -0.32401E-04   -0.34369E-04  5490   0.376E-02    0.627E-02
DAV:  15    -0.850690120143E+03   -0.63297E-04   -0.22403E-04  5210   0.319E-02    0.253E-02
DAV:  16    -0.850690116678E+03    0.34651E-05   -0.51898E-05  5450   0.187E-02    0.122E-02
DAV:  17    -0.850690117611E+03   -0.93299E-06   -0.11873E-05  5570   0.702E-03    0.783E-03
DAV:  18    -0.850690116734E+03    0.87682E-06   -0.48065E-06  5030   0.761E-03
   1 F= -.85866197E+03 E0= -.85866197E+03  d E =-.858662E+03  mag=     0.0000
       N       E                     dE             d eps       ncg     rms          rms(c)
DAV:   1    -0.850690489514E+03   -0.37190E-03   -0.21142E-02  4920   0.179E-01    0.259E-02
DAV:   2    -0.850690515359E+03   -0.25845E-04   -0.38163E-04  4900   0.223E-02    0.162E-02
DAV:   3    -0.850690514161E+03    0.11971E-05   -0.53119E-06  4460   0.368E-03    0.123E-02
DAV:   4    -0.850690517759E+03   -0.35975E-05   -0.66691E-06  4110   0.432E-03    0.420E-03
DAV:   5    -0.850690519286E+03   -0.15269E-05   -0.23812E-06  3610   0.196E-03    0.247E-03
DAV:   6    -0.850690519366E+03   -0.79737E-07   -0.33041E-07  3380   0.114E-03
   2 F= -.85866233E+03 E0= -.85866233E+03  d E =-.357229E-03  mag=    -0.0000
       N       E                     dE             d eps       ncg     rms          rms(c)
DAV:   1    -0.850691147701E+03   -0.62842E-03   -0.79336E-02  4880   0.336E-01    0.486E-02
DAV:   2    -0.850691250121E+03   -0.10242E-03   -0.14044E-03  4810   0.402E-02    0.293E-02
DAV:   3    -0.850691247964E+03    0.21563E-05   -0.15567E-05  5100   0.562E-03    0.227E-02
DAV:   4    -0.850691260817E+03   -0.12853E-04   -0.25998E-05  4480   0.780E-03    0.580E-03
DAV:   5    -0.850691264096E+03   -0.32788E-05   -0.75908E-06  3860   0.299E-03    0.412E-03
DAV:   6    -0.850691264263E+03   -0.16735E-06   -0.77437E-07  3530   0.187E-03
   3 F= -.85866298E+03 E0= -.85866298E+03  d E =-.651702E-03  mag=     0.0000
       N       E                     dE             d eps       ncg     rms          rms(c)
DAV:   1    -0.850692088766E+03   -0.82467E-03   -0.16750E-01  4920   0.487E-01    0.693E-02
DAV:   2    -0.850692296270E+03   -0.20750E-03   -0.29547E-03  4820   0.573E-02    0.417E-02
DAV:   3    -0.850692296205E+03    0.65200E-07   -0.28330E-05  5340   0.748E-03    0.327E-02
DAV:   4    -0.850692335082E+03   -0.38877E-04   -0.67980E-05  4600   0.123E-02    0.656E-03
DAV:   5    -0.850692338862E+03   -0.37797E-05   -0.15820E-05  4620   0.413E-03    0.631E-03
DAV:   6    -0.850692338922E+03   -0.60209E-07   -0.16799E-06  3760   0.277E-03
   4 F= -.85866391E+03 E0= -.85866391E+03  d E =-.933782E-03  mag=     0.0000
       N       E                     dE             d eps       ncg     rms          rms(c)
DAV:   1    -0.850693254284E+03   -0.91542E-03   -0.28208E-01  4860   0.642E-01    0.897E-02
DAV:   2    -0.850693608144E+03   -0.35386E-03   -0.50180E-03  4820   0.760E-02    0.547E-02
DAV:   3    -0.850693600510E+03    0.76336E-05   -0.47658E-05  5660   0.102E-02    0.430E-02
DAV:   4    -0.850693674990E+03   -0.74480E-04   -0.12356E-04  4640   0.170E-02    0.920E-03
DAV:   5    -0.850693680924E+03   -0.59334E-05   -0.28077E-05  5240   0.571E-03    0.924E-03
DAV:   6    -0.850693680808E+03    0.11549E-06   -0.46433E-06  3780   0.411E-03
   5 F= -.85866507E+03 E0= -.85866507E+03  d E =-.115746E-02  mag=    -0.0000
       N       E                     dE             d eps       ncg     rms          rms(c)
DAV:   1    -0.850694612154E+03   -0.93123E-03   -0.42553E-01  4800   0.800E-01    0.111E-01
DAV:   2    -0.850695165277E+03   -0.55312E-03   -0.76126E-03  4840   0.955E-02    0.674E-02
DAV:   3    -0.850695149373E+03    0.15904E-04   -0.72401E-05  5640   0.129E-02    0.530E-02
DAV:   4    -0.850695253727E+03   -0.10435E-03   -0.17925E-04  4780   0.206E-02    0.114E-02
DAV:   5    -0.850695262886E+03   -0.91594E-05   -0.40986E-05  5260   0.697E-03    0.111E-02
DAV:   6    -0.850695262666E+03    0.22005E-06   -0.73614E-06  4080   0.519E-03
   6 F= -.85866642E+03 E0= -.85866642E+03  d E =-.135232E-02  mag=     0.0000
       N       E                     dE             d eps       ncg     rms          rms(c)
DAV:   1    -0.850696127332E+03   -0.86445E-03   -0.59916E-01  4800   0.975E-01    0.132E-01
DAV:   2    -0.850696939328E+03   -0.81200E-03   -0.10833E-02  4850   0.118E-01    0.802E-02
DAV:   3    -0.850696913675E+03    0.25653E-04   -0.10450E-04  5640   0.157E-02    0.629E-02
DAV:   4    -0.850697040619E+03   -0.12694E-03   -0.23472E-04  4870   0.239E-02    0.133E-02
DAV:   5    -0.850697053782E+03   -0.13163E-04   -0.56385E-05  5240   0.827E-03    0.123E-02
DAV:   6    -0.850697053319E+03    0.46262E-06   -0.82467E-06  4250   0.581E-03
   7 F= -.85866794E+03 E0= -.85866794E+03  d E =-.151916E-02  mag=     0.0000
       N       E                     dE             d eps       ncg     rms          rms(c)
DAV:   1    -0.850697685984E+03   -0.63220E-03   -0.97736E-01  4800   0.128E+00    0.170E-01
DAV:   2    -0.850699070118E+03   -0.13841E-02   -0.17852E-02  4840   0.156E-01    0.102E-01
DAV:   3    -0.850699022218E+03    0.47900E-04   -0.17408E-04  5640   0.204E-02    0.802E-02
DAV:   4    -0.850699186583E+03   -0.16436E-03   -0.36727E-04  5120   0.304E-02    0.172E-02
DAV:   5    -0.850699210941E+03   -0.24358E-04   -0.91379E-05  5300   0.106E-02    0.152E-02
DAV:   6    -0.850699210199E+03    0.74154E-06   -0.12506E-05  4400   0.723E-03    0.734E-03
DAV:   7    -0.850699210943E+03   -0.74339E-06   -0.45128E-06  4200   0.361E-03
   8 F= -.85866975E+03 E0= -.85866975E+03  d E =-.180799E-02  mag=     0.0000
       N       E                     dE             d eps       ncg     rms          rms(c)
DAV:   1    -0.850699251681E+03   -0.41482E-04   -0.15135E+00  4800   0.165E+00    0.211E-01
DAV:   2    -0.850701482046E+03   -0.22304E-02   -0.27901E-02  4860   0.202E-01    0.129E-01
DAV:   3    -0.850701393511E+03    0.88536E-04   -0.27482E-04  5600   0.266E-02    0.101E-01
DAV:   4    -0.850701582874E+03   -0.18936E-03   -0.58686E-04  5420   0.390E-02    0.223E-02
DAV:   5    -0.850701622192E+03   -0.39319E-04   -0.14601E-04  5360   0.136E-02    0.198E-02
DAV:   6    -0.850701620239E+03    0.19534E-05   -0.23828E-05  4420   0.913E-03    0.923E-03
DAV:   7    -0.850701621463E+03   -0.12237E-05   -0.68852E-06  4620   0.429E-03    0.621E-03
DAV:   8    -0.850701620724E+03    0.73891E-06   -0.45347E-06  4260   0.438E-03
   9 F= -.85867172E+03 E0= -.85867172E+03  d E =-.196963E-02  mag=    -0.0000
       N       E                     dE             d eps       ncg     rms          rms(c)
DAV:   1    -0.850700669129E+03    0.95233E-03   -0.22518E+00  4800   0.208E+00    0.257E-01
DAV:   2    -0.850704125823E+03   -0.34567E-02   -0.41964E-02  4900   0.257E-01    0.158E-01
DAV:   3    -0.850703984366E+03    0.14146E-03   -0.40994E-04  5600   0.335E-02    0.124E-01
DAV:   4    -0.850704198388E+03   -0.21402E-03   -0.94263E-04  5420   0.507E-02    0.281E-02
DAV:   5    -0.850704248931E+03   -0.50543E-04   -0.22136E-04  5340   0.176E-02    0.264E-02
DAV:   6    -0.850704246438E+03    0.24926E-05   -0.48691E-05  4600   0.125E-02    0.115E-02
DAV:   7    -0.850704248667E+03   -0.22286E-05   -0.11694E-05  4980   0.568E-03    0.863E-03
DAV:   8    -0.850704247273E+03    0.13937E-05   -0.58767E-06  4520   0.499E-03    0.289E-03
DAV:   9    -0.850704247675E+03   -0.40136E-06   -0.18923E-06  3480   0.223E-03
  10 F= -.85867382E+03 E0= -.85867382E+03  d E =-.209901E-02  mag=    -0.0000
       N       E                     dE             d eps       ncg     rms          rms(c)
DAV:   1    -0.850701687239E+03    0.25600E-02   -0.32373E+00  4800   0.255E+00    0.314E-01
DAV:   2    -0.850706840670E+03   -0.51534E-02   -0.61615E-02  4920   0.319E-01    0.191E-01
DAV:   3    -0.850706635540E+03    0.20513E-03   -0.61642E-04  5640   0.410E-02    0.149E-01
DAV:   4    -0.850706852405E+03   -0.21686E-03   -0.12888E-03  5440   0.603E-02    0.339E-02
DAV:   5    -0.850706929552E+03   -0.77147E-04   -0.31244E-04  5340   0.211E-02    0.302E-02
DAV:   6    -0.850706930752E+03   -0.12002E-05   -0.63689E-05  4500   0.146E-02    0.136E-02
DAV:   7    -0.850706933810E+03   -0.30579E-05   -0.16152E-05  5340   0.671E-03    0.970E-03
DAV:   8    -0.850706932043E+03    0.17674E-05   -0.96201E-06  4880   0.623E-03    0.332E-03
DAV:   9    -0.850706932589E+03   -0.54645E-06   -0.15474E-06  3480   0.204E-03
  11 F= -.85867588E+03 E0= -.85867588E+03  d E =-.206294E-02  mag=    -0.0000
       N       E                     dE             d eps       ncg     rms          rms(c)
DAV:   1    -0.850702780752E+03    0.41513E-02   -0.42426E+00  4780   0.292E+00    0.363E-01
DAV:   2    -0.850709695889E+03   -0.69151E-02   -0.81733E-02  4900   0.370E-01    0.223E-01
DAV:   3    -0.850709408395E+03    0.28749E-03   -0.83195E-04  5640   0.489E-02    0.174E-01
DAV:   4    -0.850709635663E+03   -0.22727E-03   -0.19268E-03  5340   0.742E-02    0.417E-02
DAV:   5    -0.850709719020E+03   -0.83357E-04   -0.44077E-04  5360   0.259E-02    0.395E-02
DAV:   6    -0.850709712351E+03    0.66689E-05   -0.12127E-04  4620   0.189E-02    0.165E-02
DAV:   7    -0.850709720676E+03   -0.83252E-05   -0.27112E-05  5120   0.868E-03    0.131E-02
DAV:   8    -0.850709717843E+03    0.28334E-05   -0.11878E-05  4960   0.693E-03    0.465E-03
DAV:   9    -0.850709718709E+03   -0.86575E-06   -0.46608E-06  3680   0.352E-03
  12 F= -.85867789E+03 E0= -.85867789E+03  d E =-.200643E-02  mag=    -0.0000
       N       E                     dE             d eps       ncg     rms          rms(c)
DAV:   1    -0.850703252977E+03    0.64649E-02   -0.52314E+00  4780   0.318E+00    0.420E-01
DAV:   2    -0.850712039703E+03   -0.87867E-02   -0.10398E-01  4920   0.407E-01    0.257E-01
DAV:   3    -0.850711661864E+03    0.37784E-03   -0.11717E-03  5680   0.557E-02    0.200E-01
DAV:   4    -0.850711827116E+03   -0.16525E-03   -0.22748E-03  5260   0.809E-02    0.502E-02
DAV:   5    -0.850711951179E+03   -0.12406E-03   -0.56625E-04  5300   0.294E-02    0.431E-02
DAV:   6    -0.850711947778E+03    0.34006E-05   -0.16170E-04  4980   0.218E-02    0.182E-02
DAV:   7    -0.850711954749E+03   -0.69703E-05   -0.28097E-05  5240   0.865E-03    0.138E-02
DAV:   8    -0.850711951322E+03    0.34268E-05   -0.15302E-05  5180   0.751E-03    0.563E-03
DAV:   9    -0.850711952600E+03   -0.12781E-05   -0.35359E-06  3540   0.301E-03    0.363E-03
DAV:  10    -0.850711952418E+03    0.18219E-06   -0.42902E-07  3260   0.154E-03
  13 F= -.85867931E+03 E0= -.85867931E+03  d E =-.142090E-02  mag=     0.0000
       N       E                     dE             d eps       ncg     rms          rms(c)
DAV:   1    -0.850713075820E+03   -0.11232E-02   -0.51218E-02  4860   0.397E-01    0.484E-02
DAV:   2    -0.850713179121E+03   -0.10330E-03   -0.13785E-03  5580   0.589E-02    0.445E-02
DAV:   3    -0.850713163056E+03    0.16065E-04   -0.32861E-05  6060   0.108E-02    0.370E-02
DAV:   4    -0.850713143079E+03    0.19977E-04   -0.51385E-05  5070   0.134E-02    0.153E-02
DAV:   5    -0.850713144123E+03   -0.10439E-05   -0.20415E-05  5210   0.697E-03    0.672E-03
DAV:   6    -0.850713144231E+03   -0.10782E-06   -0.29327E-06  3840   0.371E-03
  14 F= -.85868047E+03 E0= -.85868047E+03  d E =-.115702E-02  mag=    -0.0000
       N       E                     dE             d eps       ncg     rms          rms(c)
DAV:   1    -0.850712674955E+03    0.46917E-03   -0.74469E-02  4800   0.498E-01    0.574E-02
DAV:   2    -0.850712827253E+03   -0.15230E-03   -0.19985E-03  5560   0.742E-02    0.507E-02
DAV:   3    -0.850712808035E+03    0.19217E-04   -0.45529E-05  5920   0.128E-02    0.416E-02
DAV:   4    -0.850712790038E+03    0.17997E-04   -0.68592E-05  5020   0.157E-02    0.167E-02
DAV:   5    -0.850712792802E+03   -0.27638E-05   -0.23572E-05  5180   0.765E-03    0.802E-03
DAV:   6    -0.850712793055E+03   -0.25280E-06   -0.42369E-06  4120   0.416E-03
  15 F= -.85868006E+03 E0= -.85868006E+03  d E =0.411187E-03  mag=     0.0000
       N       E                     dE             d eps       ncg     rms          rms(c)
DAV:   1    -0.850713075437E+03   -0.28263E-03   -0.21231E-03  4820   0.798E-02    0.101E-02
DAV:   2    -0.850713079344E+03   -0.39070E-05   -0.57298E-05  5520   0.120E-02    0.947E-03
DAV:   3    -0.850713078542E+03    0.80184E-06   -0.12242E-06  3720   0.222E-03
  16 F= -.85868034E+03 E0= -.85868034E+03  d E =-.284870E-03  mag=     0.0000
       N       E                     dE             d eps       ncg     rms          rms(c)
DAV:   1    -0.850713427599E+03   -0.34826E-03   -0.67987E-03  4840   0.144E-01    0.196E-02
DAV:   2    -0.850713439461E+03   -0.11862E-04   -0.17164E-04  5680   0.208E-02    0.176E-02
DAV:   3    -0.850713436965E+03    0.24960E-05   -0.40582E-06  4560   0.391E-03    0.143E-02
DAV:   4    -0.850713434764E+03    0.22005E-05   -0.93575E-06  4740   0.566E-03    0.499E-03
DAV:   5    -0.850713435088E+03   -0.32345E-06   -0.24722E-06  3780   0.237E-03
  17 F= -.85868069E+03 E0= -.85868069E+03  d E =-.354370E-03  mag=     0.0000
       N       E                     dE             d eps       ncg     rms          rms(c)
DAV:   1    -0.850713598303E+03   -0.16354E-03   -0.10968E-02  4820   0.185E-01    0.224E-02
DAV:   2    -0.850713621496E+03   -0.23193E-04   -0.29886E-04  5560   0.276E-02    0.196E-02
DAV:   3    -0.850713618552E+03    0.29447E-05   -0.64251E-06  5180   0.475E-03    0.161E-02
DAV:   4    -0.850713615706E+03    0.28456E-05   -0.10389E-05  4820   0.604E-03    0.627E-03
DAV:   5    -0.850713616166E+03   -0.45944E-06   -0.34996E-06  4170   0.288E-03
  18 F= -.85868087E+03 E0= -.85868087E+03  d E =-.175145E-03  mag=    -0.0000
       N       E                     dE             d eps       ncg     rms          rms(c)
DAV:   1    -0.850713579068E+03    0.36638E-04   -0.10492E-02  4740   0.186E-01    0.217E-02
DAV:   2    -0.850713600712E+03   -0.21644E-04   -0.28064E-04  5420   0.275E-02    0.176E-02
DAV:   3    -0.850713598816E+03    0.18960E-05   -0.55223E-06  5120   0.445E-03    0.142E-02
DAV:   4    -0.850713597806E+03    0.10105E-05   -0.83445E-06  4620   0.557E-03    0.533E-03
DAV:   5    -0.850713598350E+03   -0.54370E-06   -0.25516E-06  3880   0.254E-03
  19 F= -.85868084E+03 E0= -.85868084E+03  d E =0.309855E-04  mag=    -0.0000
       N       E                     dE             d eps       ncg     rms          rms(c)
DAV:   1    -0.850713620681E+03   -0.22875E-04   -0.36135E-05  4760   0.107E-02    0.218E-03
DAV:   2    -0.850713620716E+03   -0.35499E-07   -0.94004E-07  2900   0.167E-03
  20 F= -.85868086E+03 E0= -.85868086E+03  d E =-.209894E-04  mag=     0.0000
       N       E                     dE             d eps       ncg     rms          rms(c)
DAV:   1    -0.850713661877E+03   -0.41196E-04   -0.14078E-04  4720   0.210E-02    0.342E-03
DAV:   2    -0.850713662047E+03   -0.17058E-06   -0.34883E-06  3780   0.312E-03
  21 F= -.85868090E+03 E0= -.85868090E+03  d E =-.385845E-04  mag=     0.0000
       N       E                     dE             d eps       ncg     rms          rms(c)
DAV:   1    -0.850713716224E+03   -0.54347E-04   -0.29741E-04  4740   0.306E-02    0.544E-03
DAV:   2    -0.850713716519E+03   -0.29537E-06   -0.75420E-06  5200   0.454E-03
  22 F= -.85868095E+03 E0= -.85868095E+03  d E =-.503752E-04  mag=     0.0000
       N       E                     dE             d eps       ncg     rms          rms(c)
DAV:   1    -0.850713776340E+03   -0.60116E-04   -0.48284E-04  4760   0.391E-02    0.750E-03
DAV:   2    -0.850713776696E+03   -0.35562E-06   -0.11704E-05  5540   0.566E-03    0.658E-03
DAV:   3    -0.850713776414E+03    0.28182E-06   -0.48761E-07  2960   0.141E-03
  23 F= -.85868100E+03 E0= -.85868100E+03  d E =-.544263E-04  mag=     0.0000
       N       E                     dE             d eps       ncg     rms          rms(c)
DAV:   1    -0.850713834569E+03   -0.57873E-04   -0.64894E-04  4740   0.456E-02    0.596E-03
DAV:   2    -0.850713835600E+03   -0.10309E-05   -0.14915E-05  5480   0.637E-03    0.507E-03
DAV:   3    -0.850713835514E+03    0.86147E-07   -0.24878E-07  2680   0.106E-03
  24 F= -.85868106E+03 E0= -.85868106E+03  d E =-.523368E-04  mag=     0.0000
       N       E                     dE             d eps       ncg     rms          rms(c)
DAV:   1    -0.850713888090E+03   -0.52490E-04   -0.82342E-04  4740   0.516E-02    0.633E-03
DAV:   2    -0.850713889475E+03   -0.13848E-05   -0.19422E-05  5480   0.730E-03    0.523E-03
DAV:   3    -0.850713889376E+03    0.99091E-07   -0.30001E-07  2880   0.115E-03
  25 F= -.85868110E+03 E0= -.85868110E+03  d E =-.457953E-04  mag=    -0.0000
       N       E                     dE             d eps       ncg     rms          rms(c)
DAV:   1    -0.850713940995E+03   -0.51520E-04   -0.11766E-03  4700   0.620E-02    0.748E-03
DAV:   2    -0.850713942942E+03   -0.19470E-05   -0.27374E-05  5380   0.871E-03    0.592E-03
DAV:   3    -0.850713942825E+03    0.11735E-06   -0.39666E-07  3160   0.132E-03
  26 F= -.85868114E+03 E0= -.85868114E+03  d E =-.432274E-04  mag=    -0.0000
       N       E                     dE             d eps       ncg     rms          rms(c)
DAV:   1    -0.850713997001E+03   -0.54059E-04   -0.15914E-03  4720   0.724E-02    0.853E-03
DAV:   2    -0.850713999548E+03   -0.25477E-05   -0.35863E-05  5200   0.100E-02    0.630E-03
DAV:   3    -0.850713999485E+03    0.63206E-07   -0.45760E-07  3380   0.142E-03
  27 F= -.85868119E+03 E0= -.85868119E+03  d E =-.440663E-04  mag=     0.0000
       N       E                     dE             d eps       ncg     rms          rms(c)
DAV:   1    -0.850714066826E+03   -0.67277E-04   -0.21166E-03  4720   0.833E-02    0.964E-03
DAV:   2    -0.850714070070E+03   -0.32446E-05   -0.46225E-05  4740   0.114E-02    0.653E-03
DAV:   3    -0.850714070138E+03   -0.67535E-07   -0.49421E-07  3660   0.147E-03
  28 F= -.85868124E+03 E0= -.85868124E+03  d E =-.555307E-04  mag=    -0.0000
       N       E                     dE             d eps       ncg     rms          rms(c)
DAV:   1    -0.850714165718E+03   -0.95647E-04   -0.29185E-03  4720   0.974E-02    0.111E-02
DAV:   2    -0.850714170036E+03   -0.43183E-05   -0.62559E-05  4640   0.132E-02    0.705E-03
DAV:   3    -0.850714170257E+03   -0.22091E-06   -0.58491E-07  3620   0.158E-03
  29 F= -.85868133E+03 E0= -.85868133E+03  d E =-.822268E-04  mag=    -0.0000
       N       E                     dE             d eps       ncg     rms          rms(c)
DAV:   1    -0.850714304491E+03   -0.13445E-03   -0.42904E-03  4720   0.118E-01    0.135E-02
DAV:   2    -0.850714310858E+03   -0.63673E-05   -0.92587E-05  4640   0.160E-02    0.837E-03
DAV:   3    -0.850714311179E+03   -0.32123E-06   -0.88446E-07  3900   0.191E-03
  30 F= -.85868145E+03 E0= -.85868145E+03  d E =-.119759E-03  mag=     0.0000
       N       E                     dE             d eps       ncg     rms          rms(c)
DAV:   1    -0.850714480852E+03   -0.16999E-03   -0.65970E-03  4720   0.145E-01    0.168E-02
DAV:   2    -0.850714490848E+03   -0.99963E-05   -0.14468E-04  4640   0.199E-02    0.107E-02
DAV:   3    -0.850714491186E+03   -0.33780E-06   -0.15424E-06  4260   0.245E-03
  31 F= -.85868160E+03 E0= -.85868160E+03  d E =-.154548E-03  mag=     0.0000
       N       E                     dE             d eps       ncg     rms          rms(c)
DAV:   1    -0.850714680007E+03   -0.18916E-03   -0.10195E-02  4720   0.179E-01    0.212E-02
DAV:   2    -0.850714695276E+03   -0.15269E-04   -0.22419E-04  4640   0.245E-02    0.137E-02
DAV:   3    -0.850714695905E+03   -0.62867E-06   -0.25405E-06  4420   0.310E-03
  32 F= -.85868177E+03 E0= -.85868177E+03  d E =-.173348E-03  mag=     0.0000
       N       E                     dE             d eps       ncg     rms          rms(c)
DAV:   1    -0.850714899648E+03   -0.20437E-03   -0.15213E-02  4720   0.217E-01    0.261E-02
DAV:   2    -0.850714922550E+03   -0.22902E-04   -0.32938E-04  4640   0.295E-02    0.167E-02
DAV:   3    -0.850714923104E+03   -0.55337E-06   -0.37231E-06  4760   0.369E-03
  33 F= -.85868196E+03 E0= -.85868196E+03  d E =-.187694E-03  mag=    -0.0000
       N       E                     dE             d eps       ncg     rms          rms(c)
DAV:   1    -0.850715163866E+03   -0.24132E-03   -0.21683E-02  4720   0.257E-01    0.311E-02
DAV:   2    -0.850715195982E+03   -0.32116E-04   -0.46043E-04  4640   0.347E-02    0.193E-02
DAV:   3    -0.850715197372E+03   -0.13908E-05   -0.48753E-06  4780   0.423E-03    0.147E-02
DAV:   4    -0.850715205710E+03   -0.83375E-05   -0.62635E-06  4160   0.507E-03    0.334E-03
DAV:   5    -0.850715206336E+03   -0.62635E-06   -0.15686E-06  3780   0.202E-03
  34 F= -.85868220E+03 E0= -.85868220E+03  d E =-.234135E-03  mag=     0.0000
       N       E                     dE             d eps       ncg     rms          rms(c)
DAV:   1    -0.850715498506E+03   -0.29280E-03   -0.31469E-02  4740   0.307E-01    0.355E-02
DAV:   2    -0.850715552418E+03   -0.53911E-04   -0.70479E-04  4640   0.425E-02    0.213E-02
DAV:   3    -0.850715552762E+03   -0.34420E-06   -0.70544E-06  5120   0.509E-03
  35 F= -.85868248E+03 E0= -.85868248E+03  d E =-.286272E-03  mag=     0.0000
       N       E                     dE             d eps       ncg     rms          rms(c)
DAV:   1    -0.850715895643E+03   -0.34323E-03   -0.44993E-02  4720   0.363E-01    0.446E-02
DAV:   2    -0.850715963195E+03   -0.67552E-04   -0.95339E-04  4640   0.490E-02    0.282E-02
DAV:   3    -0.850715966008E+03   -0.28125E-05   -0.11068E-05  5440   0.619E-03    0.215E-02
DAV:   4    -0.850715980926E+03   -0.14918E-04   -0.14520E-05  4480   0.727E-03    0.501E-03
DAV:   5    -0.850715982332E+03   -0.14060E-05   -0.37479E-06  4340   0.294E-03    0.361E-03
DAV:   6    -0.850715982238E+03    0.93831E-07   -0.86937E-07  3540   0.174E-03
  36 F= -.85868284E+03 E0= -.85868284E+03  d E =-.356574E-03  mag=     0.0000
       N       E                     dE             d eps       ncg     rms          rms(c)
DAV:   1    -0.850716316256E+03   -0.33392E-03   -0.64903E-02  4740   0.432E-01    0.509E-02
DAV:   2    -0.850716426858E+03   -0.11060E-03   -0.14413E-03  4640   0.595E-02    0.313E-02
DAV:   3    -0.850716427615E+03   -0.75673E-06   -0.14945E-05  5560   0.727E-03    0.242E-02
DAV:   4    -0.850716444205E+03   -0.16590E-04   -0.28368E-05  4500   0.987E-03    0.584E-03
DAV:   5    -0.850716445352E+03   -0.11466E-05   -0.59379E-06  4680   0.374E-03    0.504E-03
DAV:   6    -0.850716445245E+03    0.10623E-06   -0.23306E-06  3760   0.277E-03
  37 F= -.85868321E+03 E0= -.85868321E+03  d E =-.372415E-03  mag=    -0.0000
       N       E                     dE             d eps       ncg     rms          rms(c)
DAV:   1    -0.850716845556E+03   -0.40020E-03   -0.87133E-02  4780   0.494E-01    0.596E-02
DAV:   2    -0.850716990441E+03   -0.14489E-03   -0.19083E-03  4640   0.676E-02    0.360E-02
DAV:   3    -0.850716993402E+03   -0.29607E-05   -0.18952E-05  5500   0.817E-03    0.277E-02
DAV:   4    -0.850717017352E+03   -0.23950E-04   -0.37061E-05  4520   0.113E-02    0.637E-03
DAV:   5    -0.850717018382E+03   -0.10296E-05   -0.72713E-06  5040   0.416E-03    0.569E-03
DAV:   6    -0.850717018215E+03    0.16691E-06   -0.32329E-06  3840   0.327E-03
  38 F= -.85868368E+03 E0= -.85868368E+03  d E =-.464394E-03  mag=    -0.0000
       N       E                     dE             d eps       ncg     rms          rms(c)
DAV:   1    -0.850717464361E+03   -0.44598E-03   -0.12206E-01  4780   0.577E-01    0.715E-02
DAV:   2    -0.850717666128E+03   -0.20177E-03   -0.26878E-03  4720   0.790E-02    0.434E-02
DAV:   3    -0.850717671149E+03   -0.50210E-05   -0.28254E-05  5420   0.981E-03    0.333E-02
DAV:   4    -0.850717703331E+03   -0.32182E-04   -0.50966E-05  4680   0.134E-02    0.767E-03
DAV:   5    -0.850717705361E+03   -0.20296E-05   -0.10565E-05  5220   0.500E-03    0.651E-03
DAV:   6    -0.850717705130E+03    0.23104E-06   -0.41541E-06  4060   0.391E-03
  39 F= -.85868423E+03 E0= -.85868423E+03  d E =-.555332E-03  mag=    -0.0000
       N       E                     dE             d eps       ncg     rms          rms(c)
DAV:   1    -0.850718163647E+03   -0.45829E-03   -0.17007E-01  4800   0.671E-01    0.852E-02
DAV:   2    -0.850718442227E+03   -0.27858E-03   -0.37107E-03  4740   0.915E-02    0.515E-02
DAV:   3    -0.850718446799E+03   -0.45725E-05   -0.39728E-05  5340   0.116E-02    0.394E-02
DAV:   4    -0.850718492175E+03   -0.45376E-04   -0.70389E-05  4780   0.155E-02    0.894E-03
DAV:   5    -0.850718495116E+03   -0.29406E-05   -0.14302E-05  5400   0.580E-03    0.742E-03
DAV:   6    -0.850718494889E+03    0.22697E-06   -0.54574E-06  4060   0.454E-03
  40 F= -.85868486E+03 E0= -.85868486E+03  d E =-.628229E-03  mag=     0.0000
       N       E                     dE             d eps       ncg     rms          rms(c)
DAV:   1    -0.850718990401E+03   -0.49529E-03   -0.23786E-01  4800   0.782E-01    0.101E-01
DAV:   2    -0.850719380883E+03   -0.39048E-03   -0.51685E-03  4820   0.106E-01    0.621E-02
DAV:   3    -0.850719382456E+03   -0.15725E-05   -0.57285E-05  5360   0.139E-02    0.475E-02
DAV:   4    -0.850719442437E+03   -0.59981E-04   -0.10792E-04  5040   0.188E-02    0.110E-02
DAV:   5    -0.850719446669E+03   -0.42321E-05   -0.21557E-05  5400   0.706E-03    0.909E-03
DAV:   6    -0.850719446281E+03    0.38862E-06   -0.81605E-06  4260   0.543E-03
  41 F= -.85868561E+03 E0= -.85868561E+03  d E =-.754934E-03  mag=     0.0000
       N       E                     dE             d eps       ncg     rms          rms(c)
DAV:   1    -0.850719888814E+03   -0.44214E-03   -0.33018E-01  4800   0.925E-01    0.119E-01
DAV:   2    -0.850720432736E+03   -0.54392E-03   -0.71363E-03  4840   0.126E-01    0.736E-02
DAV:   3    -0.850720432920E+03   -0.18388E-06   -0.78347E-05  5340   0.165E-02    0.563E-02
DAV:   4    -0.850720515132E+03   -0.82212E-04   -0.16116E-04  5360   0.232E-02    0.132E-02
DAV:   5    -0.850720519456E+03   -0.43244E-05   -0.30024E-05  5360   0.850E-03    0.113E-02
DAV:   6    -0.850720518810E+03    0.64653E-06   -0.13544E-05  4400   0.679E-03    0.458E-03
DAV:   7    -0.850720518975E+03   -0.16554E-06   -0.17409E-06  4040   0.230E-03
  42 F= -.85868645E+03 E0= -.85868645E+03  d E =-.837912E-03  mag=     0.0000
       N       E                     dE             d eps       ncg     rms          rms(c)
DAV:   1    -0.850720922824E+03   -0.40401E-03   -0.45566E-01  4800   0.110E+00    0.140E-01
DAV:   2    -0.850721686042E+03   -0.76322E-03   -0.98721E-03  4840   0.149E-01    0.867E-02
DAV:   3    -0.850721680385E+03    0.56565E-05   -0.11101E-04  5360   0.198E-02    0.661E-02
DAV:   4    -0.850721783691E+03   -0.10331E-03   -0.21737E-04  5440   0.273E-02    0.157E-02
DAV:   5    -0.850721789682E+03   -0.59909E-05   -0.40936E-05  5320   0.100E-02    0.130E-02
DAV:   6    -0.850721788980E+03    0.70167E-06   -0.18378E-05  4380   0.776E-03    0.523E-03
DAV:   7    -0.850721789147E+03   -0.16656E-06   -0.22009E-06  4220   0.258E-03
  43 F= -.85868746E+03 E0= -.85868746E+03  d E =-.100486E-02  mag=    -0.0000
       N       E                     dE             d eps       ncg     rms          rms(c)
DAV:   1    -0.850721957585E+03   -0.16861E-03   -0.67027E-01  4820   0.135E+00    0.169E-01
DAV:   2    -0.850723111787E+03   -0.11542E-02   -0.14622E-02  4880   0.184E-01    0.105E-01
DAV:   3    -0.850723095622E+03    0.16165E-04   -0.16341E-04  5360   0.240E-02    0.798E-02
DAV:   4    -0.850723227662E+03   -0.13204E-03   -0.31198E-04  5460   0.326E-02    0.186E-02
DAV:   5    -0.850723238007E+03   -0.10345E-04   -0.60104E-05  5360   0.121E-02    0.151E-02
DAV:   6    -0.850723236622E+03    0.13848E-05   -0.23222E-05  4380   0.872E-03    0.630E-03
DAV:   7    -0.850723236892E+03   -0.27021E-06   -0.31917E-06  4480   0.313E-03
  44 F= -.85868859E+03 E0= -.85868859E+03  d E =-.113205E-02  mag=     0.0000
       N       E                     dE             d eps       ncg     rms          rms(c)
DAV:   1    -0.850723061311E+03    0.17531E-03   -0.95218E-01  4800   0.164E+00    0.201E-01
DAV:   2    -0.850724739308E+03   -0.16780E-02   -0.20937E-02  4900   0.225E-01    0.125E-01
DAV:   3    -0.850724712186E+03    0.27122E-04   -0.23724E-04  5440   0.293E-02    0.951E-02
DAV:   4    -0.850724881172E+03   -0.16899E-03   -0.43578E-04  5460   0.392E-02    0.226E-02
DAV:   5    -0.850724895874E+03   -0.14702E-04   -0.84506E-05  5340   0.146E-02    0.180E-02
DAV:   6    -0.850724894130E+03    0.17442E-05   -0.33871E-05  4540   0.104E-02    0.743E-03
DAV:   7    -0.850724894469E+03   -0.33905E-06   -0.44773E-06  4840   0.368E-03
  45 F= -.85868986E+03 E0= -.85868986E+03  d E =-.127646E-02  mag=     0.0000
       N       E                     dE             d eps       ncg     rms          rms(c)
DAV:   1    -0.850724266132E+03    0.62800E-03   -0.12934E+00  4800   0.194E+00    0.235E-01
DAV:   2    -0.850726588234E+03   -0.23221E-02   -0.28650E-02  4900   0.267E-01    0.147E-01
DAV:   3    -0.850726542206E+03    0.46028E-04   -0.32667E-04  5580   0.349E-02    0.112E-01
DAV:   4    -0.850726757765E+03   -0.21556E-03   -0.63207E-04  5480   0.477E-02    0.275E-02
DAV:   5    -0.850726774210E+03   -0.16445E-04   -0.11902E-04  5340   0.175E-02    0.224E-02
DAV:   6    -0.850726771266E+03    0.29439E-05   -0.56171E-05  4540   0.128E-02    0.874E-03
DAV:   7    -0.850726771807E+03   -0.54088E-06   -0.65949E-06  5480   0.433E-03
  46 F= -.85869130E+03 E0= -.85869130E+03  d E =-.143631E-02  mag=     0.0000
       N       E                     dE             d eps       ncg     rms          rms(c)
DAV:   1    -0.850725071895E+03    0.16994E-02   -0.18445E+00  4800   0.231E+00    0.282E-01
DAV:   2    -0.850728470074E+03   -0.33982E-02   -0.41568E-02  4940   0.319E-01    0.179E-01
DAV:   3    -0.850728378791E+03    0.91283E-04   -0.51571E-04  5680   0.429E-02    0.138E-01
DAV:   4    -0.850728616146E+03   -0.23736E-03   -0.91054E-04  5400   0.562E-02    0.351E-02
DAV:   5    -0.850728656148E+03   -0.40002E-04   -0.18834E-04  5340   0.213E-02    0.270E-02
DAV:   6    -0.850728651353E+03    0.47952E-05   -0.75067E-05  4800   0.148E-02    0.111E-02
DAV:   7    -0.850728652556E+03   -0.12027E-05   -0.96616E-06  5540   0.518E-03    0.802E-03
DAV:   8    -0.850728651943E+03    0.61274E-06   -0.39289E-06  3960   0.406E-03
  47 F= -.85869269E+03 E0= -.85869269E+03  d E =-.138478E-02  mag=    -0.0000
       N       E                     dE             d eps       ncg     rms          rms(c)
DAV:   1    -0.850723762528E+03    0.48900E-02   -0.26068E+00  4740   0.283E+00    0.337E-01
DAV:   2    -0.850728910284E+03   -0.51478E-02   -0.62244E-02  5060   0.400E-01    0.225E-01
DAV:   3    -0.850728696411E+03    0.21387E-03   -0.87798E-04  5740   0.561E-02    0.174E-01
DAV:   4    -0.850728882352E+03   -0.18594E-03   -0.13732E-03  5240   0.730E-02    0.505E-02
DAV:   5    -0.850728959559E+03   -0.77207E-04   -0.33094E-04  5260   0.289E-02    0.354E-02
DAV:   6    -0.850728953013E+03    0.65462E-05   -0.13059E-04  5040   0.208E-02    0.140E-02
DAV:   7    -0.850728954603E+03   -0.15904E-05   -0.14818E-05  5500   0.669E-03    0.103E-02
DAV:   8    -0.850728953638E+03    0.96508E-06   -0.59259E-06  4340   0.517E-03
  48 F= -.85869242E+03 E0= -.85869242E+03  d E =0.263995E-03  mag=     0.0000
       N       E                     dE             d eps       ncg     rms          rms(c)
DAV:   1    -0.850731611279E+03   -0.26567E-02   -0.20186E-01  4820   0.766E-01    0.959E-02
DAV:   2    -0.850732018104E+03   -0.40683E-03   -0.54229E-03  5620   0.114E-01    0.892E-02
DAV:   3    -0.850731952156E+03    0.65948E-04   -0.12667E-04  5960   0.210E-02    0.749E-02
DAV:   4    -0.850731863596E+03    0.88560E-04   -0.21178E-04  5320   0.268E-02    0.306E-02
DAV:   5    -0.850731867265E+03   -0.36694E-05   -0.87292E-05  5260   0.143E-02    0.127E-02
DAV:   6    -0.850731867631E+03   -0.36553E-06   -0.10992E-05  4980   0.685E-03    0.536E-03
DAV:   7    -0.850731867880E+03   -0.24888E-06   -0.72018E-07  3440   0.218E-03
  49 F= -.85869531E+03 E0= -.85869531E+03  d E =-.288712E-02  mag=    -0.0000
       N       E                     dE             d eps       ncg     rms          rms(c)
DAV:   1    -0.850731904594E+03   -0.36963E-04   -0.31804E-04  4760   0.344E-02    0.386E-03
DAV:   2    -0.850731905195E+03   -0.60055E-06   -0.77865E-06  5010   0.500E-03
  50 F= -.85869534E+03 E0= -.85869534E+03  d E =-.330456E-04  mag=     0.0000
       N       E                     dE             d eps       ncg     rms          rms(c)
DAV:   1    -0.850731965632E+03   -0.61038E-04   -0.11862E-03  4820   0.666E-02    0.828E-03
DAV:   2    -0.850731967568E+03   -0.19353E-05   -0.29042E-05  5280   0.954E-03    0.689E-03
DAV:   3    -0.850731967334E+03    0.23354E-06   -0.45717E-07  3060   0.146E-03
  51 F= -.85869540E+03 E0= -.85869540E+03  d E =-.535597E-04  mag=    -0.0000
       N       E                     dE             d eps       ncg     rms          rms(c)
DAV:   1    -0.850732038783E+03   -0.71215E-04   -0.22789E-03  4760   0.934E-02    0.989E-03
DAV:   2    -0.850732042778E+03   -0.39956E-05   -0.51792E-05  5140   0.129E-02    0.725E-03
DAV:   3    -0.850732042686E+03    0.91808E-07   -0.62415E-07  3600   0.173E-03
  52 F= -.85869546E+03 E0= -.85869546E+03  d E =-.626404E-04  mag=    -0.0000
       N       E                     dE             d eps       ncg     rms          rms(c)
DAV:   1    -0.850732126103E+03   -0.83325E-04   -0.36148E-03  4720   0.118E-01    0.121E-02
DAV:   2    -0.850732132389E+03   -0.62860E-05   -0.81305E-05  4820   0.164E-02    0.832E-03
DAV:   3    -0.850732132416E+03   -0.26550E-07   -0.87154E-07  3920   0.205E-03
  53 F= -.85869553E+03 E0= -.85869553E+03  d E =-.730177E-04  mag=     0.0000
       N       E                     dE             d eps       ncg     rms          rms(c)
DAV:   1    -0.850732236091E+03   -0.10370E-03   -0.52127E-03  4740   0.142E-01    0.145E-02
DAV:   2    -0.850732244963E+03   -0.88722E-05   -0.11529E-04  4680   0.195E-02    0.951E-03
DAV:   3    -0.850732245079E+03   -0.11634E-06   -0.11625E-06  4200   0.235E-03
  54 F= -.85869562E+03 E0= -.85869562E+03  d E =-.922409E-04  mag=    -0.0000
       N       E                     dE             d eps       ncg     rms          rms(c)
DAV:   1    -0.850732373755E+03   -0.12879E-03   -0.72276E-03  4740   0.165E-01    0.171E-02
DAV:   2    -0.850732386050E+03   -0.12295E-04   -0.16009E-04  4680   0.227E-02    0.112E-02
DAV:   3    -0.850732386181E+03   -0.13116E-06   -0.16580E-06  4340   0.273E-03
  55 F= -.85869574E+03 E0= -.85869574E+03  d E =-.117087E-03  mag=    -0.0000
       N       E                     dE             d eps       ncg     rms          rms(c)
DAV:   1    -0.850732542612E+03   -0.15656E-03   -0.12123E-02  4740   0.212E-01    0.221E-02
DAV:   2    -0.850732563515E+03   -0.20903E-04   -0.27033E-04  4680   0.292E-02    0.147E-02
DAV:   3    -0.850732563586E+03   -0.70839E-07   -0.30037E-06  4740   0.354E-03
  56 F= -.85869589E+03 E0= -.85869589E+03  d E =-.146424E-03  mag=    -0.0000
       N       E                     dE             d eps       ncg     rms          rms(c)
DAV:   1    -0.850732742865E+03   -0.17935E-03   -0.19445E-02  4740   0.268E-01    0.283E-02
DAV:   2    -0.850732775983E+03   -0.33119E-04   -0.43039E-04  4680   0.369E-02    0.187E-02
DAV:   3    -0.850732776210E+03   -0.22710E-06   -0.50391E-06  5440   0.449E-03
  57 F= -.85869606E+03 E0= -.85869606E+03  d E =-.173243E-03  mag=     0.0000
       N       E                     dE             d eps       ncg     rms          rms(c)
DAV:   1    -0.850732994818E+03   -0.21883E-03   -0.29463E-02  4740   0.330E-01    0.350E-02
DAV:   2    -0.850733044453E+03   -0.49635E-04   -0.64647E-04  4680   0.454E-02    0.229E-02
DAV:   3    -0.850733044991E+03   -0.53846E-06   -0.74222E-06  5520   0.551E-03
  58 F= -.85869628E+03 E0= -.85869628E+03  d E =-.219420E-03  mag=    -0.0000
       N       E                     dE             d eps       ncg     rms          rms(c)
DAV:   1    -0.850733316540E+03   -0.27209E-03   -0.45165E-02  4740   0.410E-01    0.432E-02
DAV:   2    -0.850733393311E+03   -0.76771E-04   -0.99284E-04  4640   0.563E-02    0.282E-02
DAV:   3    -0.850733394339E+03   -0.10274E-05   -0.11258E-05  5580   0.677E-03    0.217E-02
DAV:   4    -0.850733407531E+03   -0.13193E-04   -0.10315E-05  4460   0.758E-03    0.558E-03
DAV:   5    -0.850733409081E+03   -0.15500E-05   -0.33390E-06  4600   0.318E-03    0.346E-03
DAV:   6    -0.850733408944E+03    0.13784E-06   -0.78625E-07  3600   0.220E-03
  59 F= -.85869658E+03 E0= -.85869658E+03  d E =-.302757E-03  mag=    -0.0000
       N       E                     dE             d eps       ncg     rms          rms(c)
DAV:   1    -0.850733693080E+03   -0.28400E-03   -0.71617E-02  4780   0.515E-01    0.502E-02
DAV:   2    -0.850733829114E+03   -0.13603E-03   -0.16405E-03  4640   0.721E-02    0.316E-02
DAV:   3    -0.850733827263E+03    0.18512E-05   -0.16769E-05  5660   0.833E-03    0.247E-02
DAV:   4    -0.850733841282E+03   -0.14019E-04   -0.20257E-05  4480   0.104E-02    0.657E-03
DAV:   5    -0.850733843096E+03   -0.18135E-05   -0.54677E-06  5080   0.407E-03    0.467E-03
DAV:   6    -0.850733842908E+03    0.18828E-06   -0.17306E-06  3900   0.334E-03
  60 F= -.85869694E+03 E0= -.85869694E+03  d E =-.356990E-03  mag=     0.0000
       N       E                     dE             d eps       ncg     rms          rms(c)
DAV:   1    -0.850734137639E+03   -0.29454E-03   -0.10930E-01  4780   0.636E-01    0.618E-02
DAV:   2    -0.850734345990E+03   -0.20835E-03   -0.24964E-03  4640   0.888E-02    0.388E-02
DAV:   3    -0.850734343288E+03    0.27016E-05   -0.24635E-05  5600   0.101E-02    0.303E-02
DAV:   4    -0.850734364869E+03   -0.21581E-04   -0.31339E-05  4580   0.128E-02    0.774E-03
DAV:   5    -0.850734367266E+03   -0.23977E-05   -0.80082E-06  5230   0.496E-03    0.564E-03
DAV:   6    -0.850734366988E+03    0.27815E-06   -0.27079E-06  4160   0.410E-03
  61 F= -.85869737E+03 E0= -.85869737E+03  d E =-.428461E-03  mag=     0.0000
       N       E                     dE             d eps       ncg     rms          rms(c)
DAV:   1    -0.850734655046E+03   -0.28778E-03   -0.16557E-01  4760   0.780E-01    0.762E-02
DAV:   2    -0.850734973261E+03   -0.31822E-03   -0.38021E-03  4660   0.109E-01    0.480E-02
DAV:   3    -0.850734969173E+03    0.40880E-05   -0.37802E-05  5620   0.125E-02    0.375E-02
DAV:   4    -0.850735000226E+03   -0.31053E-04   -0.48909E-05  4680   0.157E-02    0.949E-03
DAV:   5    -0.850735003937E+03   -0.37110E-05   -0.12566E-05  5300   0.613E-03    0.685E-03
DAV:   6    -0.850735003494E+03    0.44334E-06   -0.40262E-06  4360   0.487E-03
  62 F= -.85869788E+03 E0= -.85869788E+03  d E =-.515658E-03  mag=    -0.0000
       N       E                     dE             d eps       ncg     rms          rms(c)
DAV:   1    -0.850735248812E+03   -0.24488E-03   -0.24455E-01  4780   0.950E-01    0.923E-02
DAV:   2    -0.850735723947E+03   -0.47513E-03   -0.56215E-03  4680   0.133E-01    0.574E-02
DAV:   3    -0.850735718350E+03    0.55965E-05   -0.53921E-05  5620   0.150E-02    0.448E-02
DAV:   4    -0.850735763113E+03   -0.44763E-04   -0.70238E-05  4770   0.189E-02    0.111E-02
DAV:   5    -0.850735767740E+03   -0.46268E-05   -0.17276E-05  5280   0.735E-03    0.800E-03
DAV:   6    -0.850735767109E+03    0.63072E-06   -0.59450E-06  4540   0.582E-03
  63 F= -.85869850E+03 E0= -.85869850E+03  d E =-.614657E-03  mag=    -0.0000
       N       E                     dE             d eps       ncg     rms          rms(c)
DAV:   1    -0.850735886828E+03   -0.11909E-03   -0.35154E-01  4760   0.114E+00    0.110E-01
DAV:   2    -0.850736577248E+03   -0.69042E-03   -0.81015E-03  4720   0.159E-01    0.684E-02
DAV:   3    -0.850736570770E+03    0.64783E-05   -0.77030E-05  5600   0.179E-02    0.534E-02
DAV:   4    -0.850736629301E+03   -0.58532E-04   -0.10589E-04  5210   0.227E-02    0.130E-02
DAV:   5    -0.850736634934E+03   -0.56325E-05   -0.24259E-05  5340   0.874E-03    0.955E-03
DAV:   6    -0.850736634166E+03    0.76757E-06   -0.90310E-06  4540   0.674E-03
  64 F= -.85869919E+03 E0= -.85869919E+03  d E =-.695057E-03  mag=     0.0000
       N       E                     dE             d eps       ncg     rms          rms(c)
DAV:   1    -0.850736611492E+03    0.23442E-04   -0.49203E-01  4800   0.133E+00    0.131E-01
DAV:   2    -0.850737565696E+03   -0.95420E-03   -0.11307E-02  4720   0.186E-01    0.814E-02
DAV:   3    -0.850737564304E+03    0.13922E-05   -0.10640E-04  5600   0.210E-02    0.634E-02
DAV:   4    -0.850737646541E+03   -0.82236E-04   -0.16539E-04  5340   0.273E-02    0.149E-02
DAV:   5    -0.850737652998E+03   -0.64572E-05   -0.34993E-05  5400   0.104E-02    0.116E-02
DAV:   6    -0.850737651804E+03    0.11935E-05   -0.13147E-05  4540   0.763E-03    0.493E-03
DAV:   7    -0.850737652154E+03   -0.34991E-06   -0.21371E-06  4020   0.272E-03
  65 F= -.85870001E+03 E0= -.85870001E+03  d E =-.820273E-03  mag=    -0.0000
       N       E                     dE             d eps       ncg     rms          rms(c)
DAV:   1    -0.850737296333E+03    0.35547E-03   -0.68919E-01  4800   0.158E+00    0.154E-01
DAV:   2    -0.850738631043E+03   -0.13347E-02   -0.15833E-02  4760   0.220E-01    0.965E-02
DAV:   3    -0.850738623328E+03    0.77143E-05   -0.14707E-04  5600   0.247E-02    0.753E-02
DAV:   4    -0.850738745755E+03   -0.12243E-03   -0.24291E-04  5340   0.329E-02    0.180E-02
DAV:   5    -0.850738753985E+03   -0.82307E-05   -0.49514E-05  5420   0.124E-02    0.140E-02
DAV:   6    -0.850738752452E+03    0.15335E-05   -0.21278E-05  4480   0.889E-03    0.564E-03
DAV:   7    -0.850738752820E+03   -0.36801E-06   -0.27657E-06  4300   0.301E-03
  66 F= -.85870088E+03 E0= -.85870088E+03  d E =-.870442E-03  mag=    -0.0000
       N       E                     dE             d eps       ncg     rms          rms(c)
DAV:   1    -0.850738041443E+03    0.71101E-03   -0.91377E-01  4800   0.181E+00    0.181E-01
DAV:   2    -0.850739815725E+03   -0.17743E-02   -0.21042E-02  4820   0.253E-01    0.113E-01
DAV:   3    -0.850739797890E+03    0.17835E-04   -0.20872E-04  5640   0.293E-02    0.880E-02
DAV:   4    -0.850739948917E+03   -0.15103E-03   -0.30853E-04  5420   0.373E-02    0.214E-02
DAV:   5    -0.850739963526E+03   -0.14609E-04   -0.65431E-05  5380   0.141E-02    0.155E-02
DAV:   6    -0.850739961590E+03    0.19362E-05   -0.25372E-05  4560   0.102E-02    0.643E-03
DAV:   7    -0.850739962042E+03   -0.45219E-06   -0.35089E-06  4720   0.337E-03
  67 F= -.85870183E+03 E0= -.85870183E+03  d E =-.941325E-03  mag=     0.0000
       N       E                     dE             d eps       ncg     rms          rms(c)
DAV:   1    -0.850738664434E+03    0.12972E-02   -0.12471E+00  4760   0.210E+00    0.215E-01
DAV:   2    -0.850741104596E+03   -0.24402E-02   -0.28921E-02  4920   0.294E-01    0.137E-01
DAV:   3    -0.850741061039E+03    0.43557E-04   -0.31372E-04  5760   0.351E-02    0.106E-01
DAV:   4    -0.850741231431E+03   -0.17039E-03   -0.44586E-04  5320   0.439E-02    0.275E-02
DAV:   5    -0.850741261048E+03   -0.29617E-04   -0.10656E-04  5320   0.172E-02    0.191E-02
DAV:   6    -0.850741257869E+03    0.31791E-05   -0.34210E-05  4660   0.118E-02    0.818E-03
DAV:   7    -0.850741258728E+03   -0.85881E-06   -0.56026E-06  5380   0.419E-03
  68 F= -.85870279E+03 E0= -.85870279E+03  d E =-.968750E-03  mag=    -0.0000
       N       E                     dE             d eps       ncg     rms          rms(c)
DAV:   1    -0.850738657991E+03    0.25999E-02   -0.15781E+00  4740   0.239E+00    0.245E-01
DAV:   2    -0.850741821737E+03   -0.31637E-02   -0.37474E-02  4960   0.339E-01    0.163E-01
DAV:   3    -0.850741732065E+03    0.89672E-04   -0.49086E-04  5840   0.443E-02    0.127E-01
DAV:   4    -0.850741878001E+03   -0.14594E-03   -0.64614E-04  5220   0.540E-02    0.393E-02
DAV:   5    -0.850741927441E+03   -0.49440E-04   -0.15835E-04  5200   0.217E-02    0.253E-02
DAV:   6    -0.850741925307E+03    0.21342E-05   -0.64527E-05  5060   0.162E-02    0.970E-03
DAV:   7    -0.850741926402E+03   -0.10950E-05   -0.79549E-06  5340   0.517E-03    0.716E-03
DAV:   8    -0.850741926050E+03    0.35172E-06   -0.26179E-06  4080   0.399E-03
  69 F= -.85870313E+03 E0= -.85870313E+03  d E =-.340305E-03  mag=     0.0000
       N       E                     dE             d eps       ncg     rms          rms(c)
DAV:   1    -0.850743086677E+03   -0.11603E-02   -0.65975E-02  4840   0.463E-01    0.564E-02
DAV:   2    -0.850743208792E+03   -0.12211E-03   -0.17274E-03  5560   0.686E-02    0.511E-02
DAV:   3    -0.850743184231E+03    0.24561E-04   -0.54927E-05  5880   0.141E-02    0.413E-02
DAV:   4    -0.850743159094E+03    0.25137E-04   -0.54722E-05  5150   0.144E-02    0.191E-02
DAV:   5    -0.850743159102E+03   -0.78871E-08   -0.26167E-05  5110   0.859E-03    0.764E-03
DAV:   6    -0.850743159271E+03   -0.16906E-06   -0.34945E-06  4250   0.396E-03
  70 F= -.85870434E+03 E0= -.85870434E+03  d E =-.120936E-02  mag=    -0.0000
       N       E                     dE             d eps       ncg     rms          rms(c)
DAV:   1    -0.850742294981E+03    0.86412E-03   -0.68914E-02  4820   0.483E-01    0.571E-02
DAV:   2    -0.850742426693E+03   -0.13171E-03   -0.17926E-03  5580   0.716E-02    0.500E-02
DAV:   3    -0.850742404604E+03    0.22090E-04   -0.55203E-05  5820   0.142E-02    0.400E-02
DAV:   4    -0.850742384148E+03    0.20455E-04   -0.53483E-05  5060   0.144E-02    0.181E-02
DAV:   5    -0.850742385500E+03   -0.13514E-05   -0.23372E-05  5100   0.819E-03    0.773E-03
DAV:   6    -0.850742385693E+03   -0.19337E-06   -0.31880E-06  4220   0.374E-03
  71 F= -.85870353E+03 E0= -.85870353E+03  d E =0.813094E-03  mag=    -0.0000
       N       E                     dE             d eps       ncg     rms          rms(c)
DAV:   1    -0.850742785865E+03   -0.40037E-03   -0.30972E-03  4860   0.102E-01    0.124E-02
DAV:   2    -0.850742791191E+03   -0.53261E-05   -0.81491E-05  5600   0.152E-02    0.116E-02
DAV:   3    -0.850742789868E+03    0.13228E-05   -0.26073E-06  4160   0.322E-03    0.949E-03
DAV:   4    -0.850742788279E+03    0.15893E-05   -0.39392E-06  4380   0.378E-03    0.432E-03
DAV:   5    -0.850742788252E+03    0.26717E-07   -0.12827E-06  3220   0.193E-03
  72 F= -.85870394E+03 E0= -.85870394E+03  d E =-.404929E-03  mag=    -0.0000
       N       E                     dE             d eps       ncg     rms          rms(c)
DAV:   1    -0.850743221692E+03   -0.43341E-03   -0.95310E-03  4840   0.180E-01    0.217E-02
DAV:   2    -0.850743239853E+03   -0.18161E-04   -0.25243E-04  5600   0.265E-02    0.196E-02
DAV:   3    -0.850743236417E+03    0.34360E-05   -0.80221E-06  5740   0.537E-03    0.160E-02
DAV:   4    -0.850743232941E+03    0.34759E-05   -0.83166E-06  4900   0.567E-03    0.734E-03
DAV:   5    -0.850743232984E+03   -0.43183E-07   -0.34791E-06  4100   0.320E-03
  73 F= -.85870438E+03 E0= -.85870438E+03  d E =-.448447E-03  mag=     0.0000
       N       E                     dE             d eps       ncg     rms          rms(c)
DAV:   1    -0.850743316115E+03   -0.83173E-04   -0.13357E-02  4840   0.214E-01    0.256E-02
DAV:   2    -0.850743342074E+03   -0.25959E-04   -0.35611E-04  5600   0.317E-02    0.231E-02
DAV:   3    -0.850743337454E+03    0.46201E-05   -0.11115E-05  5880   0.631E-03    0.188E-02
DAV:   4    -0.850743332806E+03    0.46483E-05   -0.11717E-05  4960   0.676E-03    0.854E-03
DAV:   5    -0.850743332942E+03   -0.13642E-06   -0.47329E-06  4260   0.373E-03
  74 F= -.85870449E+03 E0= -.85870449E+03  d E =-.102520E-03  mag=    -0.0000
       N       E                     dE             d eps       ncg     rms          rms(c)
DAV:   1    -0.850743339638E+03   -0.68321E-05   -0.12121E-05  4520   0.652E-03    0.209E-03
DAV:   2    -0.850743339644E+03   -0.61846E-08   -0.41872E-07  2700   0.123E-03
  75 F= -.85870449E+03 E0= -.85870449E+03  d E =-.617389E-05  mag=     0.0000
       N       E                     dE             d eps       ncg     rms          rms(c)
DAV:   1    -0.850743351689E+03   -0.12051E-04   -0.43318E-05  4700   0.121E-02    0.217E-03
DAV:   2    -0.850743351741E+03   -0.52052E-07   -0.99173E-07  2940   0.180E-03
  76 F= -.85870450E+03 E0= -.85870450E+03  d E =-.110567E-04  mag=     0.0000
       N       E                     dE             d eps       ncg     rms          rms(c)
DAV:   1    -0.850743367897E+03   -0.16208E-04   -0.92466E-05  4700   0.178E-02    0.314E-03
DAV:   2    -0.850743367987E+03   -0.90571E-07   -0.21149E-06  3660   0.258E-03
  77 F= -.85870452E+03 E0= -.85870452E+03  d E =-.146975E-04  mag=     0.0000
       N       E                     dE             d eps       ncg     rms          rms(c)
DAV:   1    -0.850743386205E+03   -0.18308E-04   -0.14979E-04  4680   0.226E-02    0.415E-03
DAV:   2    -0.850743386324E+03   -0.11922E-06   -0.34369E-06  4160   0.327E-03
  78 F= -.85870453E+03 E0= -.85870453E+03  d E =-.162957E-04  mag=    -0.0000
       N       E                     dE             d eps       ncg     rms          rms(c)
DAV:   1    -0.850743405172E+03   -0.18966E-04   -0.20950E-04  4720   0.268E-02    0.504E-03
DAV:   2    -0.850743405317E+03   -0.14505E-06   -0.46534E-06  4760   0.377E-03
  79 F= -.85870455E+03 E0= -.85870455E+03  d E =-.164531E-04  mag=    -0.0000
       N       E                     dE             d eps       ncg     rms          rms(c)
DAV:   1    -0.850743424077E+03   -0.18905E-04   -0.26609E-04  4740   0.301E-02    0.570E-03
DAV:   2    -0.850743424256E+03   -0.17873E-06   -0.57391E-06  4920   0.416E-03
  80 F= -.85870457E+03 E0= -.85870457E+03  d E =-.159163E-04  mag=     0.0000
       N       E                     dE             d eps       ncg     rms          rms(c)
DAV:   1    -0.850743445313E+03   -0.21236E-04   -0.39010E-04  4740   0.364E-02    0.652E-03
DAV:   2    -0.850743445610E+03   -0.29761E-06   -0.82916E-06  5100   0.498E-03
  81 F= -.85870458E+03 E0= -.85870458E+03  d E =-.174517E-04  mag=    -0.0000
       N       E                     dE             d eps       ncg     rms          rms(c)
DAV:   1    -0.850743471085E+03   -0.25772E-04   -0.55742E-04  4800   0.435E-02    0.754E-03
DAV:   2    -0.850743471531E+03   -0.44673E-06   -0.11619E-05  5000   0.587E-03    0.607E-03
DAV:   3    -0.850743471591E+03   -0.59394E-07   -0.31372E-07  2880   0.122E-03
  82 F= -.85870461E+03 E0= -.85870461E+03  d E =-.210838E-04  mag=    -0.0000
       N       E                     dE             d eps       ncg     rms          rms(c)
DAV:   1    -0.850743504814E+03   -0.33283E-04   -0.78361E-04  4740   0.515E-02    0.598E-03
DAV:   2    -0.850743505918E+03   -0.11039E-05   -0.15822E-05  4720   0.676E-03    0.414E-03
DAV:   3    -0.850743505986E+03   -0.67659E-07   -0.16572E-07  2820   0.889E-04
  83 F= -.85870463E+03 E0= -.85870463E+03  d E =-.284206E-04  mag=     0.0000
       N       E                     dE             d eps       ncg     rms          rms(c)
DAV:   1    -0.850743550517E+03   -0.44599E-04   -0.11739E-03  4740   0.631E-02    0.702E-03
DAV:   2    -0.850743552269E+03   -0.17513E-05   -0.24217E-05  4680   0.834E-03    0.472E-03
DAV:   3    -0.850743552318E+03   -0.49295E-07   -0.24022E-07  2900   0.107E-03
  84 F= -.85870467E+03 E0= -.85870467E+03  d E =-.391915E-04  mag=     0.0000
       N       E                     dE             d eps       ncg     rms          rms(c)
DAV:   1    -0.850743610018E+03   -0.57749E-04   -0.18133E-03  4740   0.786E-02    0.871E-03
DAV:   2    -0.850743612748E+03   -0.27304E-05   -0.37635E-05  4680   0.104E-02    0.579E-03
DAV:   3    -0.850743612828E+03   -0.80159E-07   -0.40884E-07  3340   0.135E-03
  85 F= -.85870473E+03 E0= -.85870473E+03  d E =-.518557E-04  mag=    -0.0000
       N       E                     dE             d eps       ncg     rms          rms(c)
DAV:   1    -0.850743682155E+03   -0.69407E-04   -0.28181E-03  4720   0.978E-02    0.110E-02
DAV:   2    -0.850743686421E+03   -0.42660E-05   -0.58902E-05  4720   0.130E-02    0.736E-03
DAV:   3    -0.850743686526E+03   -0.10456E-06   -0.69807E-07  3820   0.173E-03
  86 F= -.85870479E+03 E0= -.85870479E+03  d E =-.631413E-04  mag=     0.0000
       N       E                     dE             d eps       ncg     rms          rms(c)
DAV:   1    -0.850743765846E+03   -0.79425E-04   -0.43479E-03  4740   0.121E-01    0.137E-02
DAV:   2    -0.850743772398E+03   -0.65524E-05   -0.90362E-05  4700   0.160E-02    0.917E-03
DAV:   3    -0.850743772559E+03   -0.16084E-06   -0.10914E-06  4060   0.214E-03
  87 F= -.85870486E+03 E0= -.85870486E+03  d E =-.727224E-04  mag=    -0.0000
       N       E                     dE             d eps       ncg     rms          rms(c)
DAV:   1    -0.850743864838E+03   -0.92439E-04   -0.65784E-03  4740   0.148E-01    0.168E-02
DAV:   2    -0.850743874719E+03   -0.98814E-05   -0.13540E-04  4660   0.195E-02    0.111E-02
DAV:   3    -0.850743874985E+03   -0.26557E-06   -0.15405E-06  4280   0.254E-03
  88 F= -.85870495E+03 E0= -.85870495E+03  d E =-.855377E-04  mag=     0.0000
       N       E                     dE             d eps       ncg     rms          rms(c)
DAV:   1    -0.850743989173E+03   -0.11445E-03   -0.98933E-03  4740   0.181E-01    0.204E-02
DAV:   2    -0.850744004091E+03   -0.14918E-04   -0.20320E-04  4660   0.239E-02    0.134E-02
DAV:   3    -0.850744004564E+03   -0.47308E-06   -0.22701E-06  4340   0.304E-03
  89 F= -.85870505E+03 E0= -.85870505E+03  d E =-.107803E-03  mag=     0.0000
       N       E                     dE             d eps       ncg     rms          rms(c)
DAV:   1    -0.850744144372E+03   -0.14028E-03   -0.15255E-02  4740   0.224E-01    0.251E-02
DAV:   2    -0.850744167933E+03   -0.23561E-04   -0.31558E-04  4660   0.298E-02    0.165E-02
DAV:   3    -0.850744168328E+03   -0.39530E-06   -0.36613E-06  4720   0.380E-03
  90 F= -.85870519E+03 E0= -.85870519E+03  d E =-.135189E-03  mag=    -0.0000
       N       E                     dE             d eps       ncg     rms          rms(c)
DAV:   1    -0.850744329194E+03   -0.16126E-03   -0.23514E-02  4740   0.278E-01    0.312E-02
DAV:   2    -0.850744364856E+03   -0.35662E-04   -0.48812E-04  4660   0.370E-02    0.206E-02
DAV:   3    -0.850744366177E+03   -0.13211E-05   -0.57952E-06  5040   0.471E-03    0.158E-02
DAV:   4    -0.850744373030E+03   -0.68527E-05   -0.83687E-06  4360   0.590E-03    0.366E-03
DAV:   5    -0.850744373509E+03   -0.47953E-06   -0.19089E-06  4100   0.228E-03
  91 F= -.85870536E+03 E0= -.85870536E+03  d E =-.167138E-03  mag=     0.0000
       N       E                     dE             d eps       ncg     rms          rms(c)
DAV:   1    -0.850744550269E+03   -0.17724E-03   -0.35857E-02  4780   0.344E-01    0.369E-02
DAV:   2    -0.850744609832E+03   -0.59563E-04   -0.78771E-04  4640   0.469E-02    0.235E-02
DAV:   3    -0.850744610897E+03   -0.10647E-05   -0.85712E-06  5100   0.580E-03    0.181E-02
DAV:   4    -0.850744620281E+03   -0.93840E-05   -0.14724E-05  4440   0.776E-03    0.441E-03
DAV:   5    -0.850744620791E+03   -0.50981E-06   -0.29891E-06  4400   0.289E-03
  92 F= -.85870556E+03 E0= -.85870556E+03  d E =-.199131E-03  mag=    -0.0000
       N       E                     dE             d eps       ncg     rms          rms(c)
DAV:   1    -0.850744814932E+03   -0.19465E-03   -0.52936E-02  4780   0.417E-01    0.451E-02
DAV:   2    -0.850744902974E+03   -0.88042E-04   -0.11669E-03  4660   0.569E-02    0.284E-02
DAV:   3    -0.850744903378E+03   -0.40375E-06   -0.12428E-05  5420   0.696E-03    0.219E-02
DAV:   4    -0.850744919048E+03   -0.15670E-04   -0.20815E-05  4440   0.936E-03    0.524E-03
DAV:   5    -0.850744919747E+03   -0.69937E-06   -0.43643E-06  4780   0.349E-03
  93 F= -.85870580E+03 E0= -.85870580E+03  d E =-.242515E-03  mag=     0.0000
       N       E                     dE             d eps       ncg     rms          rms(c)
DAV:   1    -0.850745119704E+03   -0.20066E-03   -0.80540E-02  4780   0.513E-01    0.555E-02
DAV:   2    -0.850745255380E+03   -0.13568E-03   -0.17827E-03  4660   0.701E-02    0.349E-02
DAV:   3    -0.850745256025E+03   -0.64532E-06   -0.18710E-05  5460   0.853E-03    0.269E-02
DAV:   4    -0.850745279101E+03   -0.23076E-04   -0.31203E-05  4440   0.114E-02    0.631E-03
DAV:   5    -0.850745280240E+03   -0.11389E-05   -0.65795E-06  5180   0.427E-03    0.505E-03
DAV:   6    -0.850745279974E+03    0.26529E-06   -0.25605E-06  3820   0.334E-03
  94 F= -.85870609E+03 E0= -.85870609E+03  d E =-.292163E-03  mag=     0.0000
       N       E                     dE             d eps       ncg     rms          rms(c)
DAV:   1    -0.850745485395E+03   -0.20516E-03   -0.12042E-01  4800   0.625E-01    0.670E-02
DAV:   2    -0.850745691644E+03   -0.20625E-03   -0.26492E-03  4640   0.853E-02    0.421E-02
DAV:   3    -0.850745689448E+03    0.21965E-05   -0.27115E-05  5560   0.103E-02    0.325E-02
DAV:   4    -0.850745722013E+03   -0.32565E-04   -0.49281E-05  4660   0.141E-02    0.754E-03
DAV:   5    -0.850745723644E+03   -0.16312E-05   -0.99076E-06  5340   0.528E-03    0.615E-03
DAV:   6    -0.850745723341E+03    0.30361E-06   -0.37962E-06  3960   0.396E-03
  95 F= -.85870645E+03 E0= -.85870645E+03  d E =-.356716E-03  mag=    -0.0000
       N       E                     dE             d eps       ncg     rms          rms(c)
DAV:   1    -0.850745913570E+03   -0.18993E-03   -0.18528E-01  4800   0.774E-01    0.826E-02
DAV:   2    -0.850746243225E+03   -0.32966E-03   -0.40922E-03  4760   0.106E-01    0.519E-02
DAV:   3    -0.850746238500E+03    0.47256E-05   -0.40840E-05  5580   0.125E-02    0.402E-02
DAV:   4    -0.850746279730E+03   -0.41230E-04   -0.76864E-05  4900   0.175E-02    0.929E-03
DAV:   5    -0.850746282476E+03   -0.27458E-05   -0.15397E-05  5300   0.653E-03    0.773E-03
DAV:   6    -0.850746281990E+03    0.48622E-06   -0.59421E-06  4140   0.490E-03
  96 F= -.85870689E+03 E0= -.85870689E+03  d E =-.442021E-03  mag=     0.0000
       N       E                     dE             d eps       ncg     rms          rms(c)
DAV:   1    -0.850746433193E+03   -0.15072E-03   -0.27347E-01  4800   0.942E-01    0.101E-01
DAV:   2    -0.850746928066E+03   -0.49487E-03   -0.60663E-03  4800   0.129E-01    0.628E-02
DAV:   3    -0.850746921518E+03    0.65487E-05   -0.60351E-05  5520   0.153E-02    0.485E-02
DAV:   4    -0.850746975906E+03   -0.54388E-04   -0.10268E-04  5180   0.208E-02    0.111E-02
DAV:   5    -0.850746981595E+03   -0.56894E-05   -0.21332E-05  5280   0.772E-03    0.885E-03
DAV:   6    -0.850746981341E+03    0.25411E-06   -0.75734E-06  4320   0.580E-03
  97 F= -.85870744E+03 E0= -.85870744E+03  d E =-.553710E-03  mag=    -0.0000
       N       E                     dE             d eps       ncg     rms          rms(c)
DAV:   1    -0.850747054239E+03   -0.72644E-04   -0.39353E-01  4800   0.112E+00    0.123E-01
DAV:   2    -0.850747771874E+03   -0.71764E-03   -0.87464E-03  4800   0.154E-01    0.760E-02
DAV:   3    -0.850747762441E+03    0.94329E-05   -0.89174E-05  5520   0.185E-02    0.586E-02
DAV:   4    -0.850747834339E+03   -0.71897E-04   -0.14874E-04  5380   0.249E-02    0.136E-02
DAV:   5    -0.850747842077E+03   -0.77383E-05   -0.30949E-05  5320   0.931E-03    0.108E-02
DAV:   6    -0.850747842185E+03   -0.10811E-06   -0.11172E-05  4400   0.712E-03    0.459E-03
DAV:   7    -0.850747842480E+03   -0.29479E-06   -0.18328E-06  4090   0.250E-03
  98 F= -.85870812E+03 E0= -.85870812E+03  d E =-.681819E-03  mag=    -0.0000
       N       E                     dE             d eps       ncg     rms          rms(c)
DAV:   1    -0.850747702637E+03    0.13955E-03   -0.57287E-01  4780   0.135E+00    0.148E-01
DAV:   2    -0.850748754835E+03   -0.10522E-02   -0.12746E-02  4820   0.187E-01    0.924E-02
DAV:   3    -0.850748737536E+03    0.17300E-04   -0.13279E-04  5560   0.225E-02    0.713E-02
DAV:   4    -0.850748832448E+03   -0.94912E-04   -0.23010E-04  5460   0.303E-02    0.171E-02
DAV:   5    -0.850748844225E+03   -0.11777E-04   -0.47943E-05  5300   0.114E-02    0.135E-02
DAV:   6    -0.850748843858E+03    0.36727E-06   -0.17271E-05  4420   0.867E-03    0.566E-03
DAV:   7    -0.850748844216E+03   -0.35862E-06   -0.27281E-06  4220   0.304E-03
  99 F= -.85870891E+03 E0= -.85870891E+03  d E =-.786492E-03  mag=    -0.0000
       N       E                     dE             d eps       ncg     rms          rms(c)
DAV:   1    -0.850748395092E+03    0.44877E-03   -0.78392E-01  4780   0.159E+00    0.175E-01
DAV:   2    -0.850749838288E+03   -0.14432E-02   -0.17557E-02  4860   0.220E-01    0.109E-01
DAV:   3    -0.850749816962E+03    0.21326E-04   -0.19003E-04  5560   0.271E-02    0.837E-02
DAV:   4    -0.850749945307E+03   -0.12835E-03   -0.28736E-04  5460   0.349E-02    0.206E-02
DAV:   5    -0.850749964397E+03   -0.19090E-04   -0.64302E-05  5320   0.133E-02    0.152E-02
DAV:   6    -0.850749963604E+03    0.79330E-06   -0.21124E-05  4420   0.987E-03    0.650E-03
DAV:   7    -0.850749964073E+03   -0.46922E-06   -0.35604E-06  4620   0.345E-03
 100 F= -.85870977E+03 E0= -.85870977E+03  d E =-.863385E-03  mag=    -0.0000
       N       E                     dE             d eps       ncg     rms          rms(c)
DAV:   1    -0.850749068272E+03    0.89533E-03   -0.10994E+00  4760   0.186E+00    0.208E-01
DAV:   2    -0.850751104317E+03   -0.20360E-02   -0.24773E-02  4860   0.258E-01    0.133E-01
DAV:   3    -0.850751056593E+03    0.47724E-04   -0.28108E-04  5680   0.324E-02    0.102E-01
DAV:   4    -0.850751215899E+03   -0.15931E-03   -0.47427E-04  5360   0.431E-02    0.254E-02
DAV:   5    -0.850751242235E+03   -0.26336E-04   -0.10698E-04  5320   0.166E-02    0.193E-02
DAV:   6    -0.850751240852E+03    0.13833E-05   -0.32108E-05  4600   0.119E-02    0.838E-03
DAV:   7    -0.850751241833E+03   -0.98123E-06   -0.60976E-06  5440   0.442E-03
 101 F= -.85871073E+03 E0= -.85871073E+03  d E =-.953952E-03  mag=     0.0000
       N       E                     dE             d eps       ncg     rms          rms(c)
DAV:   1    -0.850749127243E+03    0.21136E-02   -0.14518E+00  4720   0.219E+00    0.243E-01
DAV:   2    -0.850751881640E+03   -0.27544E-02   -0.33559E-02  4940   0.307E-01    0.159E-01
DAV:   3    -0.850751801608E+03    0.80033E-04   -0.43777E-04  5760   0.406E-02    0.123E-01
DAV:   4    -0.850751977288E+03   -0.17568E-03   -0.62008E-04  5240   0.517E-02    0.348E-02
DAV:   5    -0.850752019538E+03   -0.42251E-04   -0.15471E-04  5280   0.205E-02    0.239E-02
DAV:   6    -0.850752017138E+03    0.24006E-05   -0.52558E-05  4960   0.148E-02    0.968E-03
DAV:   7    -0.850752018250E+03   -0.11119E-05   -0.74292E-06  5500   0.483E-03    0.693E-03
DAV:   8    -0.850752017837E+03    0.41244E-06   -0.19156E-06  3860   0.358E-03
 102 F= -.85871116E+03 E0= -.85871116E+03  d E =-.430014E-03  mag=     0.0000
       N       E                     dE             d eps       ncg     rms          rms(c)
DAV:   1    -0.850752985375E+03   -0.96713E-03   -0.61673E-02  4820   0.423E-01    0.528E-02
DAV:   2    -0.850753106447E+03   -0.12107E-03   -0.16226E-03  5480   0.616E-02    0.490E-02
DAV:   3    -0.850753085791E+03    0.20655E-04   -0.38500E-05  6040   0.112E-02    0.409E-02
DAV:   4    -0.850753060142E+03    0.25649E-04   -0.65196E-05  5100   0.148E-02    0.165E-02
DAV:   5    -0.850753061321E+03   -0.11782E-05   -0.24659E-05  5140   0.749E-03    0.697E-03
DAV:   6    -0.850753061484E+03   -0.16367E-06   -0.25494E-06  3820   0.330E-03
 103 F= -.85871219E+03 E0= -.85871219E+03  d E =-.103165E-02  mag=    -0.0000
       N       E                     dE             d eps       ncg     rms          rms(c)
DAV:   1    -0.850752300903E+03    0.76042E-03   -0.56489E-02  4740   0.427E-01    0.494E-02
DAV:   2    -0.850752415907E+03   -0.11500E-03   -0.14805E-03  5480   0.625E-02    0.444E-02
DAV:   3    -0.850752399822E+03    0.16085E-04   -0.35029E-05  6040   0.109E-02    0.367E-02
DAV:   4    -0.850752382658E+03    0.17163E-04   -0.53065E-05  5020   0.138E-02    0.146E-02
DAV:   5    -0.850752384385E+03   -0.17263E-05   -0.19044E-05  5100   0.680E-03    0.667E-03
DAV:   6    -0.850752384456E+03   -0.71668E-07   -0.22412E-06  3820   0.316E-03
 104 F= -.85871149E+03 E0= -.85871149E+03  d E =0.699570E-03  mag=     0.0000
       N       E                     dE             d eps       ncg     rms          rms(c)
DAV:   1    -0.850752744164E+03   -0.35978E-03   -0.30558E-03  4840   0.949E-02    0.118E-02
DAV:   2    -0.850752749935E+03   -0.57706E-05   -0.80944E-05  5500   0.139E-02    0.113E-02
DAV:   3    -0.850752748785E+03    0.11500E-05   -0.17186E-06  4040   0.252E-03    0.961E-03
DAV:   4    -0.850752747108E+03    0.16769E-05   -0.51564E-06  4580   0.408E-03    0.371E-03
DAV:   5    -0.850752747176E+03   -0.67717E-07   -0.12038E-06  3020   0.166E-03
 105 F= -.85871185E+03 E0= -.85871185E+03  d E =-.362819E-03  mag=     0.0000
       N       E                     dE             d eps       ncg     rms          rms(c)
DAV:   1    -0.850753125035E+03   -0.37793E-03   -0.93584E-03  4840   0.167E-01    0.208E-02
DAV:   2    -0.850753143949E+03   -0.18913E-04   -0.24845E-04  5500   0.243E-02    0.191E-02
DAV:   3    -0.850753140830E+03    0.31182E-05   -0.57288E-06  5200   0.439E-03    0.160E-02
DAV:   4    -0.850753137253E+03    0.35776E-05   -0.11247E-05  4900   0.614E-03    0.623E-03
DAV:   5    -0.850753137515E+03   -0.26274E-06   -0.32532E-06  4040   0.273E-03
 106 F= -.85871224E+03 E0= -.85871224E+03  d E =-.390108E-03  mag=     0.0000
       N       E                     dE             d eps       ncg     rms          rms(c)
DAV:   1    -0.850753185861E+03   -0.48608E-04   -0.12874E-02  4800   0.198E-01    0.244E-02
DAV:   2    -0.850753212348E+03   -0.26488E-04   -0.34410E-04  5480   0.290E-02    0.223E-02
DAV:   3    -0.850753208198E+03    0.41506E-05   -0.80571E-06  5780   0.517E-03    0.185E-02
DAV:   4    -0.850753203567E+03    0.46308E-05   -0.13898E-05  4960   0.692E-03    0.732E-03
DAV:   5    -0.850753203939E+03   -0.37211E-06   -0.44941E-06  4190   0.325E-03
 107 F= -.85871231E+03 E0= -.85871231E+03  d E =-.640631E-04  mag=     0.0000
       N       E                     dE             d eps       ncg     rms          rms(c)
DAV:   1    -0.850753211469E+03   -0.79015E-05   -0.14242E-05  4500   0.689E-03    0.209E-03
DAV:   2    -0.850753211481E+03   -0.12500E-07   -0.43491E-07  2700   0.122E-03
 108 F= -.85871231E+03 E0= -.85871231E+03  d E =-.703989E-05  mag=     0.0000
       N       E                     dE             d eps       ncg     rms          rms(c)
DAV:   1    -0.850753225049E+03   -0.13580E-04   -0.53282E-05  4660   0.131E-02    0.239E-03
DAV:   2    -0.850753225114E+03   -0.65425E-07   -0.12476E-06  3040   0.194E-03
 109 F= -.85871233E+03 E0= -.85871233E+03  d E =-.126259E-04  mag=     0.0000
       N       E                     dE             d eps       ncg     rms          rms(c)
DAV:   1    -0.850753242729E+03   -0.17680E-04   -0.11281E-04  4760   0.192E-02    0.349E-03
DAV:   2    -0.850753242841E+03   -0.11198E-06   -0.26273E-06  3540   0.279E-03
 110 F= -.85871234E+03 E0= -.85871234E+03  d E =-.162089E-04  mag=     0.0000
       N       E                     dE             d eps       ncg     rms          rms(c)
DAV:   1    -0.850753261856E+03   -0.19127E-04   -0.18004E-04  4760   0.244E-02    0.459E-03
DAV:   2    -0.850753262022E+03   -0.16655E-06   -0.41744E-06  4200   0.352E-03
 111 F= -.85871236E+03 E0= -.85871236E+03  d E =-.171547E-04  mag=    -0.0000
       N       E                     dE             d eps       ncg     rms          rms(c)
DAV:   1    -0.850753280588E+03   -0.18733E-04   -0.24541E-04  4780   0.289E-02    0.551E-03
DAV:   2    -0.850753280805E+03   -0.21719E-06   -0.55661E-06  4920   0.408E-03
 112 F= -.85871238E+03 E0= -.85871238E+03  d E =-.162249E-04  mag=     0.0000
       N       E                     dE             d eps       ncg     rms          rms(c)
DAV:   1    -0.850753298150E+03   -0.17562E-04   -0.30008E-04  4760   0.323E-02    0.616E-03
DAV:   2    -0.850753298409E+03   -0.25889E-06   -0.65814E-06  5120   0.449E-03
 113 F= -.85871239E+03 E0= -.85871239E+03  d E =-.144090E-04  mag=     0.0000
       N       E                     dE             d eps       ncg     rms          rms(c)
DAV:   1    -0.850753316936E+03   -0.18786E-04   -0.42099E-04  4760   0.389E-02    0.687E-03
DAV:   2    -0.850753317353E+03   -0.41646E-06   -0.90927E-06  5260   0.535E-03
 114 F= -.85871241E+03 E0= -.85871241E+03  d E =-.146506E-04  mag=     0.0000
       N       E                     dE             d eps       ncg     rms          rms(c)
DAV:   1    -0.850753339420E+03   -0.22484E-04   -0.56577E-04  4760   0.456E-02    0.769E-03
DAV:   2    -0.850753340012E+03   -0.59175E-06   -0.12034E-05  5200   0.624E-03    0.630E-03
DAV:   3    -0.850753339970E+03    0.42259E-07   -0.32036E-07  2800   0.124E-03
 115 F= -.85871242E+03 E0= -.85871242E+03  d E =-.171017E-04  mag=     0.0000
       N       E                     dE             d eps       ncg     rms          rms(c)
DAV:   1    -0.850753369875E+03   -0.29863E-04   -0.75802E-04  4720   0.532E-02    0.582E-03
DAV:   2    -0.850753371099E+03   -0.12248E-05   -0.15555E-05  4800   0.711E-03    0.409E-03
DAV:   3    -0.850753371090E+03    0.90877E-08   -0.16563E-07  2460   0.921E-04
 116 F= -.85871245E+03 E0= -.85871245E+03  d E =-.243167E-04  mag=     0.0000
       N       E                     dE             d eps       ncg     rms          rms(c)
DAV:   1    -0.850753412947E+03   -0.41848E-04   -0.11075E-03  4720   0.647E-02    0.678E-03
DAV:   2    -0.850753414812E+03   -0.18649E-05   -0.23355E-05  4720   0.875E-03    0.465E-03
DAV:   3    -0.850753414772E+03    0.40636E-07   -0.24114E-07  2880   0.112E-03
 117 F= -.85871248E+03 E0= -.85871248E+03  d E =-.354927E-04  mag=     0.0000
       N       E                     dE             d eps       ncg     rms          rms(c)
DAV:   1    -0.850753469296E+03   -0.54484E-04   -0.17042E-03  4720   0.803E-02    0.840E-03
DAV:   2    -0.850753472210E+03   -0.29138E-05   -0.36532E-05  4720   0.109E-02    0.578E-03
DAV:   3    -0.850753472125E+03    0.84969E-07   -0.40157E-07  3160   0.142E-03
 118 F= -.85871253E+03 E0= -.85871253E+03  d E =-.473931E-04  mag=    -0.0000
       N       E                     dE             d eps       ncg     rms          rms(c)
DAV:   1    -0.850753535905E+03   -0.63695E-04   -0.26843E-03  4720   0.101E-01    0.106E-02
DAV:   2    -0.850753540550E+03   -0.46442E-05   -0.58321E-05  4800   0.137E-02    0.735E-03
DAV:   3    -0.850753540398E+03    0.15199E-06   -0.69398E-07  3780   0.179E-03
 119 F= -.85871259E+03 E0= -.85871259E+03  d E =-.560409E-04  mag=     0.0000
       N       E                     dE             d eps       ncg     rms          rms(c)
DAV:   1    -0.850753608856E+03   -0.68306E-04   -0.41538E-03  4720   0.125E-01    0.132E-02
DAV:   2    -0.850753615955E+03   -0.70994E-05   -0.89845E-05  4780   0.171E-02    0.909E-03
DAV:   3    -0.850753615764E+03    0.19164E-06   -0.10738E-06  4160   0.221E-03
 120 F= -.85871265E+03 E0= -.85871265E+03  d E =-.603678E-04  mag=     0.0000
       N       E                     dE             d eps       ncg     rms          rms(c)
DAV:   1    -0.850753696148E+03   -0.80193E-04   -0.62074E-03  4720   0.153E-01    0.160E-02
DAV:   2    -0.850753706574E+03   -0.10425E-04   -0.13202E-04  4670   0.207E-02    0.108E-02
DAV:   3    -0.850753706445E+03    0.12838E-06   -0.14875E-06  4240   0.263E-03
 121 F= -.85871272E+03 E0= -.85871272E+03  d E =-.716513E-04  mag=     0.0000
       N       E                     dE             d eps       ncg     rms          rms(c)
DAV:   1    -0.850753808143E+03   -0.10157E-03   -0.93221E-03  4720   0.187E-01    0.193E-02
DAV:   2    -0.850753823785E+03   -0.15642E-04   -0.19776E-04  4640   0.254E-02    0.128E-02
DAV:   3    -0.850753823696E+03    0.88956E-07   -0.22215E-06  4480   0.318E-03
 122 F= -.85871281E+03 E0= -.85871281E+03  d E =-.935916E-04  mag=    -0.0000
       N       E                     dE             d eps       ncg     rms          rms(c)
DAV:   1    -0.850753947362E+03   -0.12358E-03   -0.14092E-02  4720   0.229E-01    0.239E-02
DAV:   2    -0.850753970902E+03   -0.23540E-04   -0.30127E-04  4640   0.312E-02    0.160E-02
DAV:   3    -0.850753970889E+03    0.12784E-07   -0.36820E-06  5020   0.398E-03
 123 F= -.85871293E+03 E0= -.85871293E+03  d E =-.117731E-03  mag=    -0.0000
       N       E                     dE             d eps       ncg     rms          rms(c)
DAV:   1    -0.850754105852E+03   -0.13495E-03   -0.21553E-02  4720   0.284E-01    0.298E-02
DAV:   2    -0.850754141718E+03   -0.35867E-04   -0.46187E-04  4640   0.388E-02    0.200E-02
DAV:   3    -0.850754141551E+03    0.16697E-06   -0.58440E-06  5460   0.497E-03
 124 F= -.85871306E+03 E0= -.85871306E+03  d E =-.135095E-03  mag=    -0.0000
       N       E                     dE             d eps       ncg     rms          rms(c)
DAV:   1    -0.850754289645E+03   -0.14793E-03   -0.31777E-02  4720   0.345E-01    0.363E-02
DAV:   2    -0.850754342009E+03   -0.52364E-04   -0.67638E-04  4640   0.470E-02    0.241E-02
DAV:   3    -0.850754342024E+03   -0.14879E-07   -0.83471E-06  5580   0.598E-03
 125 F= -.85871322E+03 E0= -.85871322E+03  d E =-.158564E-03  mag=     0.0000
       N       E                     dE             d eps       ncg     rms          rms(c)
DAV:   1    -0.850754496251E+03   -0.15424E-03   -0.43636E-02  4720   0.403E-01    0.432E-02
DAV:   2    -0.850754567824E+03   -0.71574E-04   -0.92914E-04  4640   0.549E-02    0.287E-02
DAV:   3    -0.850754567867E+03   -0.42375E-07   -0.11763E-05  5600   0.703E-03    0.218E-02
DAV:   4    -0.850754579944E+03   -0.12077E-04   -0.12115E-05  4460   0.793E-03    0.538E-03
DAV:   5    -0.850754581070E+03   -0.11260E-05   -0.34859E-06  4480   0.325E-03    0.347E-03
DAV:   6    -0.850754580972E+03    0.97723E-07   -0.88853E-07  3500   0.205E-03
 126 F= -.85871341E+03 E0= -.85871341E+03  d E =-.190195E-03  mag=     0.0000
       N       E                     dE             d eps       ncg     rms          rms(c)
DAV:   1    -0.850754719196E+03   -0.13813E-03   -0.64049E-02  4760   0.485E-01    0.493E-02
DAV:   2    -0.850754836165E+03   -0.11697E-03   -0.14324E-03  4640   0.678E-02    0.317E-02
DAV:   3    -0.850754833335E+03    0.28303E-05   -0.16856E-05  5660   0.848E-03    0.243E-02
DAV:   4    -0.850754845126E+03   -0.11791E-04   -0.22076E-05  4460   0.104E-02    0.629E-03
DAV:   5    -0.850754846396E+03   -0.12699E-05   -0.55189E-06  5060   0.406E-03    0.444E-03
DAV:   6    -0.850754846271E+03    0.12487E-06   -0.16306E-06  3720   0.288E-03
 127 F= -.85871362E+03 E0= -.85871362E+03  d E =-.203104E-03  mag=    -0.0000
       N       E                     dE             d eps       ncg     rms          rms(c)
DAV:   1    -0.850754989727E+03   -0.14333E-03   -0.92728E-02  4780   0.578E-01    0.595E-02
DAV:   2    -0.850755157161E+03   -0.16743E-03   -0.20641E-03  4640   0.808E-02    0.382E-02
DAV:   3    -0.850755154146E+03    0.30151E-05   -0.24217E-05  5600   0.102E-02    0.294E-02
DAV:   4    -0.850755171221E+03   -0.17075E-04   -0.33193E-05  4560   0.126E-02    0.739E-03
DAV:   5    -0.850755173150E+03   -0.19288E-05   -0.81230E-06  5320   0.490E-03    0.529E-03
DAV:   6    -0.850755172961E+03    0.18880E-06   -0.22974E-06  3820   0.341E-03
 128 F= -.85871386E+03 E0= -.85871386E+03  d E =-.246978E-03  mag=     0.0000
       N       E                     dE             d eps       ncg     rms          rms(c)
DAV:   1    -0.850755300142E+03   -0.12699E-03   -0.13468E-01  4800   0.692E-01    0.715E-02
DAV:   2    -0.850755542889E+03   -0.24275E-03   -0.29870E-03  4640   0.964E-02    0.459E-02
DAV:   3    -0.850755538179E+03    0.47100E-05   -0.34991E-05  5620   0.121E-02    0.353E-02
DAV:   4    -0.850755562780E+03   -0.24601E-04   -0.51790E-05  4680   0.152E-02    0.878E-03
DAV:   5    -0.850755565283E+03   -0.25033E-05   -0.11652E-05  5480   0.590E-03    0.635E-03
DAV:   6    -0.850755565073E+03    0.20984E-06   -0.36309E-06  3920   0.409E-03
 129 F= -.85871416E+03 E0= -.85871416E+03  d E =-.294730E-03  mag=     0.0000
       N       E                     dE             d eps       ncg     rms          rms(c)
DAV:   1    -0.850755683415E+03   -0.11813E-03   -0.18974E-01  4800   0.821E-01    0.851E-02
DAV:   2    -0.850756023366E+03   -0.33995E-03   -0.42000E-03  4660   0.114E-01    0.546E-02
DAV:   3    -0.850756018962E+03    0.44040E-05   -0.48295E-05  5580   0.142E-02    0.418E-02
DAV:   4    -0.850756054580E+03   -0.35618E-04   -0.75483E-05  4920   0.183E-02    0.102E-02
DAV:   5    -0.850756057255E+03   -0.26753E-05   -0.16009E-05  5460   0.705E-03    0.743E-03
DAV:   6    -0.850756057046E+03    0.20902E-06   -0.55824E-06  4240   0.498E-03
 130 F= -.85871452E+03 E0= -.85871452E+03  d E =-.365293E-03  mag=    -0.0000
       N       E                     dE             d eps       ncg     rms          rms(c)
DAV:   1    -0.850756134273E+03   -0.77017E-04   -0.27552E-01  4800   0.980E-01    0.103E-01
DAV:   2    -0.850756624787E+03   -0.49051E-03   -0.61196E-03  4680   0.137E-01    0.663E-02
DAV:   3    -0.850756621822E+03    0.29645E-05   -0.71672E-05  5520   0.172E-02    0.507E-02
DAV:   4    -0.850756672390E+03   -0.50568E-04   -0.10916E-04  5340   0.220E-02    0.122E-02
DAV:   5    -0.850756676763E+03   -0.43728E-05   -0.22684E-05  5340   0.828E-03    0.880E-03
DAV:   6    -0.850756676393E+03    0.36961E-06   -0.77214E-06  4440   0.599E-03
 131 F= -.85871497E+03 E0= -.85871497E+03  d E =-.450245E-03  mag=    -0.0000
       N       E                     dE             d eps       ncg     rms          rms(c)
DAV:   1    -0.850756629515E+03    0.47248E-04   -0.40121E-01  4800   0.118E+00    0.125E-01
DAV:   2    -0.850757346679E+03   -0.71716E-03   -0.89345E-03  4720   0.164E-01    0.803E-02
DAV:   3    -0.850757340097E+03    0.65818E-05   -0.10649E-04  5420   0.208E-02    0.615E-02
DAV:   4    -0.850757410900E+03   -0.70803E-04   -0.16138E-04  5300   0.265E-02    0.152E-02
DAV:   5    -0.850757418231E+03   -0.73308E-05   -0.34136E-05  5360   0.998E-03    0.109E-02
DAV:   6    -0.850757417569E+03    0.66171E-06   -0.11571E-05  4540   0.748E-03    0.478E-03
DAV:   7    -0.850757417888E+03   -0.31899E-06   -0.19019E-06  3980   0.256E-03
 132 F= -.85871553E+03 E0= -.85871553E+03  d E =-.559569E-03  mag=     0.0000
       N       E                     dE             d eps       ncg     rms          rms(c)
DAV:   1    -0.850757173192E+03    0.24438E-03   -0.54115E-01  4780   0.137E+00    0.145E-01
[...]
DAV:   1    -0.850774919549E+03   -0.34554E-04   -0.25833E-03  4720   0.100E-01    0.954E-03
DAV:   2    -0.850774923945E+03   -0.43961E-05   -0.54548E-05  4680   0.136E-02    0.645E-03
DAV:   3    -0.850774923932E+03    0.13439E-07   -0.53775E-07  3500   0.168E-03
 218 F= -.85872913E+03 E0= -.85872913E+03  d E =-.287016E-04  mag=     0.0000
       N       E                     dE             d eps       ncg     rms          rms(c)
DAV:   1    -0.850774966093E+03   -0.42148E-04   -0.43641E-03  4720   0.130E-01    0.123E-02
DAV:   2    -0.850774973558E+03   -0.74649E-05   -0.92532E-05  4660   0.177E-02    0.828E-03
DAV:   3    -0.850774973552E+03    0.61846E-08   -0.94511E-07  3860   0.219E-03
 219 F= -.85872917E+03 E0= -.85872917E+03  d E =-.350947E-04  mag=    -0.0000
       N       E                     dE             d eps       ncg     rms          rms(c)
DAV:   1    -0.850775023233E+03   -0.49675E-04   -0.74019E-03  4720   0.169E-01    0.160E-02
DAV:   2    -0.850775035782E+03   -0.12549E-04   -0.15681E-04  4660   0.231E-02    0.107E-02
DAV:   3    -0.850775035797E+03   -0.15236E-07   -0.16875E-06  4340   0.281E-03
 220 F= -.85872921E+03 E0= -.85872921E+03  d E =-.421555E-04  mag=    -0.0000
       N       E                     dE             d eps       ncg     rms          rms(c)
DAV:   1    -0.850775090521E+03   -0.54739E-04   -0.12376E-02  4720   0.218E-01    0.207E-02
DAV:   2    -0.850775111298E+03   -0.20777E-04   -0.26199E-04  4640   0.298E-02    0.138E-02
DAV:   3    -0.850775111280E+03    0.18932E-07   -0.28462E-06  4800   0.359E-03
 221 F= -.85872926E+03 E0= -.85872926E+03  d E =-.487629E-04  mag=    -0.0000
       N       E                     dE             d eps       ncg     rms          rms(c)
DAV:   1    -0.850775172938E+03   -0.61640E-04   -0.20366E-02  4720   0.280E-01    0.266E-02
DAV:   2    -0.850775206822E+03   -0.33884E-04   -0.43108E-04  4640   0.383E-02    0.178E-02
DAV:   3    -0.850775206868E+03   -0.45788E-07   -0.48514E-06  5400   0.459E-03
 222 F= -.85872932E+03 E0= -.85872932E+03  d E =-.625381E-04  mag=     0.0000
       N       E                     dE             d eps       ncg     rms          rms(c)
DAV:   1    -0.850775267672E+03   -0.60850E-04   -0.33021E-02  4720   0.357E-01    0.341E-02
DAV:   2    -0.850775321950E+03   -0.54278E-04   -0.69901E-04  4640   0.488E-02    0.229E-02
DAV:   3    -0.850775321797E+03    0.15288E-06   -0.80356E-06  5580   0.588E-03
 223 F= -.85872940E+03 E0= -.85872940E+03  d E =-.736149E-04  mag=    -0.0000
       N       E                     dE             d eps       ncg     rms          rms(c)
DAV:   1    -0.850775369057E+03   -0.47108E-04   -0.50521E-02  4720   0.440E-01    0.428E-02
DAV:   2    -0.850775449388E+03   -0.80331E-04   -0.10640E-03  4640   0.602E-02    0.288E-02
DAV:   3    -0.850775449754E+03   -0.36564E-06   -0.12720E-05  5640   0.737E-03    0.221E-02
DAV:   4    -0.850775464793E+03   -0.15039E-04   -0.11943E-05  4490   0.851E-03    0.558E-03
DAV:   5    -0.850775466462E+03   -0.16686E-05   -0.40518E-06  4720   0.352E-03    0.334E-03
DAV:   6    -0.850775466350E+03    0.11201E-06   -0.66195E-07  3420   0.220E-03
 224 F= -.85872949E+03 E0= -.85872949E+03  d E =-.923380E-04  mag=    -0.0000
       N       E                     dE             d eps       ncg     rms          rms(c)
DAV:   1    -0.850775481910E+03   -0.15448E-04   -0.75122E-02  4780   0.536E-01    0.493E-02
DAV:   2    -0.850775613811E+03   -0.13190E-03   -0.16496E-03  4640   0.748E-02    0.320E-02
DAV:   3    -0.850775611479E+03    0.23319E-05   -0.18879E-05  5600   0.901E-03    0.248E-02
DAV:   4    -0.850775626584E+03   -0.15105E-04   -0.20635E-05  4520   0.111E-02    0.658E-03
DAV:   5    -0.850775628729E+03   -0.21451E-05   -0.62741E-06  5100   0.435E-03    0.424E-03
DAV:   6    -0.850775628566E+03    0.16330E-06   -0.11987E-06  3760   0.323E-03
 225 F= -.85872958E+03 E0= -.85872958E+03  d E =-.957168E-04  mag=     0.0000
       N       E                     dE             d eps       ncg     rms          rms(c)
DAV:   1    -0.850775623029E+03    0.57001E-05   -0.10385E-01  4780   0.626E-01    0.587E-02
DAV:   2    -0.850775802644E+03   -0.17961E-03   -0.22646E-03  4640   0.873E-02    0.382E-02
DAV:   3    -0.850775798929E+03    0.37144E-05   -0.26717E-05  5600   0.107E-02    0.295E-02
DAV:   4    -0.850775820312E+03   -0.21383E-04   -0.29892E-05  4660   0.133E-02    0.773E-03
DAV:   5    -0.850775823133E+03   -0.28213E-05   -0.88669E-06  5240   0.519E-03    0.495E-03
DAV:   6    -0.850775822942E+03    0.19073E-06   -0.16734E-06  4000   0.382E-03
 226 F= -.85872970E+03 E0= -.85872970E+03  d E =-.111894E-03  mag=     0.0000
       N       E                     dE             d eps       ncg     rms          rms(c)
DAV:   1    -0.850775803942E+03    0.19191E-04   -0.13607E-01  4760   0.713E-01    0.676E-02
DAV:   2    -0.850776038313E+03   -0.23437E-03   -0.29528E-03  4640   0.994E-02    0.447E-02
DAV:   3    -0.850776032827E+03    0.54867E-05   -0.36738E-05  5640   0.125E-02    0.345E-02
DAV:   4    -0.850776058925E+03   -0.26098E-04   -0.43360E-05  4720   0.155E-02    0.904E-03
DAV:   5    -0.850776062589E+03   -0.36642E-05   -0.12096E-05  5280   0.607E-03    0.584E-03
DAV:   6    -0.850776062338E+03    0.25168E-06   -0.24405E-06  4220   0.439E-03
 227 F= -.85872984E+03 E0= -.85872984E+03  d E =-.143002E-03  mag=    -0.0000
       N       E                     dE             d eps       ncg     rms          rms(c)
DAV:   1    -0.850776046078E+03    0.16511E-04   -0.17154E-01  4760   0.795E-01    0.764E-02
DAV:   2    -0.850776337853E+03   -0.29177E-03   -0.36814E-03  4640   0.110E-01    0.505E-02
DAV:   3    -0.850776329977E+03    0.78761E-05   -0.46616E-05  5640   0.140E-02    0.389E-02
DAV:   4    -0.850776362956E+03   -0.32979E-04   -0.58693E-05  4960   0.177E-02    0.988E-03
DAV:   5    -0.850776367256E+03   -0.43007E-05   -0.15096E-05  5320   0.677E-03    0.658E-03
DAV:   6    -0.850776367014E+03    0.24219E-06   -0.32737E-06  4220   0.495E-03
 228 F= -.85873003E+03 E0= -.85873003E+03  d E =-.191529E-03  mag=    -0.0000
       N       E                     dE             d eps       ncg     rms          rms(c)
DAV:   1    -0.850776313433E+03    0.53823E-04   -0.22034E-01  4800   0.898E-01    0.867E-02
DAV:   2    -0.850776692350E+03   -0.37892E-03   -0.47337E-03  4640   0.124E-01    0.574E-02
DAV:   3    -0.850776681249E+03    0.11101E-04   -0.59567E-05  5580   0.159E-02    0.441E-02
DAV:   4    -0.850776719517E+03   -0.38268E-04   -0.78629E-05  5280   0.204E-02    0.110E-02
DAV:   5    -0.850776724653E+03   -0.51360E-05   -0.19436E-05  5300   0.780E-03    0.726E-03
DAV:   6    -0.850776724458E+03    0.19476E-06   -0.38642E-06  4480   0.523E-03
 229 F= -.85873026E+03 E0= -.85873026E+03  d E =-.228745E-03  mag=    -0.0000
       N       E                     dE             d eps       ncg     rms          rms(c)
DAV:   1    -0.850776595615E+03    0.12904E-03   -0.28663E-01  4800   0.102E+00    0.976E-02
DAV:   2    -0.850777099794E+03   -0.50418E-03   -0.62051E-03  4680   0.141E-01    0.654E-02
DAV:   3    -0.850777085347E+03    0.14448E-04   -0.75492E-05  5700   0.179E-02    0.506E-02
DAV:   4    -0.850777128085E+03   -0.42738E-04   -0.11245E-04  5380   0.235E-02    0.124E-02
DAV:   5    -0.850777134933E+03   -0.68482E-05   -0.26074E-05  5240   0.891E-03    0.860E-03
DAV:   6    -0.850777134907E+03    0.26455E-07   -0.55645E-06  4520   0.575E-03
 230 F= -.85873053E+03 E0= -.85873053E+03  d E =-.271071E-03  mag=     0.0000
       N       E                     dE             d eps       ncg     rms          rms(c)
DAV:   1    -0.850776866162E+03    0.26877E-03   -0.37331E-01  4800   0.118E+00    0.111E-01
DAV:   2    -0.850777539019E+03   -0.67286E-03   -0.81980E-03  4700   0.163E-01    0.739E-02
DAV:   3    -0.850777523900E+03    0.15119E-04   -0.99552E-05  5720   0.206E-02    0.573E-02
DAV:   4    -0.850777573923E+03   -0.50023E-04   -0.13283E-04  5320   0.262E-02    0.148E-02
DAV:   5    -0.850777583339E+03   -0.94160E-05   -0.33055E-05  5260   0.103E-02    0.976E-03
DAV:   6    -0.850777583670E+03   -0.33157E-06   -0.80034E-06  4340   0.683E-03
 231 F= -.85873082E+03 E0= -.85873082E+03  d E =-.286132E-03  mag=     0.0000
       N       E                     dE             d eps       ncg     rms          rms(c)
DAV:   1    -0.850776867643E+03    0.71570E-03   -0.53616E-01  4780   0.140E+00    0.134E-01
DAV:   2    -0.850777863403E+03   -0.99576E-03   -0.12049E-02  4820   0.196E-01    0.919E-02
DAV:   3    -0.850777832584E+03    0.30819E-04   -0.15773E-04  5880   0.254E-02    0.717E-02
DAV:   4    -0.850777881387E+03   -0.48803E-04   -0.21495E-04  4960   0.320E-02    0.199E-02
DAV:   5    -0.850777897448E+03   -0.16061E-04   -0.58275E-05  5280   0.130E-02    0.126E-02
DAV:   6    -0.850777897900E+03   -0.45246E-06   -0.10953E-05  4560   0.752E-03    0.574E-03
DAV:   7    -0.850777898708E+03   -0.80824E-06   -0.21374E-06  4020   0.277E-03
 232 F= -.85873096E+03 E0= -.85873096E+03  d E =-.141270E-03  mag=    -0.0000
       N       E                     dE             d eps       ncg     rms          rms(c)
DAV:   1    -0.850778137868E+03   -0.23997E-03   -0.11700E-02  4740   0.214E-01    0.245E-02
DAV:   2    -0.850778159116E+03   -0.21248E-04   -0.30483E-04  5740   0.314E-02    0.220E-02
DAV:   3    -0.850778154063E+03    0.50534E-05   -0.11824E-05  6000   0.651E-03    0.172E-02
DAV:   4    -0.850778149582E+03    0.44815E-05   -0.10637E-05  4980   0.676E-03    0.774E-03
DAV:   5    -0.850778149544E+03    0.37900E-07   -0.36777E-06  4020   0.351E-03
 233 F= -.85873121E+03 E0= -.85873121E+03  d E =-.251081E-03  mag=    -0.0000
       N       E                     dE             d eps       ncg     rms          rms(c)
DAV:   1    -0.850778000977E+03    0.14860E-03   -0.13190E-02  4720   0.233E-01    0.256E-02
DAV:   2    -0.850778026553E+03   -0.25576E-04   -0.34179E-04  5740   0.342E-02    0.222E-02
DAV:   3    -0.850778021958E+03    0.45950E-05   -0.12516E-05  6120   0.677E-03    0.173E-02
DAV:   4    -0.850778018291E+03    0.36679E-05   -0.11003E-05  4940   0.701E-03    0.773E-03
DAV:   5    -0.850778018420E+03   -0.12985E-06   -0.33459E-06  4020   0.347E-03
 234 F= -.85873108E+03 E0= -.85873108E+03  d E =0.132591E-03  mag=     0.0000
       N       E                     dE             d eps       ncg     rms          rms(c)
DAV:   1    -0.850778093949E+03   -0.75658E-04   -0.57059E-04  4680   0.466E-02    0.563E-03
DAV:   2    -0.850778094850E+03   -0.90152E-06   -0.15313E-05  5740   0.695E-03    0.522E-03
DAV:   3    -0.850778094519E+03    0.33148E-06   -0.53096E-07  2660   0.152E-03
 235 F= -.85873115E+03 E0= -.85873115E+03  d E =-.750433E-04  mag=    -0.0000
       N       E                     dE             d eps       ncg     rms          rms(c)
DAV:   1    -0.850778179864E+03   -0.85014E-04   -0.17421E-03  4700   0.818E-02    0.103E-02
DAV:   2    -0.850778182617E+03   -0.27531E-05   -0.42358E-05  5880   0.117E-02    0.925E-03
DAV:   3    -0.850778181749E+03    0.86811E-06   -0.14533E-06  3580   0.250E-03
 236 F= -.85873124E+03 E0= -.85873124E+03  d E =-.851515E-04  mag=     0.0000
       N       E                     dE             d eps       ncg     rms          rms(c)
DAV:   1    -0.850778207866E+03   -0.25248E-04   -0.26018E-03  4740   0.101E-01    0.129E-02
DAV:   2    -0.850778211903E+03   -0.40375E-05   -0.60639E-05  5800   0.141E-02    0.114E-02
DAV:   3    -0.850778210749E+03    0.11540E-05   -0.22541E-06  4000   0.307E-03    0.870E-03
DAV:   4    -0.850778210076E+03    0.67311E-06   -0.41729E-06  4560   0.409E-03
 237 F= -.85873126E+03 E0= -.85873126E+03  d E =-.251371E-04  mag=    -0.0000
       N       E                     dE             d eps       ncg     rms          rms(c)
DAV:   1    -0.850778211602E+03   -0.85324E-06   -0.31757E-06  3720   0.369E-03    0.193E-03
DAV:   2    -0.850778211609E+03   -0.69776E-08   -0.16749E-07  2560   0.837E-04
 238 F= -.85873126E+03 E0= -.85873126E+03  d E =-.136549E-05  mag=     0.0000
       N       E                     dE             d eps       ncg     rms          rms(c)
DAV:   1    -0.850778214364E+03   -0.27616E-05   -0.96214E-06  4440   0.639E-03    0.142E-03
DAV:   2    -0.850778214380E+03   -0.16102E-07   -0.23738E-07  2500   0.990E-04
 239 F= -.85873127E+03 E0= -.85873127E+03  d E =-.243583E-05  mag=     0.0000
       N       E                     dE             d eps       ncg     rms          rms(c)
DAV:   1    -0.850778218263E+03   -0.38996E-05   -0.20948E-05  4600   0.942E-03    0.168E-03
DAV:   2    -0.850778218295E+03   -0.31716E-07   -0.50176E-07  2580   0.142E-03
 240 F= -.85873127E+03 E0= -.85873127E+03  d E =-.340982E-05  mag=    -0.0000
       N       E                     dE             d eps       ncg     rms          rms(c)
DAV:   1    -0.850778222916E+03   -0.46524E-05   -0.35345E-05  4620   0.122E-02    0.209E-03
DAV:   2    -0.850778222961E+03   -0.45678E-07   -0.80329E-07  2560   0.179E-03
 241 F= -.85873127E+03 E0= -.85873127E+03  d E =-.398774E-05  mag=     0.0000
       N       E                     dE             d eps       ncg     rms          rms(c)
DAV:   1    -0.850778228187E+03   -0.52715E-05   -0.52158E-05  4660   0.148E-02    0.247E-03
DAV:   2    -0.850778228250E+03   -0.63090E-07   -0.11249E-06  2800   0.211E-03
 242 F= -.85873128E+03 E0= -.85873128E+03  d E =-.443358E-05  mag=     0.0000
       N       E                     dE             d eps       ncg     rms          rms(c)
DAV:   1    -0.850778233689E+03   -0.55021E-05   -0.70974E-05  4640   0.172E-02    0.279E-03
DAV:   2    -0.850778233780E+03   -0.90185E-07   -0.15308E-06  3060   0.244E-03
 243 F= -.85873128E+03 E0= -.85873128E+03  d E =-.448060E-05  mag=    -0.0000
       N       E                     dE             d eps       ncg     rms          rms(c)
DAV:   1    -0.850778240325E+03   -0.66360E-05   -0.11373E-04  4640   0.218E-02    0.327E-03
DAV:   2    -0.850778240467E+03   -0.14124E-06   -0.24593E-06  3780   0.306E-03
 244 F= -.85873129E+03 E0= -.85873129E+03  d E =-.529702E-05  mag=     0.0000
       N       E                     dE             d eps       ncg     rms          rms(c)
DAV:   1    -0.850778248580E+03   -0.82548E-05   -0.17917E-04  4640   0.272E-02    0.390E-03
DAV:   2    -0.850778248796E+03   -0.21616E-06   -0.38894E-06  4220   0.381E-03
 245 F= -.85873129E+03 E0= -.85873129E+03  d E =-.653095E-05  mag=     0.0000
       N       E                     dE             d eps       ncg     rms          rms(c)
DAV:   1    -0.850778258904E+03   -0.10324E-04   -0.27913E-04  4740   0.339E-02    0.473E-03
DAV:   2    -0.850778259233E+03   -0.32919E-06   -0.59408E-06  4840   0.465E-03
 246 F= -.85873130E+03 E0= -.85873130E+03  d E =-.811238E-05  mag=     0.0000
       N       E                     dE             d eps       ncg     rms          rms(c)
DAV:   1    -0.850778272146E+03   -0.13242E-04   -0.43806E-04  4720   0.422E-02    0.579E-03
DAV:   2    -0.850778272681E+03   -0.53462E-06   -0.92410E-06  5080   0.578E-03
 247 F= -.85873131E+03 E0= -.85873131E+03  d E =-.105075E-04  mag=     0.0000
       N       E                     dE             d eps       ncg     rms          rms(c)
DAV:   1    -0.850778288732E+03   -0.16586E-04   -0.69159E-04  4720   0.530E-02    0.718E-03
DAV:   2    -0.850778289603E+03   -0.87095E-06   -0.14644E-05  5180   0.725E-03    0.566E-03
DAV:   3    -0.850778289712E+03   -0.10920E-06   -0.23524E-07  2840   0.117E-03
 248 F= -.85873133E+03 E0= -.85873133E+03  d E =-.132973E-04  mag=     0.0000
       N       E                     dE             d eps       ncg     rms          rms(c)
DAV:   1    -0.850778309015E+03   -0.19412E-04   -0.10639E-03  4720   0.655E-02    0.622E-03
DAV:   2    -0.850778310705E+03   -0.16901E-05   -0.22114E-05  4920   0.882E-03    0.432E-03
DAV:   3    -0.850778310768E+03   -0.62275E-07   -0.23221E-07  2950   0.111E-03
 249 F= -.85873134E+03 E0= -.85873134E+03  d E =-.162083E-04  mag=     0.0000
       N       E                     dE             d eps       ncg     rms          rms(c)
DAV:   1    -0.850778332598E+03   -0.21893E-04   -0.16433E-03  4720   0.813E-02    0.759E-03
DAV:   2    -0.850778335334E+03   -0.27359E-05   -0.35050E-05  4870   0.111E-02    0.529E-03
DAV:   3    -0.850778335356E+03   -0.21799E-07   -0.37239E-07  3180   0.141E-03
 250 F= -.85873136E+03 E0= -.85873136E+03  d E =-.182161E-04  mag=     0.0000
       N       E                     dE             d eps       ncg     rms          rms(c)
DAV:   1    -0.850778361093E+03   -0.25758E-04   -0.24562E-03  4720   0.991E-02    0.926E-03
DAV:   2    -0.850778365134E+03   -0.40418E-05   -0.51974E-05  4780   0.135E-02    0.638E-03
DAV:   3    -0.850778365211E+03   -0.76914E-07   -0.53980E-07  3420   0.170E-03
 251 F= -.85873138E+03 E0= -.85873138E+03  d E =-.215252E-04  mag=    -0.0000
       N       E                     dE             d eps       ncg     rms          rms(c)
DAV:   1    -0.850778394764E+03   -0.29630E-04   -0.35917E-03  4720   0.120E-01    0.112E-02
DAV:   2    -0.850778400622E+03   -0.58576E-05   -0.75853E-05  4700   0.163E-02    0.767E-03
DAV:   3    -0.850778400769E+03   -0.14667E-06   -0.80084E-07  3620   0.205E-03
 252 F= -.85873141E+03 E0= -.85873141E+03  d E =-.247134E-04  mag=     0.0000
       N       E                     dE             d eps       ncg     rms          rms(c)
DAV:   1    -0.850778435694E+03   -0.35072E-04   -0.50995E-03  4720   0.142E-01    0.135E-02
DAV:   2    -0.850778443905E+03   -0.82108E-05   -0.10782E-04  4660   0.194E-02    0.930E-03
DAV:   3    -0.850778444101E+03   -0.19649E-06   -0.12191E-06  4040   0.247E-03
 253 F= -.85873144E+03 E0= -.85873144E+03  d E =-.295179E-04  mag=     0.0000
       N       E                     dE             d eps       ncg     rms          rms(c)
DAV:   1    -0.850778484681E+03   -0.40777E-04   -0.70439E-03  4720   0.167E-01    0.162E-02
DAV:   2    -0.850778495722E+03   -0.11041E-04   -0.14833E-04  4660   0.226E-02    0.113E-02
DAV:   3    -0.850778496034E+03   -0.31161E-06   -0.18029E-06  4420   0.295E-03
 254 F= -.85873147E+03 E0= -.85873147E+03  d E =-.342468E-04  mag=    -0.0000
       N       E                     dE             d eps       ncg     rms          rms(c)
DAV:   1    -0.850778543357E+03   -0.47635E-04   -0.98989E-03  4720   0.197E-01    0.194E-02
DAV:   2    -0.850778558746E+03   -0.15389E-04   -0.20787E-04  4640   0.267E-02    0.135E-02
DAV:   3    -0.850778559090E+03   -0.34392E-06   -0.26526E-06  4820   0.348E-03
 255 F= -.85873151E+03 E0= -.85873151E+03  d E =-.408484E-04  mag=    -0.0000
       N       E                     dE             d eps       ncg     rms          rms(c)
DAV:   1    -0.850778613711E+03   -0.54964E-04   -0.13583E-02  4720   0.229E-01    0.230E-02
DAV:   2    -0.850778634664E+03   -0.20954E-04   -0.28562E-04  4640   0.312E-02    0.161E-02
DAV:   3    -0.850778635135E+03   -0.47035E-06   -0.38335E-06  5100   0.410E-03
 256 F= -.85873156E+03 E0= -.85873156E+03  d E =-.481555E-04  mag=    -0.0000
       N       E                     dE             d eps       ncg     rms          rms(c)
DAV:   1    -0.850778700648E+03   -0.65984E-04   -0.18845E-02  4720   0.270E-01    0.273E-02
DAV:   2    -0.850778729736E+03   -0.29088E-04   -0.39810E-04  4640   0.369E-02    0.191E-02
DAV:   3    -0.850778730312E+03   -0.57552E-06   -0.53951E-06  5340   0.483E-03
 257 F= -.85873162E+03 E0= -.85873162E+03  d E =-.593931E-04  mag=     0.0000
       N       E                     dE             d eps       ncg     rms          rms(c)
DAV:   1    -0.850778806382E+03   -0.76645E-04   -0.25555E-02  4720   0.315E-01    0.319E-02
DAV:   2    -0.850778845705E+03   -0.39323E-04   -0.53915E-04  4640   0.431E-02    0.222E-02
DAV:   3    -0.850778846490E+03   -0.78494E-06   -0.72952E-06  5400   0.558E-03
 258 F= -.85873169E+03 E0= -.85873169E+03  d E =-.736007E-04  mag=    -0.0000
