unknown system                          
           1
    17.271038    0.000000    0.000000
    -8.635519   14.957158    0.000000
     0.000000    0.000000   15.000000
   C    F    H    O 
    88     8     2     1
Direct configuration=     1
   0.00258806  0.00130071  0.50396496
   0.00184122  0.14359245  0.50134379
   0.00131528  0.28612300  0.49950472
   0.00147400  0.42916021  0.49583299
   0.00209370  0.57237368  0.49379594
   0.00308815  0.71558279  0.49654210
   0.00341230  0.85895628  0.50118102
   0.14559987  0.00164205  0.50929135
   0.14510390  0.14431724  0.51326439
   0.14321235  0.28568357  0.51772768
   0.14283752  0.42848607  0.51331045
   0.14430093  0.57177399  0.50622999
   0.14508269  0.71507210  0.50484306
   0.14542781  0.85835402  0.50517867
   0.28776879  0.00099855  0.50883149
   0.28802408  0.14418534  0.51856835
   0.28594553  0.28638854  0.54329396
   0.27934575  0.42604082  0.55560858
   0.28540266  0.57037534  0.52914668
   0.28713321  0.71506767  0.51602363
   0.28762594  0.85809496  0.50865703
   0.43045613  0.00076331  0.50509583
   0.43010873  0.14325202  0.50254443
   0.42879387  0.28152525  0.51887242
   0.42644770  0.71679240  0.50382969
   0.43020596  0.85806333  0.51233380
   0.57308800  0.00083690  0.49995508
   0.57304230  0.14327015  0.49696831
   0.57277125  0.28533846  0.48254421
   0.57397005  0.85906438  0.51315863
   0.71626798  0.00107456  0.49737358
   0.71613138  0.14355115  0.49301491
   0.71605569  0.28610640  0.48856401
   0.71590534  0.42826137  0.47465254
   0.72164748  0.57501770  0.49117879
   0.72202088  0.71859446  0.48993600
   0.71688736  0.85920906  0.51013058
   0.85939929  0.00100940  0.49725510
   0.85889500  0.14355400  0.49358532
   0.85879660  0.28628723  0.49157980
   0.85898444  0.42934680  0.48872155
   0.85995119  0.57296306  0.48398439
   0.86169760  0.71657041  0.49357188
   0.86037357  0.85848708  0.50322056
   0.05005655  0.09661817  0.50539618
   0.04876564  0.23842964  0.50493963
   0.04836393  0.38118085  0.50160784
   0.04942073  0.52445126  0.49788448
   0.05006045  0.66763576  0.49778236
   0.05040621  0.81078558  0.50106816
   0.05046168  0.95391179  0.50516703
   0.19281781  0.09651458  0.51496010
   0.19173214  0.23910466  0.52277211
   0.18866021  0.38018586  0.52628361
   0.19071410  0.52340849  0.51472634
   0.19201571  0.66725080  0.51023334
   0.19267533  0.81049740  0.50653673
   0.19285161  0.95353798  0.50841108
   0.33536581  0.09646566  0.51044456
   0.33589914  0.23932421  0.53045846
   0.32068728  0.37444684  0.57356793
   0.32341849  0.52050751  0.56023352
   0.33435161  0.66685335  0.51847322
   0.33506772  0.81025999  0.51207471
   0.33517225  0.95325926  0.50744543
   0.47792450  0.09572574  0.50023253
   0.47726023  0.23827953  0.49788177
   0.47769230  0.81030815  0.51198870
   0.47812407  0.95333841  0.50668655
   0.62077343  0.09589603  0.49613843
   0.62087485  0.23847484  0.49130265
   0.62395709  0.37582801  0.45769902
   0.62610910  0.81937052  0.53156008
   0.62115782  0.95355742  0.50084187
   0.76381837  0.09618542  0.49380501
   0.76373043  0.23858657  0.49069125
   0.76365506  0.38123378  0.48610073
   0.76389252  0.52502398  0.47948708
   0.76655330  0.66908800  0.49112077
   0.76452606  0.81044770  0.50393887
   0.76408086  0.95377964  0.49847135
   0.90663777  0.09589995  0.49601926
   0.90632056  0.23866173  0.49392122
   0.90626422  0.38165785  0.49172684
   0.90699460  0.52494255  0.48735111
   0.90797417  0.66797359  0.49121529
   0.90827103  0.81138376  0.49887704
   0.90737326  0.95357183  0.50224123
   0.47743118  0.37099669  0.52926035
   0.39521934  0.41304719  0.62408698
   0.40624745  0.56455713  0.59579633
   0.63457305  0.67410326  0.46640146
   0.63359341  0.53291206  0.51219497
   0.58345446  0.41154361  0.40868182
   0.58811157  0.74205935  0.57843436
   0.46765726  0.67329044  0.47141905
   0.47986396  0.55964470  0.43956436
   0.49318001  0.47844660  0.44311557
   0.44851837  0.49541438  0.43010437
Direct configuration=     2
   0.00259094  0.00130373  0.50396557
   0.00184595  0.14359400  0.50134496
   0.00131319  0.28612194  0.49950906
   0.00147450  0.42916141  0.49583292
   0.00209205  0.57237383  0.49379767
   0.00308708  0.71558554  0.49654231
   0.00341153  0.85895481  0.50117982
   0.14559695  0.00164004  0.50929434
   0.14510407  0.14431753  0.51326625
   0.14320956  0.28568076  0.51773375
   0.14283762  0.42848679  0.51332158
   0.14430161  0.57177585  0.50623261
   0.14508276  0.71507223  0.50485281
   0.14542839  0.85835235  0.50518586
   0.28776599  0.00099860  0.50883395
   0.28802506  0.14418781  0.51857298
   0.28594551  0.28638734  0.54329950
   0.27934485  0.42603729  0.55561856
   0.28539961  0.57037467  0.52915904
   0.28713647  0.71506755  0.51603288
   0.28762743  0.85809316  0.50866724
   0.43045722  0.00076422  0.50510551
   0.43011337  0.14325282  0.50254833
   0.42879042  0.28152400  0.51887387
   0.42644651  0.71679164  0.50384480
   0.43020521  0.85806654  0.51234437
   0.57308631  0.00083506  0.49996714
   0.57304364  0.14327028  0.49697094
   0.57276878  0.28533300  0.48254563
   0.57397172  0.85906407  0.51316897
   0.71626532  0.00107222  0.49738039
   0.71613066  0.14354942  0.49301751
   0.71605777  0.28610854  0.48856232
   0.71591132  0.42826204  0.47464615
   0.72164188  0.57501721  0.49116079
   0.72201873  0.71859261  0.48992833
   0.71689026  0.85921236  0.51013168
   0.85939900  0.00101126  0.49725531
   0.85889456  0.14355487  0.49358439
   0.85879526  0.28628552  0.49157891
   0.85898238  0.42934458  0.48871799
   0.85995410  0.57296365  0.48397987
   0.86169940  0.71657198  0.49356854
   0.86037073  0.85848598  0.50321760
   0.05005753  0.09661818  0.50539643
   0.04876710  0.23843126  0.50494374
   0.04836375  0.38118367  0.50161288
   0.04941897  0.52445096  0.49788751
   0.05006211  0.66763289  0.49778168
   0.05040232  0.81078323  0.50106845
   0.05045967  0.95391070  0.50516774
   0.19281816  0.09651304  0.51495960
   0.19173604  0.23910681  0.52277750
   0.18866861  0.38019595  0.52629179
   0.19071585  0.52340804  0.51473823
   0.19201699  0.66725056  0.51024410
   0.19267298  0.81049694  0.50654788
   0.19285055  0.95353998  0.50841442
   0.33536557  0.09646748  0.51044942
   0.33590152  0.23932582  0.53046298
   0.32068632  0.37444575  0.57357308
   0.32341295  0.52050401  0.56024282
   0.33434669  0.66685067  0.51847862
   0.33506701  0.81026006  0.51208441
   0.33517240  0.95326077  0.50745396
   0.47792234  0.09572598  0.50023942
   0.47726186  0.23828108  0.49788235
   0.47769243  0.81030686  0.51200475
   0.47812392  0.95333747  0.50669806
   0.62077368  0.09589577  0.49614411
   0.62087176  0.23847335  0.49130170
   0.62396037  0.37583021  0.45769956
   0.62611108  0.81936662  0.53156290
   0.62115868  0.95355572  0.50085233
   0.76382016  0.09618550  0.49380869
   0.76372946  0.23858481  0.49069176
   0.76365631  0.38123385  0.48609562
   0.76389204  0.52501783  0.47947602
   0.76655640  0.66908931  0.49111212
   0.76452538  0.81044749  0.50393453
   0.76408388  0.95377751  0.49847396
   0.90663893  0.09589929  0.49601924
   0.90632012  0.23866083  0.49392149
   0.90626441  0.38165988  0.49172464
   0.90699763  0.52494277  0.48734817
   0.90797159  0.66796774  0.49121154
   0.90827045  0.81138477  0.49887426
   0.90737652  0.95356720  0.50224073
   0.47742979  0.37099532  0.52926581
   0.39521820  0.41304673  0.62409017
   0.40624440  0.56455760  0.59580604
   0.63457647  0.67410305  0.46639481
   0.63359504  0.53292667  0.51215527
   0.58346097  0.41156325  0.40869427
   0.58811748  0.74205453  0.57843619
   0.46765367  0.67328929  0.47142719
   0.47985507  0.55963436  0.43957118
   0.49316397  0.47844310  0.44310875
   0.44852839  0.49542467  0.42987102
Direct configuration=     3
   0.00259208  0.00130336  0.50396506
   0.00184802  0.14359612  0.50134652
   0.00131260  0.28612359  0.49951549
   0.00147499  0.42916283  0.49583376
   0.00209163  0.57237294  0.49379991
   0.00308590  0.71558139  0.49654204
   0.00340906  0.85895395  0.50117812
   0.14559378  0.00163830  0.50929852
   0.14510654  0.14431815  0.51326919
   0.14321302  0.28568580  0.51774416
   0.14283912  0.42848959  0.51333826
   0.14430213  0.57177617  0.50623798
   0.14508263  0.71507059  0.50486732
   0.14542682  0.85835146  0.50519648
   0.28776409  0.00100088  0.50883849
   0.28802659  0.14419046  0.51857918
   0.28594764  0.28638800  0.54330890
   0.27934625  0.42603770  0.55563272
   0.28539578  0.57037264  0.52917785
   0.28713749  0.71506674  0.51604700
   0.28762708  0.85809263  0.50868294
   0.43045705  0.00076525  0.50512034
   0.43011526  0.14325468  0.50255505
   0.42878902  0.28152280  0.51887607
   0.42644350  0.71678980  0.50386547
   0.43020446  0.85806720  0.51236116
   0.57308617  0.00083329  0.49998509
   0.57304343  0.14326971  0.49697535
   0.57276781  0.28533281  0.48254579
   0.57397389  0.85906140  0.51318415
   0.71626624  0.00107007  0.49739043
   0.71612947  0.14354779  0.49302097
   0.71605775  0.28610900  0.48855968
   0.71591568  0.42826032  0.47463558
   0.72164344  0.57501726  0.49113002
   0.72201993  0.71859287  0.48991681
   0.71689324  0.85921277  0.51013344
   0.85940264  0.00101032  0.49725578
   0.85889558  0.14355456  0.49358337
   0.85879499  0.28628536  0.49157751
   0.85898349  0.42934533  0.48871275
   0.85995480  0.57295981  0.48397248
   0.86169994  0.71657086  0.49356235
   0.86036873  0.85848337  0.50321282
   0.05006103  0.09662045  0.50539717
   0.04876800  0.23843211  0.50494997
   0.04836283  0.38118424  0.50162069
   0.04941870  0.52445225  0.49789185
   0.05006283  0.66763460  0.49778291
   0.05040070  0.81078263  0.50106954
   0.05045791  0.95390955  0.50516898
   0.19281790  0.09651229  0.51495980
   0.19173718  0.23910702  0.52278487
   0.18866833  0.38019315  0.52630409
   0.19071452  0.52340828  0.51475509
   0.19201955  0.66725194  0.51025991
   0.19267261  0.81049672  0.50656486
   0.19284772  0.95353920  0.50841971
   0.33536710  0.09646900  0.51045605
   0.33590205  0.23932696  0.53047034
   0.32068378  0.37444089  0.57358060
   0.32340612  0.52050014  0.56025772
   0.33434406  0.66684907  0.51848769
   0.33506805  0.81026033  0.51209940
   0.33517238  0.95326103  0.50746687
   0.47792362  0.09572593  0.50024963
   0.47726198  0.23828145  0.49788440
   0.47769201  0.81030677  0.51202869
   0.47812397  0.95333805  0.50671554
   0.62077315  0.09589372  0.49615297
   0.62087145  0.23847124  0.49130029
   0.62396323  0.37583214  0.45770033
   0.62611388  0.81936306  0.53156676
   0.62115694  0.95355280  0.50086710
   0.76381986  0.09618363  0.49381411
   0.76372797  0.23858305  0.49069229
   0.76365859  0.38123246  0.48608785
   0.76389185  0.52501655  0.47945980
   0.76655954  0.66909096  0.49109769
   0.76452307  0.81044602  0.50392757
   0.76408675  0.95378045  0.49847630
   0.90664206  0.09590092  0.49601918
   0.90631912  0.23866018  0.49392181
   0.90626381  0.38165901  0.49172238
   0.90699863  0.52494163  0.48734368
   0.90797072  0.66796598  0.49120618
   0.90826979  0.81138435  0.49886991
   0.90737744  0.95356709  0.50223952
   0.47742831  0.37099490  0.52927507
   0.39521853  0.41304748  0.62409634
   0.40624464  0.56455880  0.59581998
   0.63457879  0.67410179  0.46638295
   0.63359232  0.53294653  0.51209350
   0.58347063  0.41158753  0.40871344
   0.58812478  0.74204719  0.57844097
   0.46764846  0.67328728  0.47144013
   0.47983360  0.55960843  0.43957855
   0.49312233  0.47843999  0.44309249
   0.44856666  0.49544916  0.42953429
Direct configuration=     4
   0.00259151  0.00130109  0.50396357
   0.00184831  0.14359883  0.50134868
   0.00131369  0.28612681  0.49952390
   0.00147487  0.42916387  0.49583593
   0.00209322  0.57237263  0.49380237
   0.00308490  0.71557364  0.49654113
   0.00340583  0.85895374  0.50117611
   0.14559141  0.00163768  0.50930372
   0.14511084  0.14431978  0.51327334
   0.14322009  0.28569393  0.51775869
   0.14284005  0.42849051  0.51335927
   0.14430234  0.57177580  0.50624764
   0.14508285  0.71506880  0.50488678
   0.14542293  0.85835122  0.50521054
   0.28776365  0.00100396  0.50884612
   0.28802744  0.14419161  0.51858704
   0.28594875  0.28638756  0.54331933
   0.27934824  0.42603976  0.55565068
   0.28539167  0.57037061  0.52920299
   0.28713440  0.71506328  0.51606561
   0.28762521  0.85809396  0.50870483
   0.43045576  0.00076597  0.50514080
   0.43011327  0.14325608  0.50256390
   0.42879013  0.28152256  0.51888041
   0.42644163  0.71678948  0.50389007
   0.43020482  0.85806550  0.51238525
   0.57308737  0.00083176  0.50000899
   0.57304223  0.14326795  0.49698198
   0.57276934  0.28533877  0.48254472
   0.57397479  0.85905597  0.51320470
   0.71626965  0.00106915  0.49740347
   0.71612824  0.14354611  0.49302575
   0.71605544  0.28610631  0.48855596
   0.71591748  0.42825636  0.47462053
   0.72165282  0.57502189  0.49108545
   0.72202371  0.71859434  0.48989986
   0.71689545  0.85921087  0.51013519
   0.85940952  0.00100881  0.49725619
   0.85889745  0.14355275  0.49358264
   0.85879493  0.28628603  0.49157560
   0.85898772  0.42934756  0.48870537
   0.85995280  0.57295376  0.48396184
   0.86170140  0.71656912  0.49355319
   0.86036824  0.85848053  0.50320584
   0.05006565  0.09662381  0.50539857
   0.04876901  0.23843406  0.50495872
   0.04836283  0.38118406  0.50163178
   0.04942056  0.52445498  0.49789733
   0.05006242  0.66763834  0.49778701
   0.05040089  0.81078270  0.50107191
   0.05045649  0.95390839  0.50517083
   0.19281812  0.09651286  0.51496176
   0.19173604  0.23910624  0.52279470
   0.18866338  0.38018765  0.52632002
   0.19070976  0.52341027  0.51477552
   0.19202187  0.66725422  0.51027917
   0.19267304  0.81049481  0.50658540
   0.19284394  0.95353633  0.50842750
   0.33536991  0.09647086  0.51046481
   0.33590100  0.23932736  0.53048102
   0.32068035  0.37443510  0.57359199
   0.32340027  0.52049786  0.56027971
   0.33434315  0.66684745  0.51850272
   0.33506983  0.81026037  0.51212037
   0.33517122  0.95326066  0.50748449
   0.47792761  0.09572634  0.50026343
   0.47726088  0.23828133  0.49788870
   0.47769113  0.81030702  0.51206026
   0.47812388  0.95334006  0.50673961
   0.62077179  0.09589029  0.49616540
   0.62087370  0.23847013  0.49129834
   0.62396443  0.37583448  0.45770075
   0.62611637  0.81935939  0.53157186
   0.62115355  0.95354848  0.50088541
   0.76381777  0.09618033  0.49382116
   0.76372649  0.23858207  0.49069253
   0.76366202  0.38123060  0.48607702
   0.76389322  0.52501974  0.47943864
   0.76656305  0.66909264  0.49107541
   0.76452100  0.81044405  0.50391760
   0.76408941  0.95378603  0.49847887
   0.90664633  0.09590378  0.49601909
   0.90631817  0.23866045  0.49392220
   0.90626330  0.38165636  0.49171988
   0.90699515  0.52493917  0.48733718
   0.90797169  0.66796702  0.49119879
   0.90826848  0.81138188  0.49886371
   0.90737613  0.95357021  0.50223742
   0.47742679  0.37099586  0.52928936
   0.39522137  0.41305014  0.62410650
   0.40624760  0.56455990  0.59583789
   0.63458029  0.67410046  0.46636430
   0.63358754  0.53296478  0.51200503
   0.58348385  0.41160942  0.40874173
   0.58813444  0.74203820  0.57844766
   0.46764129  0.67328468  0.47145923
   0.47979673  0.55956709  0.43958503
   0.49305390  0.47843359  0.44306523
   0.44863610  0.49548720  0.42910260
Direct configuration=     5
   0.00259058  0.00130096  0.50396152
   0.00185026  0.14360264  0.50135194
   0.00131500  0.28612874  0.49953416
   0.00147466  0.42916379  0.49584000
   0.00209476  0.57237411  0.49380469
   0.00308347  0.71557252  0.49653959
   0.00340369  0.85895271  0.50117405
   0.14559034  0.00163803  0.50931002
   0.14511448  0.14432227  0.51327894
   0.14322332  0.28569628  0.51777668
   0.14283748  0.42848822  0.51338451
   0.14430194  0.57177706  0.50626309
   0.14508547  0.71507220  0.50491036
   0.14541858  0.85834966  0.50522816
   0.28776786  0.00100685  0.50885798
   0.28802693  0.14419079  0.51859722
   0.28594672  0.28638417  0.54333162
   0.27934785  0.42603930  0.55567228
   0.28538633  0.57036849  0.52923322
   0.28713062  0.71506043  0.51608977
   0.28762361  0.85809530  0.50873379
   0.43045446  0.00076599  0.50516757
   0.43011148  0.14325733  0.50257406
   0.42879132  0.28152340  0.51888976
   0.42644124  0.71679049  0.50391906
   0.43020631  0.85806393  0.51241793
   0.57308782  0.00082950  0.50003894
   0.57304216  0.14326562  0.49699141
   0.57277217  0.28534552  0.48254439
   0.57397262  0.85905120  0.51322932
   0.71627077  0.00106876  0.49741914
   0.71612709  0.14354395  0.49303239
   0.71605314  0.28610148  0.48855079
   0.71591943  0.42825275  0.47460119
   0.72166383  0.57503223  0.49102381
   0.72202644  0.71859419  0.48987424
   0.71689662  0.85920973  0.51013552
   0.85941530  0.00101074  0.49725590
   0.85889739  0.14355039  0.49358393
   0.85879339  0.28628514  0.49157309
   0.85899195  0.42934729  0.48869507
   0.85995081  0.57295230  0.48394868
   0.86170378  0.71656792  0.49353986
   0.86036867  0.85847916  0.50319595
   0.05006657  0.09662572  0.50539960
   0.04877169  0.23843898  0.50497059
   0.04836473  0.38118564  0.50164661
   0.04942279  0.52445711  0.49790385
   0.05006197  0.66763738  0.49779349
   0.05039947  0.81078068  0.50107598
   0.05045485  0.95390707  0.50517328
   0.19281985  0.09651397  0.51496667
   0.19173539  0.23910652  0.52280802
   0.18866029  0.38018788  0.52634201
   0.19070431  0.52341034  0.51479989
   0.19202130  0.66725518  0.51030088
   0.19267202  0.81049203  0.50661036
   0.19284120  0.95353449  0.50843872
   0.33537123  0.09647257  0.51047653
   0.33590055  0.23932628  0.53049389
   0.32067671  0.37443177  0.57360925
   0.32339640  0.52049781  0.56031010
   0.33434145  0.66684447  0.51852629
   0.33506956  0.81025907  0.51214841
   0.33516838  0.95326133  0.50750758
   0.47792859  0.09572468  0.50027812
   0.47726066  0.23828271  0.49789598
   0.47769062  0.81030548  0.51209905
   0.47812312  0.95334128  0.50677132
   0.62077012  0.09588706  0.49618042
   0.62087483  0.23847111  0.49129591
   0.62396480  0.37583764  0.45770165
   0.62611917  0.81935309  0.53157967
   0.62115264  0.95354351  0.50090718
   0.76381631  0.09617763  0.49382969
   0.76372528  0.23858099  0.49069208
   0.76366562  0.38122925  0.48606225
   0.76389597  0.52502097  0.47940964
   0.76656915  0.66909571  0.49104202
   0.76452234  0.81044247  0.50390527
   0.76409193  0.95378606  0.49848404
   0.90665011  0.09590503  0.49601894
   0.90631802  0.23866100  0.49392275
   0.90626475  0.38165498  0.49171674
   0.90699466  0.52493729  0.48732946
   0.90797296  0.66796550  0.49118834
   0.90826774  0.81138124  0.49885671
   0.90737478  0.95357112  0.50223420
   0.47742533  0.37099822  0.52931080
   0.39522666  0.41305462  0.62412177
   0.40625287  0.56455990  0.59585983
   0.63458572  0.67410147  0.46633861
   0.63359383  0.53298505  0.51188423
   0.58349067  0.41162235  0.40877124
   0.58814787  0.74203360  0.57845539
   0.46763213  0.67328136  0.47148598
   0.47974519  0.55951741  0.43959042
   0.49297167  0.47841466  0.44302970
   0.44872259  0.49554402  0.42857580
Direct configuration=     6
   0.00259135  0.00130429  0.50396079
   0.00185525  0.14360788  0.50135648
   0.00131583  0.28612945  0.49954624
   0.00147611  0.42916546  0.49584497
   0.00209502  0.57237609  0.49380667
   0.00308307  0.71557723  0.49653773
   0.00340379  0.85895113  0.50117243
   0.14559054  0.00163867  0.50931765
   0.14511490  0.14432419  0.51328625
   0.14322048  0.28569289  0.51779845
   0.14283293  0.42848215  0.51341056
   0.14430096  0.57178041  0.50628370
   0.14508646  0.71507682  0.50493624
   0.14541618  0.85834668  0.50524946
   0.28776484  0.00100379  0.50887429
   0.28802595  0.14418909  0.51861054
   0.28594337  0.28638021  0.54334841
   0.27934615  0.42603766  0.55569557
   0.28538082  0.57036714  0.52926963
   0.28712862  0.71505944  0.51612067
   0.28762312  0.85809500  0.50877049
   0.43045132  0.00076388  0.50519961
   0.43011302  0.14325843  0.50258635
   0.42879081  0.28152504  0.51890676
   0.42643964  0.71679006  0.50395239
   0.43020553  0.85806295  0.51245961
   0.57308655  0.00082605  0.50007477
   0.57304340  0.14326448  0.49700376
   0.57277422  0.28534814  0.48254719
   0.57397012  0.85904711  0.51325885
   0.71626858  0.00106658  0.49743553
   0.71612629  0.14354157  0.49304128
   0.71605395  0.28609885  0.48854494
   0.71592470  0.42825229  0.47457763
   0.72167476  0.57504498  0.49094427
   0.72202851  0.71859351  0.48983743
   0.71689772  0.85920924  0.51013340
   0.85941643  0.00101529  0.49725453
   0.85889604  0.14354922  0.49358727
   0.85879269  0.28628337  0.49157144
   0.85899442  0.42934396  0.48868098
   0.85995156  0.57295493  0.48393214
   0.86170788  0.71656884  0.49352243
   0.86036961  0.85848024  0.50318268
   0.05006487  0.09662624  0.50540074
   0.04877575  0.23844522  0.50498590
   0.04836616  0.38118793  0.50166521
   0.04942320  0.52445712  0.49791160
   0.05006314  0.66763423  0.49780320
   0.05039541  0.81077736  0.50108213
   0.05045338  0.95390649  0.50517620
   0.19282201  0.09651510  0.51497537
   0.19173622  0.23910761  0.52282532
   0.18866124  0.38019368  0.52637131
   0.19069978  0.52340746  0.51482958
   0.19201756  0.66725458  0.51032597
   0.19266977  0.81049225  0.50664082
   0.19284213  0.95353580  0.50845420
   0.33537059  0.09647379  0.51049182
   0.33590134  0.23932392  0.53050967
   0.32067158  0.37443002  0.57363124
   0.32339366  0.52049928  0.56034733
   0.33433693  0.66683992  0.51855771
   0.33506468  0.81025798  0.51218262
   0.33516628  0.95326303  0.50753714
   0.47792520  0.09572271  0.50029478
   0.47726304  0.23828514  0.49790649
   0.47769414  0.81030471  0.51214192
   0.47811979  0.95333763  0.50681159
   0.62076945  0.09588470  0.49619877
   0.62087241  0.23847280  0.49129345
   0.62396565  0.37584095  0.45770414
   0.62612215  0.81934602  0.53158957
   0.62115453  0.95353889  0.50093371
   0.76381666  0.09617683  0.49383977
   0.76372406  0.23857793  0.49069060
   0.76366663  0.38122790  0.48604376
   0.76390190  0.52501874  0.47937120
   0.76658057  0.66910349  0.49099536
   0.76452472  0.81044172  0.50389057
   0.76409467  0.95378132  0.49849159
   0.90665267  0.09590521  0.49601889
   0.90631850  0.23866047  0.49392370
   0.90626823  0.38165528  0.49171246
   0.90699883  0.52493874  0.48732192
   0.90797357  0.66796152  0.49117401
   0.90826921  0.81138370  0.49884964
   0.90737574  0.95356854  0.50222932
   0.47742432  0.37100270  0.52934170
   0.39523392  0.41306114  0.62414289
   0.40625771  0.56455562  0.59588539
   0.63459454  0.67410770  0.46630638
   0.63360943  0.53300476  0.51172545
   0.58348736  0.41162626  0.40880137
   0.58816515  0.74203068  0.57845796
   0.46762193  0.67327692  0.47152168
   0.47968302  0.55947256  0.43959522
   0.49288252  0.47837698  0.44298644
   0.44882013  0.49561436  0.42795663
Direct configuration=     7
   0.00259293  0.00130760  0.50396131
   0.00186114  0.14361356  0.50136289
   0.00131630  0.28613114  0.49956203
   0.00148117  0.42916928  0.49585232
   0.00209530  0.57237635  0.49380898
   0.00308581  0.71557610  0.49653604
   0.00340599  0.85895180  0.50117197
   0.14559175  0.00163955  0.50932858
   0.14511146  0.14432443  0.51329544
   0.14321744  0.28569249  0.51782954
   0.14282970  0.42847919  0.51344252
   0.14429853  0.57178178  0.50631371
   0.14508298  0.71507837  0.50496621
   0.14541748  0.85834379  0.50527774
   0.28776209  0.00100441  0.50889831
   0.28802925  0.14418752  0.51863017
   0.28594278  0.28637947  0.54337662
   0.27934706  0.42604044  0.55572719
   0.28537563  0.57036551  0.52931980
   0.28712627  0.71505860  0.51616434
   0.28761996  0.85809592  0.50881606
   0.43044693  0.00076050  0.50524240
   0.43011644  0.14325984  0.50260442
   0.42879265  0.28152783  0.51893588
   0.42642964  0.71678181  0.50399722
   0.43020076  0.85806004  0.51251791
   0.57308391  0.00082071  0.50012147
   0.57304325  0.14326526  0.49702110
   0.57277243  0.28534177  0.48255570
   0.57397286  0.85904291  0.51329845
   0.71626702  0.00106105  0.49745472
   0.71612661  0.14353891  0.49305209
   0.71605633  0.28609986  0.48853642
   0.71593371  0.42825532  0.47454541
   0.72169634  0.57505982  0.49082612
   0.72203541  0.71859827  0.48978083
   0.71689968  0.85920587  0.51012770
   0.85941430  0.00101725  0.49725181
   0.85889710  0.14354985  0.49359130
   0.85879467  0.28628145  0.49156985
   0.85899598  0.42934105  0.48865991
   0.85995806  0.57295646  0.48390820
   0.86171770  0.71657562  0.49349565
   0.86037144  0.85848297  0.50316353
   0.05006459  0.09662873  0.50540331
   0.04877861  0.23844894  0.50500692
   0.04836334  0.38118702  0.50168967
   0.04941679  0.52445296  0.49792121
   0.05006593  0.66763641  0.49781817
   0.05039245  0.81077631  0.50109187
   0.05045435  0.95390830  0.50518007
   0.19282166  0.09651582  0.51499024
   0.19173599  0.23910694  0.52284933
   0.18865992  0.38019425  0.52640864
   0.19069446  0.52340574  0.51486611
   0.19201364  0.66725580  0.51035979
   0.19266798  0.81049697  0.50668064
   0.19284320  0.95353670  0.50847731
   0.33536786  0.09647500  0.51051252
   0.33590222  0.23932144  0.53053303
   0.32066526  0.37442618  0.57366292
   0.32338740  0.52049869  0.56039534
   0.33433370  0.66684189  0.51859990
   0.33505874  0.81025728  0.51223049
   0.33516469  0.95326330  0.50757749
   0.47792089  0.09572084  0.50031729
   0.47726832  0.23829074  0.49792451
   0.47769821  0.81030532  0.51219260
   0.47811628  0.95333063  0.50686312
   0.62076960  0.09588210  0.49622436
   0.62086876  0.23847230  0.49129190
   0.62396747  0.37584275  0.45771012
   0.62612693  0.81934275  0.53159982
   0.62115617  0.95353557  0.50097028
   0.76381733  0.09617611  0.49385302
   0.76372359  0.23857291  0.49068774
   0.76366755  0.38122401  0.48601965
   0.76391191  0.52502028  0.47931909
   0.76659704  0.66911882  0.49092496
   0.76452672  0.81044003  0.50386826
   0.76409722  0.95378046  0.49849907
   0.90665487  0.09590813  0.49601931
   0.90631952  0.23865830  0.49392583
   0.90627190  0.38165558  0.49170746
   0.90700485  0.52494232  0.48731257
   0.90797517  0.66796098  0.49115292
   0.90827377  0.81138440  0.49883978
   0.90737974  0.95356760  0.50222100
   0.47742569  0.37100915  0.52938012
   0.39524204  0.41307074  0.62417389
   0.40625906  0.56454514  0.59592060
   0.63460011  0.67411774  0.46626336
   0.63361488  0.53302417  0.51150218
   0.58346837  0.41161655  0.40883179
   0.58818139  0.74202271  0.57845969
   0.46761068  0.67326916  0.47157343
   0.47960194  0.55943294  0.43959888
   0.49276593  0.47831371  0.44292379
   0.44895063  0.49569697  0.42717800
Direct configuration=     8
   0.00259601  0.00130813  0.50396212
   0.00186227  0.14361646  0.50137117
   0.00131568  0.28613190  0.49958308
   0.00148355  0.42916891  0.49586311
   0.00209556  0.57237466  0.49381003
   0.00308755  0.71557368  0.49653516
   0.00341089  0.85895746  0.50117369
   0.14559166  0.00164107  0.50934064
   0.14510918  0.14432359  0.51330871
   0.14322062  0.28569861  0.51787407
   0.14282884  0.42848222  0.51348429
   0.14429082  0.57177805  0.50635284
   0.14508277  0.71507997  0.50500133
   0.14541409  0.85834659  0.50531328
   0.28776264  0.00101033  0.50893415
   0.28802751  0.14418785  0.51865908
   0.28594574  0.28638026  0.54342034
   0.27934777  0.42604208  0.55576956
   0.28537081  0.57036594  0.52938798
   0.28711949  0.71505929  0.51622530
   0.28761445  0.85809862  0.50887477
   0.43044619  0.00076119  0.50529486
   0.43011632  0.14326250  0.50263129
   0.42879833  0.28153146  0.51897972
   0.42642563  0.71678276  0.50405997
   0.43019437  0.85805232  0.51259728
   0.57308212  0.00081472  0.50018174
   0.57303990  0.14326398  0.49704455
   0.57277476  0.28534159  0.48257102
   0.57398040  0.85904033  0.51335024
   0.71627105  0.00105792  0.49747574
   0.71612676  0.14353412  0.49306616
   0.71605614  0.28609877  0.48852327
   0.71593944  0.42826067  0.47450384
   0.72172775  0.57507943  0.49065536
   0.72204654  0.71860940  0.48969749
   0.71690493  0.85920582  0.51011818
   0.85941627  0.00101519  0.49724734
   0.85890048  0.14355061  0.49359607
   0.85879915  0.28627950  0.49156719
   0.85900102  0.42933958  0.48863491
   0.85997218  0.57295797  0.48387592
   0.86173439  0.71658860  0.49345405
   0.86037631  0.85848345  0.50313674
   0.05006728  0.09663350  0.50540829
   0.04878023  0.23844946  0.50503279
   0.04835828  0.38118391  0.50171834
   0.04941774  0.52445294  0.49793407
   0.05006797  0.66764156  0.49783840
   0.05039756  0.81077804  0.50110609
   0.05045946  0.95391321  0.50518491
   0.19281951  0.09651626  0.51501230
   0.19173243  0.23910414  0.52288186
   0.18865240  0.38018481  0.52645251
   0.19068935  0.52340597  0.51491364
   0.19201099  0.66725850  0.51040670
   0.19266712  0.81049976  0.50673275
   0.19284157  0.95353395  0.50851024
   0.33536983  0.09647506  0.51053977
   0.33590494  0.23932237  0.53056799
   0.32066344  0.37442476  0.57370784
   0.32337297  0.52049344  0.56045449
   0.33432581  0.66684510  0.51865774
   0.33505252  0.81025557  0.51229631
   0.33516121  0.95326139  0.50763042
   0.47792075  0.09571863  0.50034900
   0.47727251  0.23829613  0.49795414
   0.47768966  0.81029911  0.51224803
   0.47811660  0.95333200  0.50693081
   0.62076331  0.09587967  0.49625953
   0.62086926  0.23846627  0.49129254
   0.62396609  0.37583749  0.45771820
   0.62613763  0.81934211  0.53161105
   0.62115154  0.95353131  0.50102122
   0.76381707  0.09617109  0.49387012
   0.76372608  0.23857074  0.49068314
   0.76367308  0.38122129  0.48598720
   0.76393224  0.52502868  0.47924390
   0.76661537  0.66913591  0.49082058
   0.76452992  0.81043958  0.50383310
   0.76409631  0.95378210  0.49850522
   0.90665757  0.09591349  0.49602068
   0.90632221  0.23865671  0.49393027
   0.90627443  0.38165538  0.49170248