  97  97   0   0
  0.3994726E+02  0.1727104E-08  0.1727104E-08  0.1500000E-08  0.0000000E+00
  1.000000000000000E-004
  CAR 
 unknown system                          
      5.78210796    -25.24827831  301     -2.49661927      1.00000000
    -25.248  0.0000E+00  0.0000E+00  0.0000E+00  0.0000E+00
    -25.145  0.0000E+00  0.0000E+00  0.0000E+00  0.0000E+00
    -25.041  0.0000E+00  0.0000E+00  0.0000E+00  0.0000E+00
    -24.938  0.0000E+00  0.0000E+00  0.0000E+00  0.0000E+00
    -24.835  0.0000E+00  0.0000E+00  0.0000E+00  0.0000E+00
    -24.731  0.0000E+00  0.0000E+00  0.0000E+00  0.0000E+00
    -24.628  0.0000E+00  0.0000E+00  0.0000E+00  0.0000E+00
    -24.524  0.0000E+00  0.0000E+00  0.0000E+00  0.0000E+00
    -24.421  0.0000E+00  0.0000E+00  0.0000E+00  0.0000E+00
    -24.317  0.0000E+00  0.0000E+00  0.0000E+00  0.0000E+00
    -24.214  0.0000E+00  0.0000E+00  0.0000E+00  0.0000E+00
    -24.110  0.1972E-15  0.1972E-15  0.2040E-16  0.2040E-16
    -24.007  0.2715E-07  0.2715E-07  0.2808E-08  0.2808E-08
    -23.904  0.1008E-02  0.1008E-02  0.1043E-03  0.1043E-03
    -23.800  0.2658E-01  0.2658E-01  0.2854E-02  0.2854E-02
    -23.697  0.4635E-02  0.4635E-02  0.3333E-02  0.3333E-02
    -23.593  0.1070E-05  0.1070E-05  0.3333E-02  0.3333E-02
    -23.490  0.7574E-13  0.7574E-13  0.3333E-02  0.3333E-02
    -23.386  0.0000E+00  0.0000E+00  0.3333E-02  0.3333E-02
    -23.283  0.0000E+00  0.0000E+00  0.3333E-02  0.3333E-02
    -23.180  0.0000E+00  0.0000E+00  0.3333E-02  0.3333E-02
    -23.076  0.0000E+00  0.0000E+00  0.3333E-02  0.3333E-02
    -22.973  0.0000E+00  0.0000E+00  0.3333E-02  0.3333E-02
    -22.869  0.0000E+00  0.0000E+00  0.3333E-02  0.3333E-02
    -22.766  0.0000E+00  0.0000E+00  0.3333E-02  0.3333E-02
    -22.662  0.0000E+00  0.0000E+00  0.3333E-02  0.3333E-02
    -22.559  0.1004E-10  0.1004E-10  0.3333E-02  0.3333E-02
    -22.456  0.1731E-04  0.1731E-04  0.3335E-02  0.3335E-02
    -22.352  0.1311E-01  0.1311E-01  0.4691E-02  0.4691E-02
    -22.249  0.4769E-01  0.4769E-01  0.9624E-02  0.9624E-02
    -22.145  0.3636E-02  0.3636E-02  0.1000E-01  0.1000E-01
    -22.042  0.5334E-06  0.5334E-06  0.1000E-01  0.1000E-01
    -21.938  0.1306E-09  0.1306E-09  0.1000E-01  0.1000E-01
    -21.835  0.3816E-04  0.3816E-04  0.1000E-01  0.1000E-01
    -21.732  0.7121E-02  0.7121E-02  0.1074E-01  0.1074E-01
    -21.628  0.3172E-01  0.3172E-01  0.1402E-01  0.1402E-01
    -21.525  0.1311E-01  0.1311E-01  0.1538E-01  0.1538E-01
    -21.421  0.1297E-01  0.1297E-01  0.1672E-01  0.1672E-01
    -21.318  0.3289E-01  0.3289E-01  0.2012E-01  0.2012E-01
    -21.214  0.1287E-01  0.1287E-01  0.2145E-01  0.2145E-01
    -21.111  0.2486E-01  0.2486E-01  0.2402E-01  0.2402E-01
    -21.007  0.7789E-02  0.7789E-02  0.2483E-01  0.2483E-01
    -20.904  0.4252E-01  0.4252E-01  0.2923E-01  0.2923E-01
    -20.801  0.2699E-01  0.2699E-01  0.3202E-01  0.3202E-01
    -20.697  0.4701E-02  0.4701E-02  0.3250E-01  0.3250E-01
    -20.594  0.9811E-02  0.9811E-02  0.3352E-01  0.3352E-01
    -20.490  0.1807E-01  0.1807E-01  0.3539E-01  0.3539E-01
    -20.387  0.3015E-01  0.3015E-01  0.3851E-01  0.3851E-01
    -20.283  0.4814E-01  0.4814E-01  0.4349E-01  0.4349E-01
    -20.180  0.1527E-01  0.1527E-01  0.4507E-01  0.4507E-01
    -20.077  0.2012E-01  0.2012E-01  0.4715E-01  0.4715E-01
    -19.973  0.1361E-01  0.1361E-01  0.4855E-01  0.4855E-01
    -19.870  0.1781E-01  0.1781E-01  0.5040E-01  0.5040E-01
    -19.766  0.1517E-01  0.1517E-01  0.5197E-01  0.5197E-01
    -19.663  0.2998E-01  0.2998E-01  0.5507E-01  0.5507E-01
    -19.559  0.3766E-01  0.3766E-01  0.5896E-01  0.5896E-01
    -19.456  0.3290E-01  0.3290E-01  0.6237E-01  0.6237E-01
    -19.353  0.1736E-01  0.1736E-01  0.6416E-01  0.6416E-01
    -19.249  0.2123E-01  0.2123E-01  0.6636E-01  0.6636E-01
    -19.146  0.4182E-02  0.4182E-02  0.6679E-01  0.6679E-01
    -19.042  0.2294E-01  0.2294E-01  0.6916E-01  0.6916E-01
    -18.939  0.2720E-01  0.2720E-01  0.7198E-01  0.7198E-01
    -18.835  0.2211E-01  0.2211E-01  0.7426E-01  0.7426E-01
    -18.732  0.1604E-01  0.1604E-01  0.7592E-01  0.7592E-01
    -18.628  0.3664E-01  0.3664E-01  0.7971E-01  0.7971E-01
    -18.525  0.3956E-01  0.3956E-01  0.8380E-01  0.8380E-01
    -18.422  0.2526E-01  0.2526E-01  0.8642E-01  0.8642E-01
    -18.318  0.1942E-01  0.1942E-01  0.8842E-01  0.8842E-01
    -18.215  0.2410E-01  0.2410E-01  0.9092E-01  0.9092E-01
    -18.111  0.1641E-01  0.1641E-01  0.9261E-01  0.9261E-01
    -18.008  0.3209E-01  0.3209E-01  0.9593E-01  0.9593E-01
    -17.904  0.1598E-01  0.1598E-01  0.9759E-01  0.9759E-01
    -17.801  0.1194E-01  0.1194E-01  0.9882E-01  0.9882E-01
    -17.698  0.1954E-01  0.1954E-01  0.1008E+00  0.1008E+00
    -17.594  0.2200E-01  0.2200E-01  0.1031E+00  0.1031E+00
    -17.491  0.5420E-01  0.5420E-01  0.1087E+00  0.1087E+00
    -17.387  0.3025E-01  0.3025E-01  0.1119E+00  0.1119E+00
    -17.284  0.4000E-01  0.4000E-01  0.1160E+00  0.1160E+00
    -17.180  0.2871E-01  0.2871E-01  0.1190E+00  0.1190E+00
    -17.077  0.9359E-02  0.9359E-02  0.1199E+00  0.1199E+00
    -16.974  0.2955E-01  0.2955E-01  0.1230E+00  0.1230E+00
    -16.870  0.4020E-01  0.4020E-01  0.1271E+00  0.1271E+00
    -16.767  0.4009E-02  0.4009E-02  0.1276E+00  0.1276E+00
    -16.663  0.1034E-01  0.1034E-01  0.1286E+00  0.1286E+00
    -16.560  0.2205E-01  0.2205E-01  0.1309E+00  0.1309E+00
    -16.456  0.4213E-01  0.4213E-01  0.1353E+00  0.1353E+00
    -16.353  0.6367E-01  0.6367E-01  0.1419E+00  0.1419E+00
    -16.249  0.1426E-01  0.1426E-01  0.1433E+00  0.1433E+00
    -16.146  0.1896E-03  0.1896E-03  0.1433E+00  0.1433E+00
    -16.043  0.6277E-02  0.6277E-02  0.1440E+00  0.1440E+00
    -15.939  0.9270E-02  0.9270E-02  0.1450E+00  0.1450E+00
    -15.836  0.2251E-01  0.2251E-01  0.1473E+00  0.1473E+00
    -15.732  0.6467E-02  0.6467E-02  0.1480E+00  0.1480E+00
    -15.629  0.3948E-02  0.3948E-02  0.1484E+00  0.1484E+00
    -15.525  0.1987E-01  0.1987E-01  0.1504E+00  0.1504E+00
    -15.422  0.2947E-01  0.2947E-01  0.1535E+00  0.1535E+00
    -15.319  0.2092E-01  0.2092E-01  0.1556E+00  0.1556E+00
    -15.215  0.2740E-01  0.2740E-01  0.1585E+00  0.1585E+00
    -15.112  0.2042E-01  0.2042E-01  0.1606E+00  0.1606E+00
    -15.008  0.3507E-01  0.3507E-01  0.1642E+00  0.1642E+00
    -14.905  0.4032E-01  0.4032E-01  0.1684E+00  0.1684E+00
    -14.801  0.2320E-01  0.2320E-01  0.1708E+00  0.1708E+00
    -14.698  0.2009E-01  0.2009E-01  0.1728E+00  0.1728E+00
    -14.595  0.3587E-01  0.3587E-01  0.1766E+00  0.1766E+00
    -14.491  0.3278E-01  0.3278E-01  0.1800E+00  0.1800E+00
    -14.388  0.1957E-01  0.1957E-01  0.1820E+00  0.1820E+00
    -14.284  0.3618E-01  0.3618E-01  0.1857E+00  0.1857E+00
    -14.181  0.3753E-01  0.3753E-01  0.1896E+00  0.1896E+00
    -14.077  0.2994E-01  0.2994E-01  0.1927E+00  0.1927E+00
    -13.974  0.1284E-01  0.1284E-01  0.1940E+00  0.1940E+00
    -13.870  0.1760E-01  0.1760E-01  0.1958E+00  0.1958E+00
    -13.767  0.1138E-01  0.1138E-01  0.1970E+00  0.1970E+00
    -13.664  0.2593E-01  0.2593E-01  0.1997E+00  0.1997E+00
    -13.560  0.2240E-01  0.2240E-01  0.2020E+00  0.2020E+00
    -13.457  0.3170E-01  0.3170E-01  0.2053E+00  0.2053E+00
    -13.353  0.3440E-01  0.3440E-01  0.2089E+00  0.2089E+00
    -13.250  0.2681E-01  0.2681E-01  0.2116E+00  0.2116E+00
    -13.146  0.1390E-01  0.1390E-01  0.2131E+00  0.2131E+00
    -13.043  0.1797E-01  0.1797E-01  0.2149E+00  0.2149E+00
    -12.940  0.1177E-02  0.1177E-02  0.2150E+00  0.2150E+00
    -12.836  0.2770E-01  0.2770E-01  0.2179E+00  0.2179E+00
    -12.733  0.1559E-01  0.1559E-01  0.2195E+00  0.2195E+00
    -12.629  0.3271E-01  0.3271E-01  0.2229E+00  0.2229E+00
    -12.526  0.4347E-01  0.4347E-01  0.2274E+00  0.2274E+00
    -12.422  0.4823E-01  0.4823E-01  0.2324E+00  0.2324E+00
    -12.319  0.3552E-01  0.3552E-01  0.2361E+00  0.2361E+00
    -12.216  0.2344E-01  0.2344E-01  0.2385E+00  0.2385E+00
    -12.112  0.6528E-02  0.6528E-02  0.2392E+00  0.2392E+00
    -12.009  0.6917E-02  0.6917E-02  0.2399E+00  0.2399E+00
    -11.905  0.4250E-01  0.4250E-01  0.2443E+00  0.2443E+00
    -11.802  0.2230E-01  0.2230E-01  0.2466E+00  0.2466E+00
    -11.698  0.3703E-01  0.3703E-01  0.2504E+00  0.2504E+00
    -11.595  0.3624E-01  0.3624E-01  0.2542E+00  0.2542E+00
    -11.491  0.4592E-01  0.4592E-01  0.2589E+00  0.2589E+00
    -11.388  0.3034E-01  0.3034E-01  0.2621E+00  0.2621E+00
    -11.285  0.4686E-01  0.4686E-01  0.2669E+00  0.2669E+00
    -11.181  0.2860E-01  0.2860E-01  0.2699E+00  0.2699E+00
    -11.078  0.3245E-01  0.3245E-01  0.2732E+00  0.2732E+00
    -10.974  0.3158E-01  0.3158E-01  0.2765E+00  0.2765E+00
    -10.871  0.3605E-01  0.3605E-01  0.2802E+00  0.2802E+00
    -10.767  0.4826E-01  0.4826E-01  0.2852E+00  0.2852E+00
    -10.664  0.1924E-01  0.1924E-01  0.2872E+00  0.2872E+00
    -10.561  0.9175E-02  0.9175E-02  0.2881E+00  0.2881E+00
    -10.457  0.1900E-01  0.1900E-01  0.2901E+00  0.2901E+00
    -10.354  0.1249E-01  0.1249E-01  0.2914E+00  0.2914E+00
    -10.250  0.3079E-01  0.3079E-01  0.2946E+00  0.2946E+00
    -10.147  0.5893E-01  0.5893E-01  0.3007E+00  0.3007E+00
    -10.043  0.6095E-01  0.6095E-01  0.3070E+00  0.3070E+00
     -9.940  0.4728E-01  0.4728E-01  0.3119E+00  0.3119E+00
     -9.837  0.6034E-01  0.6034E-01  0.3181E+00  0.3181E+00
     -9.733  0.6311E-01  0.6311E-01  0.3246E+00  0.3246E+00
     -9.630  0.4506E-01  0.4506E-01  0.3293E+00  0.3293E+00
     -9.526  0.4667E-01  0.4667E-01  0.3341E+00  0.3341E+00
     -9.423  0.6395E-01  0.6395E-01  0.3407E+00  0.3407E+00
     -9.319  0.6292E-01  0.6292E-01  0.3473E+00  0.3473E+00
     -9.216  0.5080E-01  0.5080E-01  0.3525E+00  0.3525E+00
     -9.112  0.5320E-01  0.5320E-01  0.3580E+00  0.3580E+00
     -9.009  0.7435E-01  0.7435E-01  0.3657E+00  0.3657E+00
     -8.906  0.9066E-01  0.9066E-01  0.3751E+00  0.3751E+00
     -8.802  0.8437E-01  0.8437E-01  0.3838E+00  0.3838E+00
     -8.699  0.7513E-01  0.7513E-01  0.3916E+00  0.3916E+00
     -8.595  0.5741E-01  0.5741E-01  0.3975E+00  0.3975E+00
     -8.492  0.7526E-01  0.7526E-01  0.4053E+00  0.4053E+00
     -8.388  0.4165E-01  0.4165E-01  0.4096E+00  0.4096E+00
     -8.285  0.7070E-01  0.7070E-01  0.4169E+00  0.4169E+00
     -8.182  0.8007E-01  0.8007E-01  0.4252E+00  0.4252E+00
     -8.078  0.7667E-01  0.7667E-01  0.4331E+00  0.4331E+00
     -7.975  0.4372E-01  0.4372E-01  0.4377E+00  0.4377E+00
     -7.871  0.6101E-01  0.6101E-01  0.4440E+00  0.4440E+00
     -7.768  0.5622E-01  0.5622E-01  0.4498E+00  0.4498E+00
     -7.664  0.5897E-01  0.5897E-01  0.4559E+00  0.4559E+00
     -7.561  0.2885E-01  0.2885E-01  0.4589E+00  0.4589E+00
     -7.458  0.3450E-01  0.3450E-01  0.4624E+00  0.4624E+00
     -7.354  0.4737E-01  0.4737E-01  0.4673E+00  0.4673E+00
     -7.251  0.7904E-01  0.7904E-01  0.4755E+00  0.4755E+00
     -7.147  0.7174E-01  0.7174E-01  0.4829E+00  0.4829E+00
     -7.044  0.5148E-01  0.5148E-01  0.4883E+00  0.4883E+00
     -6.940  0.4555E-01  0.4555E-01  0.4930E+00  0.4930E+00
     -6.837  0.4166E-01  0.4166E-01  0.4973E+00  0.4973E+00
     -6.733  0.3806E-01  0.3806E-01  0.5012E+00  0.5012E+00
     -6.630  0.3131E-01  0.3131E-01  0.5044E+00  0.5044E+00
     -6.527  0.3416E-01  0.3416E-01  0.5080E+00  0.5080E+00
     -6.423  0.3296E-01  0.3296E-01  0.5114E+00  0.5114E+00
     -6.320  0.3841E-01  0.3841E-01  0.5154E+00  0.5154E+00
     -6.216  0.7222E-01  0.7222E-01  0.5228E+00  0.5228E+00
     -6.113  0.5679E-01  0.5679E-01  0.5287E+00  0.5287E+00
     -6.009  0.4566E-01  0.4566E-01  0.5334E+00  0.5334E+00
     -5.906  0.3045E-01  0.3045E-01  0.5366E+00  0.5366E+00
     -5.803  0.5312E-01  0.5312E-01  0.5421E+00  0.5421E+00
     -5.699  0.6283E-01  0.6283E-01  0.5486E+00  0.5486E+00
     -5.596  0.3994E-01  0.3994E-01  0.5527E+00  0.5527E+00
     -5.492  0.1987E-01  0.1987E-01  0.5548E+00  0.5548E+00
     -5.389  0.1344E-01  0.1344E-01  0.5561E+00  0.5561E+00
     -5.285  0.5446E-02  0.5446E-02  0.5567E+00  0.5567E+00
     -5.182  0.1575E-01  0.1575E-01  0.5583E+00  0.5583E+00
     -5.079  0.5589E-01  0.5589E-01  0.5641E+00  0.5641E+00
     -4.975  0.6152E-01  0.6152E-01  0.5705E+00  0.5705E+00
     -4.872  0.6276E-01  0.6276E-01  0.5770E+00  0.5770E+00
     -4.768  0.4192E-01  0.4192E-01  0.5813E+00  0.5813E+00
     -4.665  0.3081E-01  0.3081E-01  0.5845E+00  0.5845E+00
     -4.561  0.4052E-01  0.4052E-01  0.5887E+00  0.5887E+00
     -4.458  0.2050E-01  0.2050E-01  0.5908E+00  0.5908E+00
     -4.354  0.7643E-02  0.7643E-02  0.5916E+00  0.5916E+00
     -4.251  0.3558E-01  0.3558E-01  0.5953E+00  0.5953E+00
     -4.148  0.2383E-01  0.2383E-01  0.5977E+00  0.5977E+00
     -4.044  0.2321E-01  0.2321E-01  0.6001E+00  0.6001E+00
     -3.941  0.3394E-01  0.3394E-01  0.6037E+00  0.6037E+00
     -3.837  0.2423E-01  0.2423E-01  0.6062E+00  0.6062E+00
     -3.734  0.4869E-02  0.4869E-02  0.6067E+00  0.6067E+00
     -3.630  0.5307E-05  0.5307E-05  0.6067E+00  0.6067E+00
     -3.527  0.2212E-02  0.2212E-02  0.6069E+00  0.6069E+00
     -3.424  0.6039E-02  0.6039E-02  0.6075E+00  0.6075E+00
     -3.320  0.1363E-01  0.1363E-01  0.6089E+00  0.6089E+00
     -3.217  0.1563E-01  0.1563E-01  0.6105E+00  0.6105E+00
     -3.113  0.1043E-01  0.1043E-01  0.6116E+00  0.6116E+00
     -3.010  0.3988E-03  0.3988E-03  0.6117E+00  0.6117E+00
     -2.906  0.1844E-07  0.1844E-07  0.6117E+00  0.6117E+00
     -2.803  0.4037E-05  0.4037E-05  0.6117E+00  0.6117E+00
     -2.700  0.4662E-02  0.4662E-02  0.6121E+00  0.6121E+00
     -2.596  0.1130E-01  0.1130E-01  0.6133E+00  0.6133E+00
     -2.493  0.1430E-03  0.1430E-03  0.6133E+00  0.6133E+00
     -2.389  0.2561E-03  0.2561E-03  0.6134E+00  0.6134E+00
     -2.286  0.1234E-01  0.1234E-01  0.6146E+00  0.6146E+00
     -2.182  0.3513E-02  0.3513E-02  0.6150E+00  0.6150E+00
     -2.079  0.1804E-05  0.1804E-05  0.6150E+00  0.6150E+00
     -1.975  0.7728E-03  0.7728E-03  0.6151E+00  0.6151E+00
     -1.872  0.8975E-02  0.8975E-02  0.6160E+00  0.6160E+00
     -1.769  0.1179E-01  0.1179E-01  0.6172E+00  0.6172E+00
     -1.665  0.1727E-01  0.1727E-01  0.6190E+00  0.6190E+00
     -1.562  0.6913E-02  0.6913E-02  0.6197E+00  0.6197E+00
     -1.458  0.2757E-02  0.2757E-02  0.6200E+00  0.6200E+00
     -1.355  0.1438E-01  0.1438E-01  0.6215E+00  0.6215E+00
     -1.251  0.2985E-01  0.2985E-01  0.6246E+00  0.6246E+00
     -1.148  0.3977E-02  0.3977E-02  0.6250E+00  0.6250E+00
     -1.045  0.3977E-02  0.3977E-02  0.6254E+00  0.6254E+00
     -0.941  0.2719E-01  0.2719E-01  0.6282E+00  0.6282E+00
     -0.838  0.6002E-01  0.6002E-01  0.6344E+00  0.6344E+00
     -0.734  0.2206E-01  0.2206E-01  0.6367E+00  0.6367E+00
     -0.631  0.3082E-01  0.3082E-01  0.6399E+00  0.6399E+00
     -0.527  0.3411E-01  0.3411E-01  0.6434E+00  0.6434E+00
     -0.424  0.2215E-01  0.2215E-01  0.6457E+00  0.6457E+00
     -0.321  0.1646E-01  0.1646E-01  0.6474E+00  0.6474E+00
     -0.217  0.1734E-01  0.1734E-01  0.6492E+00  0.6492E+00
     -0.114  0.3838E-01  0.3838E-01  0.6532E+00  0.6532E+00
     -0.010  0.3070E-01  0.3070E-01  0.6564E+00  0.6564E+00
      0.093  0.3331E-01  0.3331E-01  0.6598E+00  0.6598E+00
      0.197  0.4065E-01  0.4065E-01  0.6640E+00  0.6640E+00
      0.300  0.1545E-01  0.1545E-01  0.6656E+00  0.6656E+00
      0.404  0.1004E-01  0.1004E-01  0.6666E+00  0.6666E+00
      0.507  0.1148E-01  0.1148E-01  0.6678E+00  0.6678E+00
      0.610  0.1836E-01  0.1836E-01  0.6697E+00  0.6697E+00
      0.714  0.2185E-01  0.2185E-01  0.6720E+00  0.6720E+00
      0.817  0.3727E-01  0.3727E-01  0.6759E+00  0.6759E+00
      0.921  0.2725E-01  0.2725E-01  0.6787E+00  0.6787E+00
      1.024  0.3488E-01  0.3488E-01  0.6823E+00  0.6823E+00
      1.128  0.2223E-01  0.2223E-01  0.6846E+00  0.6846E+00
      1.231  0.3536E-01  0.3536E-01  0.6882E+00  0.6882E+00
      1.334  0.2053E-01  0.2053E-01  0.6904E+00  0.6904E+00
      1.438  0.5581E-01  0.5581E-01  0.6961E+00  0.6961E+00
      1.541  0.5673E-01  0.5673E-01  0.7020E+00  0.7020E+00
      1.645  0.4426E-01  0.4426E-01  0.7066E+00  0.7066E+00
      1.748  0.3516E-01  0.3516E-01  0.7102E+00  0.7102E+00
      1.852  0.2998E-01  0.2998E-01  0.7133E+00  0.7133E+00
      1.955  0.5174E-01  0.5174E-01  0.7187E+00  0.7187E+00
      2.058  0.6652E-01  0.6652E-01  0.7255E+00  0.7255E+00
      2.162  0.4074E-01  0.4074E-01  0.7298E+00  0.7298E+00
      2.265  0.7651E-01  0.7651E-01  0.7377E+00  0.7377E+00
      2.369  0.6253E-01  0.6253E-01  0.7441E+00  0.7441E+00
      2.472  0.8437E-01  0.8437E-01  0.7529E+00  0.7529E+00
      2.576  0.1315E-01  0.1315E-01  0.7542E+00  0.7542E+00
      2.679  0.3087E-01  0.3087E-01  0.7574E+00  0.7574E+00
      2.783  0.7130E-01  0.7130E-01  0.7648E+00  0.7648E+00
      2.886  0.1197E+00  0.1197E+00  0.7772E+00  0.7772E+00
      2.989  0.1372E+00  0.1372E+00  0.7914E+00  0.7914E+00
      3.093  0.5325E-01  0.5325E-01  0.7969E+00  0.7969E+00
      3.196  0.6560E-01  0.6560E-01  0.8037E+00  0.8037E+00
      3.300  0.6476E-01  0.6476E-01  0.8104E+00  0.8104E+00
      3.403  0.4202E-01  0.4202E-01  0.8147E+00  0.8147E+00
      3.507  0.8473E-01  0.8473E-01  0.8235E+00  0.8235E+00
      3.610  0.6965E-01  0.6964E-01  0.8307E+00  0.8307E+00
      3.713  0.4069E-01  0.4069E-01  0.8349E+00  0.8349E+00
      3.817  0.9427E-01  0.9427E-01  0.8446E+00  0.8446E+00
      3.920  0.7373E-01  0.7373E-01  0.8523E+00  0.8523E+00
      4.024  0.8114E-01  0.8114E-01  0.8606E+00  0.8606E+00
      4.127  0.5782E-01  0.5782E-01  0.8666E+00  0.8666E+00
      4.231  0.5390E-01  0.5458E-01  0.8722E+00  0.8723E+00
      4.334  0.8347E-01  0.8344E-01  0.8808E+00  0.8809E+00
      4.437  0.2383E-01  0.2318E-01  0.8833E+00  0.8833E+00
      4.541  0.3289E-03  0.3213E-03  0.8833E+00  0.8833E+00
      4.644  0.7068E-08  0.5950E-08  0.8833E+00  0.8833E+00
      4.748  0.5009E-16  0.3578E-16  0.8833E+00  0.8833E+00
      4.851  0.0000E+00  0.0000E+00  0.8833E+00  0.8833E+00
      4.955  0.0000E+00  0.0000E+00  0.8833E+00  0.8833E+00
      5.058  0.0000E+00  0.0000E+00  0.8833E+00  0.8833E+00
      5.162  0.0000E+00  0.0000E+00  0.8833E+00  0.8833E+00
      5.265  0.0000E+00  0.0000E+00  0.8833E+00  0.8833E+00
      5.368  0.0000E+00  0.0000E+00  0.8833E+00  0.8833E+00
      5.472  0.0000E+00  0.0000E+00  0.8833E+00  0.8833E+00
      5.575  0.0000E+00  0.0000E+00  0.8833E+00  0.8833E+00
      5.679  0.0000E+00  0.0000E+00  0.8833E+00  0.8833E+00
      5.782  0.0000E+00  0.0000E+00  0.8833E+00  0.8833E+00
