 vasp.6.4.2 20Jul23 (build Aug 26 2025 15:10:52) complex                        
  
 executed on             LinuxIFC date 2025.12.02  12:14:43
 running   50 mpi-ranks, on    1 nodes
 each image running on   10 cores
 distrk:  each k-point on    5 cores,    2 groups
 distr:  one band on NCORE=   1 cores,    5 groups


--------------------------------------------------------------------------------------------------------


 INCAR:
   ENCUT = 520
   EDIFF = 1E-5
   NELM = 200
   ALGO = Normal
   ISMEAR = 0
   SIGMA = 0.05
   LASPH = .TRUE.
   ADDGRID = .TRUE.
   LREAL = Auto
   ISYM = 0
   ISPIN = 2
   MAGMOM = 97*0.6
   IMIX = 4
   AMIX = 0.20
   BMIX = 1E-4
   AMIX_MAG = 0.80
   BMIX_MAG = 1E-4
   IBRION = 3
   POTIM = 0
   IMAGES = 5
   SPRING = -5
   LCLIMB = .TRUE.
   IOPT = 7
   ISIF = 2
   EDIFFG = -0.03
   NSW = 300
   IVDW = 12
   ISTART = 0
   ICHARG = 2
   LWAVE = .FALSE.
   LCHARG = .FALSE.
   KPAR = 2

 POTCAR:    PAW_PBE C 08Apr2002                   
 POTCAR:    PAW_PBE H 15Jun2001                   
 POTCAR:    PAW_PBE N 08Apr2002                   
 POTCAR:    PAW_PBE O 08Apr2002                   
 -----------------------------------------------------------------------------
|                                                                             |
|           W    W    AA    RRRRR   N    N  II  N    N   GGGG   !!!           |
|           W    W   A  A   R    R  NN   N  II  NN   N  G    G  !!!           |
|           W    W  A    A  R    R  N N  N  II  N N  N  G       !!!           |
|           W WW W  AAAAAA  RRRRR   N  N N  II  N  N N  G  GGG   !            |
|           WW  WW  A    A  R   R   N   NN  II  N   NN  G    G                |
|           W    W  A    A  R    R  N    N  II  N    N   GGGG   !!!           |
|                                                                             |
|     For optimal performance we recommend to set                             |
|       NCORE = 2 up to number-of-cores-per-socket                            |
|     NCORE specifies how many cores store one orbital (NPAR=cpu/NCORE).      |
|     This setting can greatly improve the performance of VASP for DFT.       |
|     The default, NCORE=1 might be grossly inefficient on modern             |
|     multi-core architectures or massively parallel machines. Do your        |
|     own testing! More info at https://www.vasp.at/wiki/index.php/NCORE      |
|     Unfortunately you need to use the default for GW and RPA                |
|     calculations (for HF NCORE is supported but not extensively tested      |
|     yet).                                                                   |
|                                                                             |
 -----------------------------------------------------------------------------

 POTCAR:    PAW_PBE C 08Apr2002                   
   SHA256 =  253f7b50bb8d59471dbedb8285d89021f4a42ed1a2c5d38a03a736e69125dd95 C/POTCAR              
   COPYR  = (c) Copyright 08Apr2002 Georg Kresse                                                    
   COPYR  = This file is part of the software VASP. Any use, copying, and all other rights are regul
   COPYR  = If you do not have a valid VASP license, you may not use, copy or distribute this file. 
   VRHFIN =C: s2p2                                                                                  
   LEXCH  = PE                                                                                      
   EATOM  =   147.1560 eV,   10.8157 Ry                                                             
                                                                                                    
   TITEL  = PAW_PBE C 08Apr2002                                                                     
   LULTRA =        F    use ultrasoft PP ?                                                          
   IUNSCR =        1    unscreen: 0-lin 1-nonlin 2-no                                               
   RPACOR =    1.200    partial core radius                                                         
   POMASS =   12.011; ZVAL   =    4.000    mass and valenz                                          
   RCORE  =    1.500    outmost cutoff radius                                                       
   RWIGS  =    1.630; RWIGS  =    0.863    wigner-seitz radius (au A)                               
   ENMAX  =  400.000; ENMIN  =  300.000 eV                                                          
   ICORE  =        2    local potential                                                             
   LCOR   =        T    correct aug charges                                                         
   LPAW   =        T    paw PP                                                                      
   EAUG   =  644.873                                                                                
   DEXC   =    0.000                                                                                
   RMAX   =    1.529    core radius for proj-oper                                                   
   RAUG   =    1.300    factor for augmentation sphere                                              
   RDEP   =    1.501    radius for radial grids                                                     
   RDEPT  =    1.300    core radius for aug-charge                                                  
                                                                                                    
   Atomic configuration                                                                             
    4 entries                                                                                       
     n  l   j            E        occ.                                                              
     1  0  0.50      -273.3789   2.0000                                                             
     2  0  0.50       -13.7508   2.0000                                                             
     2  1  0.50        -5.2854   2.0000                                                             
     3  2  1.50        -5.4423   0.0000                                                             
   Description                                                                                      
     l       E           TYP  RCUT    TYP  RCUT                                                     
     0    -13.7508458     23  1.200                                                                 
     0     -8.2022199     23  1.200                                                                 
     1     -5.2854383     23  1.500                                                                 
     1     34.0145650     23  1.500                                                                 
     2     -5.4423304      7  1.500                                                                 
  local pseudopotential read in
  partial core-charges read in
  partial kinetic energy density read in
  atomic valenz-charges read in
  non local Contribution for L=           0  read in
    real space projection operators read in
  non local Contribution for L=           0  read in
    real space projection operators read in
  non local Contribution for L=           1  read in
    real space projection operators read in
  non local Contribution for L=           1  read in
    real space projection operators read in
    PAW grid and wavefunctions read in
 
   number of l-projection  operators is LMAX  =           4
   number of lm-projection operators is LMMAX =           8
 
 POTCAR:    PAW_PBE H 15Jun2001                   
   SHA256 =  030f79b5d3ab3cf0e668861823c8fb652ff669f3e15e46930bd03bfd63a607b6 H/POTCAR              
   COPYR  = (c) Copyright 15Jun2001 Georg Kresse                                                    
   COPYR  = This file is part of the software VASP. Any use, copying, and all other rights are regul
   COPYR  = If you do not have a valid VASP license, you may not use, copy or distribute this file. 
   VRHFIN =H: ultrasoft test                                                                        
   LEXCH  = PE                                                                                      
   EATOM  =    12.4884 eV,    0.9179 Ry                                                             
                                                                                                    
   TITEL  = PAW_PBE H 15Jun2001                                                                     
   LULTRA =        F    use ultrasoft PP ?                                                          
   IUNSCR =        0    unscreen: 0-lin 1-nonlin 2-no                                               
   RPACOR =    0.000    partial core radius                                                         
   POMASS =    1.000; ZVAL   =    1.000    mass and valenz                                          
   RCORE  =    1.100    outmost cutoff radius                                                       
   RWIGS  =    0.700; RWIGS  =    0.370    wigner-seitz radius (au A)                               
   ENMAX  =  250.000; ENMIN  =  200.000 eV                                                          
   RCLOC  =    0.701    cutoff for local pot                                                        
   LCOR   =        T    correct aug charges                                                         
   LPAW   =        T    paw PP                                                                      
   EAUG   =  400.000                                                                                
   RMAX   =    1.123    core radius for proj-oper                                                   
   RAUG   =    1.200    factor for augmentation sphere                                              
   RDEP   =    1.112    radius for radial grids                                                     
   RDEPT  =    0.926    core radius for aug-charge                                                  
                                                                                                    
   Atomic configuration                                                                             
    2 entries                                                                                       
     n  l   j            E        occ.                                                              
     1  0  0.50        -6.4927   1.0000                                                             
     2  1  0.50        -3.4015   0.0000                                                             
   Description                                                                                      
     l       E           TYP  RCUT    TYP  RCUT                                                     
     0     -6.4927494     23  1.100                                                                 
     0      6.8029130     23  1.100                                                                 
     1     -4.0817478     23  1.100                                                                 
  local pseudopotential read in
  atomic valenz-charges read in
  non local Contribution for L=           0  read in
    real space projection operators read in
  non local Contribution for L=           0  read in
    real space projection operators read in
  non local Contribution for L=           1  read in
    real space projection operators read in
    PAW grid and wavefunctions read in
 
   number of l-projection  operators is LMAX  =           3
   number of lm-projection operators is LMMAX =           5
 
 POTCAR:    PAW_PBE N 08Apr2002                   
   SHA256 =  e053789ff3a61a86a1b75d8a110fcc91f86041011e7b0817c7c99e4e8a6349d7 N/POTCAR              
   COPYR  = (c) Copyright 08Apr2002 Georg Kresse                                                    
   COPYR  = This file is part of the software VASP. Any use, copying, and all other rights are regul
   COPYR  = If you do not have a valid VASP license, you may not use, copy or distribute this file. 
   VRHFIN =N: s2p3                                                                                  
   LEXCH  = PE                                                                                      
   EATOM  =   264.5486 eV,   19.4438 Ry                                                             
                                                                                                    
   TITEL  = PAW_PBE N 08Apr2002                                                                     
   LULTRA =        F    use ultrasoft PP ?                                                          
   IUNSCR =        1    unscreen: 0-lin 1-nonlin 2-no                                               
   RPACOR =    1.200    partial core radius                                                         
   POMASS =   14.001; ZVAL   =    5.000    mass and valenz                                          
   RCORE  =    1.500    outmost cutoff radius                                                       
   RWIGS  =    1.400; RWIGS  =    0.741    wigner-seitz radius (au A)                               
   ENMAX  =  400.000; ENMIN  =  300.000 eV                                                          
   ICORE  =        2    local potential                                                             
   LCOR   =        T    correct aug charges                                                         
   LPAW   =        T    paw PP                                                                      
   EAUG   =  627.112                                                                                
   DEXC   =    0.000                                                                                
   RMAX   =    1.529    core radius for proj-oper                                                   
   RAUG   =    1.300    factor for augmentation sphere                                              
   RDEP   =    1.514    radius for radial grids                                                     
   RDEPT  =    1.338    core radius for aug-charge                                                  
                                                                                                    
   Atomic configuration                                                                             
    4 entries                                                                                       
     n  l   j            E        occ.                                                              
     1  0  0.50      -384.7179   2.0000                                                             
     2  0  0.50       -18.5828   2.0000                                                             
     2  1  0.50        -7.0898   3.0000                                                             
     3  2  1.50        -6.8029   0.0000                                                             
   Description                                                                                      
     l       E           TYP  RCUT    TYP  RCUT                                                     
     0    -18.5828119     23  1.200                                                                 
     0    -13.5018863     23  1.200                                                                 
     1     -7.0897853     23  1.500                                                                 
     1      9.5240782     23  1.500                                                                 
     2     -6.8029130      7  1.500                                                                 
  local pseudopotential read in
  partial core-charges read in
  partial kinetic energy density read in
  atomic valenz-charges read in
  non local Contribution for L=           0  read in
    real space projection operators read in
  non local Contribution for L=           0  read in
    real space projection operators read in
  non local Contribution for L=           1  read in
    real space projection operators read in
  non local Contribution for L=           1  read in
    real space projection operators read in
    PAW grid and wavefunctions read in
 
   number of l-projection  operators is LMAX  =           4
   number of lm-projection operators is LMMAX =           8
 
 POTCAR:    PAW_PBE O 08Apr2002                   
   SHA256 =  818f92134a0a090dccd8ba1447fa70422a3b330e708bb4f08108d8ae51209ddf O/POTCAR              
   COPYR  = (c) Copyright 08Apr2002 Georg Kresse                                                    
   COPYR  = This file is part of the software VASP. Any use, copying, and all other rights are regul
   COPYR  = If you do not have a valid VASP license, you may not use, copy or distribute this file. 
   VRHFIN =O: s2p4                                                                                  
   LEXCH  = PE                                                                                      
   EATOM  =   432.3788 eV,   31.7789 Ry                                                             
                                                                                                    
   TITEL  = PAW_PBE O 08Apr2002                                                                     
   LULTRA =        F    use ultrasoft PP ?                                                          
   IUNSCR =        1    unscreen: 0-lin 1-nonlin 2-no                                               
   RPACOR =    1.200    partial core radius                                                         
   POMASS =   16.000; ZVAL   =    6.000    mass and valenz                                          
   RCORE  =    1.520    outmost cutoff radius                                                       
   RWIGS  =    1.550; RWIGS  =    0.820    wigner-seitz radius (au A)                               
   ENMAX  =  400.000; ENMIN  =  300.000 eV                                                          
   ICORE  =        2    local potential                                                             
   LCOR   =        T    correct aug charges                                                         
   LPAW   =        T    paw PP                                                                      
   EAUG   =  605.392                                                                                
   DEXC   =    0.000                                                                                
   RMAX   =    1.553    core radius for proj-oper                                                   
   RAUG   =    1.300    factor for augmentation sphere                                              
   RDEP   =    1.550    radius for radial grids                                                     
   RDEPT  =    1.329    core radius for aug-charge                                                  
                                                                                                    
   Atomic configuration                                                                             
    4 entries                                                                                       
     n  l   j            E        occ.                                                              
     1  0  0.50      -514.6923   2.0000                                                             
     2  0  0.50       -23.9615   2.0000                                                             
     2  1  0.50        -9.0305   4.0000                                                             
     3  2  1.50        -9.5241   0.0000                                                             
   Description                                                                                      
     l       E           TYP  RCUT    TYP  RCUT                                                     
     0    -23.9615318     23  1.200                                                                 
     0     -9.5240782     23  1.200                                                                 
     1     -9.0304911     23  1.520                                                                 
     1      8.1634956     23  1.520                                                                 
     2     -9.5240782      7  1.500                                                                 
  local pseudopotential read in
  partial core-charges read in
  partial kinetic energy density read in
  kinetic energy density of atom read in
  atomic valenz-charges read in
  non local Contribution for L=           0  read in
    real space projection operators read in
  non local Contribution for L=           0  read in
    real space projection operators read in
  non local Contribution for L=           1  read in
    real space projection operators read in
  non local Contribution for L=           1  read in
    real space projection operators read in
    PAW grid and wavefunctions read in
 
   number of l-projection  operators is LMAX  =           4
   number of lm-projection operators is LMMAX =           8
 
 Optimization of the real space projectors (new method)

 maximal supplied QI-value         = 25.13
 optimisation between [QCUT,QGAM] = [ 11.56, 23.12] = [ 37.43,149.72] Ry 
 Optimized for a Real-space Cutoff    1.04 Angstroem

   l    n(q)    QCUT    max X(q) W(low)/X(q) W(high)/X(q)  e(spline) 
   0      7    11.561   115.676    0.20E-03    0.60E-03    0.21E-06
   0      7    11.561    87.132    0.20E-03    0.59E-03    0.21E-06
   1      7    11.561     4.429    0.23E-03    0.35E-03    0.15E-06
   1      7    11.561     2.733    0.18E-03    0.25E-03    0.12E-06
 Optimization of the real space projectors (new method)

 maximal supplied QI-value         = 34.20
 optimisation between [QCUT,QGAM] = [ 11.63, 23.26] = [ 37.87,151.49] Ry 
 Optimized for a Real-space Cutoff    1.14 Angstroem

   l    n(q)    QCUT    max X(q) W(low)/X(q) W(high)/X(q)  e(spline) 
   0      8    11.629    19.460    0.27E-03    0.65E-03    0.17E-06
   0      8    11.629    12.209    0.25E-03    0.62E-03    0.16E-06
   1      7    11.629     4.655    0.29E-03    0.85E-04    0.19E-06
 Optimization of the real space projectors (new method)

 maximal supplied QI-value         = 25.13
 optimisation between [QCUT,QGAM] = [ 11.56, 23.12] = [ 37.43,149.72] Ry 
 Optimized for a Real-space Cutoff    1.25 Angstroem

   l    n(q)    QCUT    max X(q) W(low)/X(q) W(high)/X(q)  e(spline) 
   0      9    11.561    79.467    0.52E-04    0.16E-03    0.37E-06
   0      9    11.561    66.151    0.51E-04    0.16E-03    0.37E-06
   1      8    11.561    18.886    0.46E-03    0.28E-03    0.80E-06
   1      8    11.561    13.488    0.47E-03    0.29E-03    0.82E-06
 Optimization of the real space projectors (new method)

 maximal supplied QI-value         = 24.76
 optimisation between [QCUT,QGAM] = [ 11.64, 23.27] = [ 37.91,151.63] Ry 
 Optimized for a Real-space Cutoff    1.04 Angstroem

   l    n(q)    QCUT    max X(q) W(low)/X(q) W(high)/X(q)  e(spline) 
   0      7    11.635    20.381    0.14E-03    0.49E-03    0.18E-06
   0      7    11.635    15.268    0.16E-03    0.52E-03    0.19E-06
   1      7    11.635     5.964    0.30E-03    0.44E-03    0.22E-06
   1      7    11.635     5.382    0.27E-03    0.34E-03    0.19E-06
  PAW_PBE C 08Apr2002                   :
 energy of atom  1       EATOM= -147.1560
 kinetic energy error for atom=    0.0071 (will be added to EATOM!!)
  PAW_PBE H 15Jun2001                   :
 energy of atom  2       EATOM=  -12.4884
 kinetic energy error for atom=    0.0014 (will be added to EATOM!!)
  PAW_PBE N 08Apr2002                   :
 energy of atom  3       EATOM= -264.5486
 kinetic energy error for atom=    0.0125 (will be added to EATOM!!)
  PAW_PBE O 08Apr2002                   :
 energy of atom  4       EATOM= -432.3788
 kinetic energy error for atom=    0.0208 (will be added to EATOM!!)
 
 
 POSCAR: C    H    N    O
  positions in direct lattice
  velocities in cartesian coordinates
 exchange correlation table for  LEXCH =        8
   RHO(1)=    0.500       N(1)  =     2000
   RHO(2)=  100.500       N(2)  =     4000

 VTST: version 4.1, (05/19/21)

 CHAIN: initializing optimizer
 
 OPT: Using FIRE optimizer
 OPT: FIRE, Init
 OPT: FIRE, MAXMOVE       0.20000
 OPT: FIRE, TIMESTEP      0.10000
 OPT: FIRE, FTIMEMAX      1.00000
 OPT: FIRE, FTIMEINC      1.10000
 OPT: FIRE, FTIMEDEC      0.50000
 OPT: FIRE, FALPHADEC     0.99000
 OPT: FIRE, FALPHA        0.10000
 OPT: FIRE, FNMIN         5
 
 CHAIN: Read ICHAIN            0
 CHAIN: Running the NEB
 NEB:          SPRING     -5.000000
 NEB:          LCLIMB      T
 NEB:     LTANGENTOLD      F
 NEB:           LDNEB      F
 NEB:        LDNEBORG      F
 NEB:        LNEBCELL      F
 NEB:          EFIRST      0.000000
 NEB:           ELAST      0.000000
 
 POSCAR: C    H    N    O
  positions in direct lattice
  No initial velocities read in
 
 POSCAR: C    H    N    O
  positions in direct lattice
  No initial velocities read in
 
 POSCAR: C    H    N    O
  positions in direct lattice
  No initial velocities read in
 
 POSCAR: C    H    N    O
  positions in direct lattice
  No initial velocities read in
 


--------------------------------------------------------------------------------------------------------


 ion  position               nearest neighbor table
   1  0.999  0.999  0.501-  51 1.43  45 1.43  86 1.43
   2  0.999  0.142  0.500-  46 1.42  80 1.42  45 1.43
   3  0.999  0.285  0.500-  81 1.42  47 1.42  46 1.42
   4  0.999  0.428  0.500-  47 1.42  82 1.42  48 1.43
   5  0.999  0.571  0.501-  49 1.43  48 1.43  83 1.43
   6  0.999  0.714  0.501-  49 1.42  50 1.43  84 1.43
   7  0.999  0.857  0.501-  51 1.42  50 1.43  85 1.43
   8  0.143  0.000  0.501-  52 1.42  58 1.43  51 1.43
   9  0.142  0.143  0.500-  53 1.42  45 1.43  52 1.43
  10  0.141  0.285  0.499-  54 1.42  46 1.42  53 1.42
  11  0.141  0.428  0.499-  54 1.42  47 1.42  55 1.42
  12  0.142  0.571  0.500-  55 1.42  48 1.43  56 1.43
  13  0.143  0.714  0.501-  56 1.42  57 1.43  49 1.43
  14  0.143  0.857  0.501-  57 1.43  58 1.43  50 1.43
  15  0.286  0.000  0.501-  65 1.42  58 1.43  59 1.43
  16  0.286  0.143  0.500-  59 1.42  60 1.43  52 1.43
  17  0.286  0.287  0.498-  61 1.39  53 1.44  60 1.46
  18  0.283  0.427  0.496-  62 1.41  61 1.41  54 1.42
  19  0.285  0.570  0.498-  62 1.39  55 1.44  63 1.46
  20  0.286  0.714  0.500-  64 1.42  63 1.43  56 1.43
  21  0.286  0.857  0.501-  65 1.42  57 1.43  64 1.43
  22  0.429  1.000  0.501-  69 1.42  66 1.42  65 1.43
  23  0.429  0.144  0.500-  66 1.43  59 1.43  67 1.43
  24  0.428  0.284  0.498-  87 1.09  67 1.40  60 1.40
  25  0.428  0.716  0.499-  92 1.09  68 1.40  63 1.40
  26  0.429  0.857  0.500-  69 1.43  64 1.43  68 1.43
  27  0.571  1.000  0.501-  69 1.42  70 1.42  72 1.43
  28  0.571  0.143  0.501-  66 1.42  70 1.42  71 1.43
  29  0.575  0.289  0.499-  95 1.35  71 1.43  67 1.46
  30  0.575  0.857  0.499-  96 1.35  72 1.43  68 1.46
  31  0.714  0.000  0.500-  72 1.42  79 1.42  73 1.42
  32  0.714  0.143  0.501-  74 1.42  73 1.42  70 1.43
  33  0.714  0.285  0.500-  71 1.42  75 1.42  74 1.42
  34  0.710  0.424  0.497-  95 1.35  75 1.43  76 1.47
  35  0.715  0.571  0.489-  91 1.09  76 1.39  77 1.42
  36  0.715  0.715  0.489-  90 1.09  78 1.39  77 1.42
  37  0.710  0.857  0.498-  96 1.35  79 1.43  78 1.47
  38  0.856  0.999  0.500-  80 1.42  86 1.43  79 1.43
  39  0.856  0.143  0.500-  73 1.42  81 1.42  80 1.43
  40  0.856  0.285  0.500-  74 1.42  81 1.42  82 1.43
  41  0.856  0.428  0.500-  82 1.42  83 1.43  75 1.43
  42  0.855  0.570  0.499-  83 1.42  84 1.43  76 1.44
  43  0.856  0.714  0.498-  85 1.42  84 1.42  77 1.44
  44  0.855  0.856  0.499-  86 1.42  85 1.43  78 1.44
  45  0.047  0.095  0.500-   2 1.43   9 1.43   1 1.43
  46  0.046  0.237  0.500-   2 1.42  10 1.42   3 1.42
  47  0.046  0.380  0.499-   4 1.42  11 1.42   3 1.42
  48  0.047  0.524  0.500-   4 1.43   5 1.43  12 1.43
  49  0.047  0.666  0.501-   6 1.42   5 1.43  13 1.43
  50  0.047  0.809  0.501-   6 1.43   7 1.43  14 1.43
  51  0.047  0.952  0.501-   7 1.42   1 1.43   8 1.43
  52  0.190  0.095  0.500-   8 1.42   9 1.43  16 1.43
  53  0.190  0.238  0.499-   9 1.42  10 1.42  17 1.44
  54  0.188  0.380  0.498-  11 1.42  10 1.42  18 1.42
  55  0.190  0.523  0.499-  12 1.42  11 1.42  19 1.44
  56  0.190  0.667  0.500-  13 1.42  12 1.43  20 1.43
  57  0.190  0.809  0.501-  21 1.43  14 1.43  13 1.43
  58  0.190  0.952  0.501-  15 1.43  14 1.43   8 1.43
  59  0.334  0.096  0.500-  16 1.42  23 1.43  15 1.43
  60  0.335  0.239  0.499-  24 1.40  16 1.43  17 1.46
  61  0.329  0.380  0.496-  88 1.09  17 1.39  18 1.41
  62  0.329  0.521  0.496-  89 1.09  19 1.39  18 1.41
  63  0.335  0.667  0.499-  25 1.40  20 1.43  19 1.46
  64  0.334  0.809  0.500-  20 1.42  26 1.43  21 1.43
  65  0.333  0.952  0.501-  15 1.42  21 1.42  22 1.43
  66  0.476  0.095  0.501-  28 1.42  22 1.42  23 1.43
  67  0.477  0.239  0.500-  24 1.40  23 1.43  29 1.46
  68  0.477  0.809  0.500-  25 1.40  26 1.43  30 1.46
  69  0.476  0.952  0.501-  27 1.42  22 1.42  26 1.43
  70  0.619  0.095  0.501-  28 1.42  27 1.42  32 1.43
  71  0.619  0.238  0.500-  33 1.42  29 1.43  28 1.43
  72  0.619  0.953  0.500-  31 1.42  30 1.43  27 1.43
  73  0.762  0.095  0.501-  39 1.42  32 1.42  31 1.42
  74  0.762  0.238  0.500-  40 1.42  32 1.42  33 1.42
  75  0.761  0.380  0.499-  33 1.42  41 1.43  34 1.43
  76  0.759  0.523  0.495-  35 1.39  42 1.44  34 1.47
  77  0.760  0.666  0.492-  35 1.42  36 1.42  43 1.44
  78  0.759  0.808  0.496-  36 1.39  44 1.44  37 1.47
  79  0.761  0.952  0.499-  31 1.42  38 1.43  37 1.43
  80  0.904  0.094  0.500-  38 1.42   2 1.42  39 1.43
  81  0.904  0.238  0.500-   3 1.42  39 1.42  40 1.42
  82  0.904  0.381  0.500-  41 1.42   4 1.42  40 1.43
  83  0.904  0.523  0.500-  42 1.42  41 1.43   5 1.43
  84  0.903  0.666  0.499-  43 1.42  42 1.43   6 1.43
  85  0.903  0.809  0.499-  43 1.42  44 1.43   7 1.43
  86  0.903  0.951  0.500-  44 1.42  38 1.43   1 1.43
  87  0.467  0.356  0.497-  24 1.09
  88  0.402  0.419  0.496-  61 1.09
  89  0.402  0.554  0.496-  62 1.09
  90  0.642  0.679  0.481-  36 1.09
  91  0.642  0.535  0.481-  35 1.09
  92  0.467  0.682  0.497-  25 1.09
  93  0.557  0.609  0.578-  97 0.97
  94  0.557  0.520  0.578-  97 0.97
  95  0.620  0.379  0.498-  34 1.35  29 1.35
  96  0.620  0.812  0.498-  37 1.35  30 1.35
  97  0.518  0.544  0.570-  94 0.97  93 0.97
 

IMPORTANT INFORMATION: All symmetrisations will be switched off!
NOSYMM: (Re-)initialisation of all symmetry stuff for point group C_1.


----------------------------------------------------------------------------------------

                                     Primitive cell                                     

  volume of cell :    3874.8846

  direct lattice vectors                    reciprocal lattice vectors
    17.271038055  0.000000000  0.000000000     0.057900399  0.033428811  0.000000000
    -8.635519028 14.957157706  0.000000000     0.000000000  0.066857622  0.000000000
     0.000000000  0.000000000 15.000000000     0.000000000  0.000000000  0.066666667

  length of vectors
    17.271038055 17.271038055 15.000000000     0.066857622  0.066857622  0.066666667

  position of ions in fractional coordinates (direct lattice)
     0.998933432  0.999222445  0.500876356
     0.998921730  0.142029971  0.500164001
     0.999009171  0.285187003  0.499713286
     0.998924969  0.428251391  0.499970848
     0.998975938  0.571094485  0.500723338
     0.999171838  0.713752802  0.500884974
     0.999149927  0.856788675  0.500846709
     0.142568612  0.000007282  0.500846843
     0.142182351  0.142521395  0.499840880
     0.141307125  0.284667936  0.498693883
     0.141301229  0.427998465  0.498574615
     0.142190767  0.571021282  0.499684085
     0.142596225  0.713943810  0.500822275
     0.142548729  0.856961228  0.501160855
     0.285715776  0.000015409  0.500939977
     0.285970313  0.143086647  0.499749638
     0.285512967  0.286829056  0.497660344
     0.282873326  0.427115688  0.496469372
     0.285496364  0.570026501  0.497580418
     0.285967494  0.714235834  0.499654332
     0.285731838  0.857088586  0.500879502
     0.428606237  0.999990490  0.500971181
     0.429265973  0.143528573  0.500310658
     0.428063438  0.283701187  0.498496993
     0.428062037  0.715705939  0.498503891
     0.429266082  0.857094208  0.500332384
     0.571183699  0.999935381  0.500618834
     0.571201746  0.142656465  0.500557272
     0.574597709  0.288588288  0.499276052
     0.574590569  0.857394990  0.499378168
     0.714030289  0.000317940  0.500047919
     0.713943737  0.142678134  0.500593012
     0.714055945  0.285134504  0.499834172
     0.709688343  0.424328701  0.497352270
     0.714658551  0.571285635  0.489116488
     0.714644790  0.714750686  0.489236380
     0.709703630  0.856781461  0.497580821
     0.856049814  0.999321095  0.499906442
     0.856466983  0.142550398  0.500294138
     0.856499082  0.285339225  0.500171919
     0.856080351  0.428126500  0.499647400
     0.855175559  0.570264238  0.498871087
     0.856244759  0.713801164  0.497736584
     0.855146938  0.856251060  0.499061644
     0.046813064  0.094594232  0.500419060
     0.046092590  0.237050592  0.499575084
     0.046090544  0.380405000  0.499444866
     0.046819406  0.523579052  0.500238671
     0.046965222  0.666400471  0.501003951
     0.046827127  0.809098207  0.501057112
     0.046944648  0.951926898  0.501025335
     0.190292858  0.095054646  0.500171293
     0.189532483  0.237655923  0.498704962
     0.187682073  0.379534168  0.497875206
     0.189530760  0.523224301  0.498574665
     0.190307011  0.666600812  0.500062752
     0.190393657  0.809460671  0.500994131
     0.190392340  0.952328354  0.501012249
     0.333809403  0.095760878  0.500414759
     0.334628133  0.238591026  0.498596317
     0.329318142  0.379533244  0.496203519
     0.329302960  0.521138136  0.496164463
     0.334634205  0.667389338  0.498523835
     0.333810528  0.809413617  0.500338453
     0.333146568  0.952270810  0.501048343
     0.476201589  0.095183112  0.500728664
     0.476909629  0.239246558  0.499531932
     0.476897445  0.809010868  0.499565861
     0.476193788  0.952396912  0.500778456
     0.618617671  0.095009606  0.500690248
     0.619330861  0.238088241  0.499895997
     0.619313873  0.952642658  0.500023256
     0.761623379  0.095468680  0.500504509
     0.761629519  0.237564617  0.500344340
     0.760707613  0.379932219  0.498956789
     0.758754173  0.522624806  0.495341883
     0.760468533  0.665918155  0.491794183
     0.758740208  0.807508453  0.495575634
     0.760692536  0.952198129  0.499215117
     0.903652403  0.094314802  0.500224695
     0.903961994  0.237670300  0.500158286
     0.903679647  0.380731225  0.500032023
     0.903535102  0.523467887  0.500127086
     0.903310984  0.665728012  0.499407027
     0.903286453  0.808917924  0.499472223
     0.903498230  0.951410149  0.500341291
     0.466529082  0.356321776  0.497371364
     0.401850340  0.419173356  0.496209339
     0.401834988  0.554043544  0.496137508
     0.642269909  0.679056554  0.481003442
     0.642280325  0.534609845  0.480842614
     0.466538611  0.681564494  0.497389075
     0.556698993  0.608597553  0.577988011
     0.557371060  0.519849840  0.578008472
     0.619614951  0.379120463  0.498216922
     0.619628086  0.811905370  0.498389121
     0.518031495  0.544498651  0.569775954

  ion indices of the primitive-cell ions
   primitive index   ion index
                 1           1
                 2           2
                 3           3
                 4           4
                 5           5
                 6           6
                 7           7
                 8           8
                 9           9
                10          10
                11          11
                12          12
                13          13
                14          14
                15          15
                16          16
                17          17
                18          18
                19          19
                20          20
                21          21
                22          22
                23          23
                24          24
                25          25
                26          26
                27          27
                28          28
                29          29
                30          30
                31          31
                32          32
                33          33
                34          34
                35          35
                36          36
                37          37
                38          38
                39          39
                40          40
                41          41
                42          42
                43          43
                44          44
                45          45
                46          46
                47          47
                48          48
                49          49
                50          50
                51          51
                52          52
                53          53
                54          54
                55          55
                56          56
                57          57
                58          58
                59          59
                60          60
                61          61
                62          62
                63          63
                64          64
                65          65
                66          66
                67          67
                68          68
                69          69
                70          70
                71          71
                72          72
                73          73
                74          74
                75          75
                76          76
                77          77
                78          78
                79          79
                80          80
                81          81
                82          82
                83          83
                84          84
                85          85
                86          86
                87          87
                88          88
                89          89
                90          90
                91          91
                92          92
                93          93
                94          94
                95          95
                96          96
                97          97

----------------------------------------------------------------------------------------

 
 
 KPOINTS: Automatic mesh                          

Automatic generation of k-mesh.
 Grid dimensions read from file:
 generate k-points for:    2    2    1

 Generating k-lattice:

  Cartesian coordinates                     Fractional coordinates (reciprocal lattice)
     0.028950200  0.016714406  0.000000000     0.500000000  0.000000000  0.000000000
     0.000000000  0.033428811  0.000000000     0.000000000  0.500000000  0.000000000
     0.000000000  0.000000000  0.066666667     0.000000000  0.000000000  1.000000000

  Length of vectors
     0.033428811  0.033428811  0.066666667

  Shift w.r.t. Gamma in fractional coordinates (k-lattice)
     0.000000000  0.000000000  0.000000000

 
 Subroutine IBZKPT returns following result:
 ===========================================
 
 Found      4 irreducible k-points:
 
 Following reciprocal coordinates:
            Coordinates               Weight
  0.000000  0.000000  0.000000      1.000000
  0.500000  0.000000  0.000000      1.000000
  0.000000  0.500000  0.000000      1.000000
  0.500000  0.500000  0.000000      1.000000
 
 Following cartesian coordinates:
            Coordinates               Weight
  0.000000  0.000000  0.000000      1.000000
  0.028950  0.016714  0.000000      1.000000
  0.000000  0.033429  0.000000      1.000000
  0.028950  0.050143  0.000000      1.000000
 


--------------------------------------------------------------------------------------------------------




 Dimension of arrays:
   k-points           NKPTS =      4   k-points in BZ     NKDIM =      4   number of bands    NBANDS=    265
   number of dos      NEDOS =    301   number of ions     NIONS =     97
   non local maximal  LDIM  =      4   non local SUM 2l+1 LMDIM =      8
   total plane-waves  NPLWV = 774144
   max r-space proj   IRMAX =   1673   max aug-charges    IRDMAX=  20933
   dimension x,y,z NGX =    96 NGY =   96 NGZ =   84
   dimension x,y,z NGXF=   192 NGYF=  192 NGZF=  168
   support grid    NGXF=   384 NGYF=  384 NGZF=  336
   ions per type =              86   8   2   1
   NGX,Y,Z   is equivalent  to a cutoff of   9.24,  9.24,  9.31 a.u.
   NGXF,Y,Z  is equivalent  to a cutoff of  18.48, 18.48, 18.62 a.u.

 SYSTEM =  unknown system                          
 POSCAR =  C    H    N    O                        

 Startparameter for this run:
   NWRITE =      2    write-flag & timer
   PREC   = normal    normal or accurate (medium, high low for compatibility)
   ISTART =      0    job   : 0-new  1-cont  2-samecut
   ICHARG =      2    charge: 1-file 2-atom 10-const
   ISPIN  =      2    spin polarized calculation?
   LNONCOLLINEAR =      F non collinear calculations
   LSORBIT =      F    spin-orbit coupling
   INIWAV =      1    electr: 0-lowe 1-rand  2-diag
   LASPH  =      T    aspherical Exc in radial PAW
 Electronic Relaxation 1
   ENCUT  =  520.0 eV  38.22 Ry    6.18 a.u.  32.11 32.11 27.89*2*pi/ulx,y,z
   ENINI  =  520.0     initial cutoff
   ENAUG  =  644.9 eV  augmentation charge cutoff
   NELM   =    200;   NELMIN=  2; NELMDL= -5     # of ELM steps 
   EDIFF  = 0.1E-04   stopping-criterion for ELM
   LREAL  =      T    real-space projection
   NLSPLINE    = F    spline interpolate recip. space projectors
   LCOMPAT=      F    compatible to vasp.4.4
   GGA_COMPAT  = T    GGA compatible to vasp.4.4-vasp.4.6
   LMAXPAW     = -100 max onsite density
   LMAXMIX     =    2 max onsite mixed and CHGCAR
   VOSKOWN=      0    Vosko Wilk Nusair interpolation
   ROPT   =   -0.00050  -0.00050  -0.00050  -0.00050
 Ionic relaxation
   EDIFFG = -.3E-01   stopping-criterion for IOM
   NSW    =    300    number of steps for IOM
   NBLOCK =      1;   KBLOCK =    300    inner block; outer block 
   IBRION =      3    ionic relax: 0-MD 1-quasi-New 2-CG
   NFREE  =      0    steps in history (QN), initial steepest desc. (CG)
   ISIF   =      2    stress and relaxation
   IWAVPR =     11    prediction:  0-non 1-charg 2-wave 3-comb
   ISYM   =      0    0-nonsym 1-usesym 2-fastsym
   LCORR  =      T    Harris-Foulkes like correction to forces

   POTIM  = 0.0000    time-step for ionic-motion
   TEIN   =    0.0    initial temperature
   TEBEG  =    0.0;   TEEND  =   0.0 temperature during run
   SMASS  =  -3.00    Nose mass-parameter (am)
   estimated Nose-frequenzy (Omega)   =  0.10E-29 period in steps = 0.00E+00 mass=  -0.682E-26a.u.
   SCALEE = 1.0000    scale energy and forces
   NPACO  =    256;   APACO  = 10.0  distance and # of slots for P.C.
   PSTRESS=    0.0 pullay stress

  Mass of Ions in am
   POMASS =  12.01  1.00 14.00 16.00
  Ionic Valenz
   ZVAL   =   4.00  1.00  5.00  6.00
  Atomic Wigner-Seitz radii
   RWIGS  =  -1.00 -1.00 -1.00 -1.00
  virtual crystal weights 
   VCA    =   1.00  1.00  1.00  1.00
   NELECT =     368.0000    total number of electrons
   NUPDOWN=      -1.0000    fix difference up-down

 DOS related values:
   EMIN   =  10.00;   EMAX   =-10.00  energy-range for DOS
   EFERMI =   0.00;   METHOD = LEGACY      
   ISMEAR =     0;   SIGMA  =   0.05  broadening in eV -4-tet -1-fermi 0-gaus

 Electronic relaxation 2 (details)
   IALGO  =     38    algorithm
   LDIAG  =      T    sub-space diagonalisation (order eigenvalues)
   LSUBROT=      F    optimize rotation matrix (better conditioning)
   TURBO    =      0    0=normal 1=particle mesh
   IRESTART =      0    0=no restart 2=restart with 2 vectors
   NREBOOT  =      0    no. of reboots
   NMIN     =      0    reboot dimension
   EREF     =   0.00    reference energy to select bands
   IMIX   =      4    mixing-type and parameters
     AMIX     =   0.20;   BMIX     =  0.00
     AMIX_MAG =   0.80;   BMIX_MAG =  0.00
     AMIN     =   0.10
     WC   =   100.;   INIMIX=   1;  MIXPRE=   1;  MAXMIX= -45

 Intra band minimization:
   WEIMIN = 0.0010     energy-eigenvalue tresh-hold
   EBREAK =  0.94E-08  absolut break condition
   DEPER  =   0.30     relativ break condition  

   TIME   =   0.40     timestep for ELM

  volume/ion in A,a.u.               =      39.95       269.58
  Fermi-wavevector in a.u.,A,eV,Ry     =   0.746915  1.411465  7.590446  0.557882
  Thomas-Fermi vector in A             =   1.842848
 
 Write flags
   LWAVE        =      F    write WAVECAR
   LDOWNSAMPLE  =      F    k-point downsampling of WAVECAR
   LCHARG       =      F    write CHGCAR
   LVTOT        =      F    write LOCPOT, total local potential
   LVHAR        =      F    write LOCPOT, Hartree potential only
   LELF         =      F    write electronic localiz. function (ELF)
   LORBIT       =      0    0 simple, 1 ext, 2 COOP (PROOUT), +10 PAW based schemes


 Dipole corrections
   LMONO  =      F    monopole corrections only (constant potential shift)
   LDIPOL =      F    correct potential (dipole corrections)
   IDIPOL =      0    1-x, 2-y, 3-z, 4-all directions 
   EPSILON=  1.0000000 bulk dielectric constant

 Exchange correlation treatment:
   GGA     =    --    GGA type
   LEXCH   =     8    internal setting for exchange type
   LIBXC   =     F    Libxc                    
   VOSKOWN =     0    Vosko Wilk Nusair interpolation
   LHFCALC =     F    Hartree Fock is set to
   LHFONE  =     F    Hartree Fock one center treatment
   AEXX    =    0.0000 exact exchange contribution

 Linear response parameters
   LEPSILON=     F    determine dielectric tensor
   LRPA    =     F    only Hartree local field effects (RPA)
   LNABLA  =     F    use nabla operator in PAW spheres
   LVEL    =     F    velocity operator in full k-point grid
   CSHIFT  =0.1000    complex shift for real part using Kramers Kronig
   OMEGAMAX=  -1.0    maximum frequency
   DEG_THRESHOLD= 0.2000000E-02 threshold for treating states as degnerate
   RTIME   =   -0.100 relaxation time in fs
  (WPLASMAI=    0.000 imaginary part of plasma frequency in eV, 0.658/RTIME)
   DFIELD  = 0.0000000 0.0000000 0.0000000 field for delta impulse in time
 
  Optional k-point grid parameters
   LKPOINTS_OPT  =     F    use optional k-point grid
   KPOINTS_OPT_MODE=     1    mode for optional k-point grid
 
 Orbital magnetization related:
   ORBITALMAG=     F  switch on orbital magnetization
   LCHIMAG   =     F  perturbation theory with respect to B field
   DQ        =  0.001000  dq finite difference perturbation B field
   LLRAUG    =     F  two centre corrections for induced B field
   LBONE     =     F  B-component reconstruction in AE one-centre
   LVGVCALC  =     T  calculate vGv susceptibility
   LVGVAPPL  =     F  apply vGv susceptibility instead of pGv for G=0

 Random number generation:
   RANDOM_GENERATOR = DEFAULT
   PCG_SEED         = not used


--------------------------------------------------------------------------------------------------------


 quickmin algorithm: (dynamic with friction)
   using selective dynamics as specified on POSCAR
 charge density and potential will be updated during run
 spin polarized calculation
 Variant of blocked Davidson
 Davidson routine will perform the subspace rotation
 perform sub-space diagonalisation
    after iterative eigenvector-optimisation
 modified Broyden-mixing scheme, WC =      100.0
 initial mixing is a Kerker type mixing with AMIX =  0.2000 and BMIX =      0.0001
 Hartree-type preconditioning will be used
 using additional bands           81
 real space projection scheme for non local part
 use partial core corrections
 calculate Harris-corrections to forces 
   (improved forces if not selfconsistent)
 use gradient corrections 
 use of overlap-Matrix (Vanderbilt PP)
 Gauss-broadening in eV      SIGMA  =   0.05


--------------------------------------------------------------------------------------------------------


  energy-cutoff  :      520.00
  volume of cell :     3874.88
      direct lattice vectors                 reciprocal lattice vectors
    17.271038055  0.000000000  0.000000000     0.057900399  0.033428811  0.000000000
    -8.635519028 14.957157706  0.000000000     0.000000000  0.066857622  0.000000000
     0.000000000  0.000000000 15.000000000     0.000000000  0.000000000  0.066666667

  length of vectors
    17.271038055 17.271038055 15.000000000     0.066857622  0.066857622  0.066666667


 
 k-points in units of 2pi/SCALE and weight: Automatic mesh                          
   0.00000000  0.00000000  0.00000000       0.250
   0.02895020  0.01671441  0.00000000       0.250
   0.00000000  0.03342881  0.00000000       0.250
   0.02895020  0.05014322  0.00000000       0.250
 
 k-points in reciprocal lattice and weights: Automatic mesh                          
   0.00000000  0.00000000  0.00000000       0.250
   0.50000000  0.00000000  0.00000000       0.250
   0.00000000  0.50000000  0.00000000       0.250
   0.50000000  0.50000000  0.00000000       0.250
 
 position of ions in fractional coordinates (direct lattice) 
   0.99893343  0.99922244  0.50087636
   0.99892173  0.14202997  0.50016400
   0.99900917  0.28518700  0.49971329
   0.99892497  0.42825139  0.49997085
   0.99897594  0.57109448  0.50072334
   0.99917184  0.71375280  0.50088497
   0.99914993  0.85678868  0.50084671
   0.14256861  0.00000728  0.50084684
   0.14218235  0.14252139  0.49984088
   0.14130713  0.28466794  0.49869388
   0.14130123  0.42799847  0.49857462
   0.14219077  0.57102128  0.49968409
   0.14259623  0.71394381  0.50082228
   0.14254873  0.85696123  0.50116086
   0.28571578  0.00001541  0.50093998
   0.28597031  0.14308665  0.49974964
   0.28551297  0.28682906  0.49766034
   0.28287333  0.42711569  0.49646937
   0.28549636  0.57002650  0.49758042
   0.28596749  0.71423583  0.49965433
   0.28573184  0.85708859  0.50087950
   0.42860624  0.99999049  0.50097118
   0.42926597  0.14352857  0.50031066
   0.42806344  0.28370119  0.49849699
   0.42806204  0.71570594  0.49850389
   0.42926608  0.85709421  0.50033238
   0.57118370  0.99993538  0.50061883
   0.57120175  0.14265647  0.50055727
   0.57459771  0.28858829  0.49927605
   0.57459057  0.85739499  0.49937817
   0.71403029  0.00031794  0.50004792
   0.71394374  0.14267813  0.50059301
   0.71405594  0.28513450  0.49983417
   0.70968834  0.42432870  0.49735227
   0.71465855  0.57128564  0.48911649
   0.71464479  0.71475069  0.48923638
   0.70970363  0.85678146  0.49758082
   0.85604981  0.99932110  0.49990644
   0.85646698  0.14255040  0.50029414
   0.85649908  0.28533922  0.50017192
   0.85608035  0.42812650  0.49964740
   0.85517556  0.57026424  0.49887109
   0.85624476  0.71380116  0.49773658
   0.85514694  0.85625106  0.49906164
   0.04681306  0.09459423  0.50041906
   0.04609259  0.23705059  0.49957508
   0.04609054  0.38040500  0.49944487
   0.04681941  0.52357905  0.50023867
   0.04696522  0.66640047  0.50100395
   0.04682713  0.80909821  0.50105711
   0.04694465  0.95192690  0.50102533
   0.19029286  0.09505465  0.50017129
   0.18953248  0.23765592  0.49870496
   0.18768207  0.37953417  0.49787521
   0.18953076  0.52322430  0.49857467
   0.19030701  0.66660081  0.50006275
   0.19039366  0.80946067  0.50099413
   0.19039234  0.95232835  0.50101225
   0.33380940  0.09576088  0.50041476
   0.33462813  0.23859103  0.49859632
   0.32931814  0.37953324  0.49620352
   0.32930296  0.52113814  0.49616446
   0.33463420  0.66738934  0.49852383
   0.33381053  0.80941362  0.50033845
   0.33314657  0.95227081  0.50104834
   0.47620159  0.09518311  0.50072866
   0.47690963  0.23924656  0.49953193
   0.47689745  0.80901087  0.49956586
   0.47619379  0.95239691  0.50077846
   0.61861767  0.09500961  0.50069025
   0.61933086  0.23808824  0.49989600
   0.61931387  0.95264266  0.50002326
   0.76162338  0.09546868  0.50050451
   0.76162952  0.23756462  0.50034434
   0.76070761  0.37993222  0.49895679
   0.75875417  0.52262481  0.49534188
   0.76046853  0.66591816  0.49179418
   0.75874021  0.80750845  0.49557563
   0.76069254  0.95219813  0.49921512
   0.90365240  0.09431480  0.50022469
   0.90396199  0.23767030  0.50015829
   0.90367965  0.38073122  0.50003202
   0.90353510  0.52346789  0.50012709
   0.90331098  0.66572801  0.49940703
   0.90328645  0.80891792  0.49947222
   0.90349823  0.95141015  0.50034129
   0.46652908  0.35632178  0.49737136
   0.40185034  0.41917336  0.49620934
   0.40183499  0.55404354  0.49613751
   0.64226991  0.67905655  0.48100344
   0.64228032  0.53460985  0.48084261
   0.46653861  0.68156449  0.49738907
   0.55669899  0.60859755  0.57798801
   0.55737106  0.51984984  0.57800847
   0.61961495  0.37912046  0.49821692
   0.61962809  0.81190537  0.49838912
   0.51803149  0.54449865  0.56977595
 
 position of ions in cartesian coordinates  (Angst):
   8.62381289 14.94552769  7.51314535
  16.02591270  2.12436468  7.50246002
  14.79118762  4.26558697  7.49569928
  13.55429812  6.40542360  7.49956271
  12.32165415  8.54195027  7.51085007
  11.09310894 10.67571322  7.51327460
   9.85754150 12.81512333  7.51270063
   2.46224503  0.00010892  7.51270265
   1.22489057  2.13171498  7.49761320
  -0.01773464  4.25782321  7.48040825
  -1.25556998  6.40164054  7.47861923
  -2.47528299  8.54085536  7.49526128
  -3.70249052 10.67857015  7.51233413
  -4.93834047 12.81770423  7.51741283
   4.93447497  0.00023048  7.51409965
   3.70337669  2.14016954  7.49624456
   2.45418754  4.29014743  7.46490516
   1.19715033  6.38843670  7.44704058
   0.00834388  8.52597627  7.46370627
  -1.22884167 10.68293801  7.49481498
  -2.46651935 12.81960914  7.51319252
  -1.23296228 14.95701547  7.51456771
   6.17442524  2.14677950  7.50465987
   4.94319292  4.24336339  7.47745489
   1.21258347 10.70492661  7.47755836
   0.01241749 12.81969324  7.50498576
   1.22997439 14.95619120  7.50928251
   8.63333447  2.13373525  7.50835909
   7.43178925  4.31646053  7.48914078
   2.51972484 12.82419209  7.49067253
  12.32929871  0.00475548  7.50071878
  11.09844971  2.13405935  7.50889518
   9.87020296  4.26480174  7.49751258
   8.59275581  6.34675130  7.46028405
   7.40954705  8.54480934  7.33674731
   6.17041421 10.69063873  7.33854570
   4.85856579 12.81501543  7.46371231
   6.15521258 14.94700322  7.49859662
  13.56107718  2.13214878  7.50441207
  12.32857593  4.26786379  7.50257879
  11.08830179  6.40355557  7.49471100
   9.84524194  8.52953214  7.48306631
   8.62419228 10.67643659  7.46604875
   7.37510300 12.80708214  7.48592466
  -0.00836008  1.41486084  7.50628589
  -1.25098802  3.54560310  7.49362626
  -2.48896307  5.68977758  7.49167300
  -3.71275713  7.83125445  7.50358007
  -4.94357582  9.96745695  7.51505927
  -6.17822986 12.10180948  7.51585667
  -7.40960004 14.23812074  7.51538002
   2.46570899  1.42174734  7.50256939
   1.22114048  3.55465713  7.48057443
  -0.03601032  5.67675241  7.46812810
  -1.24492044  7.82594839  7.47861998
  -2.46964436  9.97045347  7.50094128
  -3.70181692 12.10723092  7.51491196
  -4.93557627 14.24412538  7.51518373
   4.93829001  1.43231055  7.50622139
   3.71901788  3.56864360  7.47894475
   2.41019962  5.67673858  7.44305279
   1.18710568  7.79474528  7.44246695
   0.01622676  9.98224758  7.47785752
  -1.22445235 12.10652712  7.50507680
  -2.46956564 14.24326468  7.51572514
   7.40254020  1.42366881  7.51092995
   6.17070614  3.57844850  7.49297898
   1.25028518 12.10050314  7.49348792
  -0.00008061 14.24515081  7.51167684
   9.86371208  1.42107366  7.51035371
   8.64047134  3.56112337  7.49843996
   2.46962967 14.24882648  7.50034885
  12.32960476  1.42794011  7.50756763
  11.10263864  3.55329144  7.50516511
   9.85729823  5.68270612  7.48435183
   8.59133574  7.81698164  7.43012825
   7.38353207  9.96024287  7.37691275
   6.13097640 12.07803127  7.43363452
   4.91522466 14.24217759  7.48822676
  14.79255778  1.41068137  7.50337042
  13.55995560  3.55487216  7.50237429
  12.31967383  5.69465697  7.50048034
  11.08457223  7.82959173  7.50190629
   9.85221147  9.95739887  7.49110540
   8.61526857 12.09911297  7.49208335
   7.38843186 14.23039164  7.50511936
   4.98041805  5.32956099  7.46057046
   3.32059301  6.26964200  7.44314009
   2.15565381  8.28691666  7.44206262
   5.22866224 10.15675597  7.21505163
   6.47621444  7.99624377  7.21263922
   2.17194295 10.19426763  7.46083612
   4.35921375  9.10288958  8.66982017
   5.13720361  7.77547604  8.67012708
   7.42749143  5.67056455  7.47325383
   3.69039598 12.14379666  7.47583681
   4.24491320  8.14415219  8.54663931
 


--------------------------------------------------------------------------------------------------------


 k-point   1 :   0.0000 0.0000 0.0000  plane waves:  104449
 k-point   2 :   0.5000 0.0000 0.0000  plane waves:  104264
 k-point   3 :   0.0000 0.5000 0.0000  plane waves:  104264
 k-point   4 :   0.5000 0.5000 0.0000  plane waves:  104264

 maximum and minimum number of plane-waves per node :    104449   104264

 maximum number of plane-waves:    104449
 maximum index in each direction: 
   IXMAX=   32   IYMAX=   32   IZMAX=   27
   IXMIN=  -32   IYMIN=  -32   IZMIN=  -27


 serial   3D FFT for wavefunctions
 parallel 3D FFT for charge:
    minimum data exchange during FFTs selected (reduces bandwidth)


 total amount of memory used by VASP MPI-rank0  1122718. kBytes
=======================================================================

   base      :      30000. kBytes
   nonlr-proj:       9011. kBytes
   fftplans  :     185212. kBytes
   grid      :     184190. kBytes
   one-center:        595. kBytes
   wavefun   :     713710. kBytes
 
     INWAV:  cpu time      0.0000: real time      0.0000
 Broyden mixing: mesh for mixing (old mesh)
   NGX = 65   NGY = 65   NGZ = 55
  (NGX  =192   NGY  =192   NGZ  =168)
  gives a total of 232375 points

 initial charge density was supplied:
 charge density of overlapping atoms calculated
 number of electron     368.0000000 magnetization      58.2000000
 keeping initial charge density in first step


--------------------------------------------------------------------------------------------------------


 Maximum index for non-local projection operator         1581
 Maximum index for augmentation-charges         4024 (set IRDMAX)


--------------------------------------------------------------------------------------------------------


 First call to EWALD:  gamma=   0.113
 Maximum number of real-space cells 3x 3x 3
 Maximum number of reciprocal cells 3x 3x 3

    FEWALD:  cpu time      0.0053: real time      0.0053


--------------------------------------- Ionic step        1  -------------------------------------------




--------------------------------------- Iteration      1(   1)  ---------------------------------------


    POTLOK:  cpu time      2.5494: real time      2.6192
    SETDIJ:  cpu time      3.0652: real time      3.0862
     EDDAV:  cpu time     77.9650: real time     79.0727
       DOS:  cpu time      0.0012: real time      0.0204
    --------------------------------------------
      LOOP:  cpu time     83.5809: real time     84.7986

 eigenvalue-minimisations  :  4580
 total energy-change (2. order) : 0.3260155E+04  (-0.1376212E+05)
 number of electron     368.0000000 magnetization      58.2000000
 augmentation part      368.0000000 magnetization      58.2000000

 Free energy of the ion-electron system (eV)
  ---------------------------------------------------
  alpha Z        PSCENC =       175.87611319
  Ewald energy   TEWEN  =     36492.03410021
  -Hartree energ DENC   =    -46691.82026334
  -exchange      EXHF   =         0.00000000
  -V(xc)+E(xc)   XCENC  =      1223.89316317
  PAW double counting   =     10101.41315093   -10154.35997595
  entropy T*S    EENTRO =        -0.04541372
  eigenvalues    EBANDS =     -1602.96641127
  atomic energy  EATOM  =     13716.13071916
  Solvation  Ediel_sol  =         0.00000000
  ---------------------------------------------------
  free energy    TOTEN  =      3260.15518237 eV

  energy without entropy =     3260.20059609  energy(sigma->0) =     3260.17788923


--------------------------------------------------------------------------------------------------------




--------------------------------------- Iteration      1(   2)  ---------------------------------------


     EDDAV:  cpu time    100.8744: real time    102.4667
       DOS:  cpu time      0.0008: real time      0.0135
    --------------------------------------------
      LOOP:  cpu time    100.8752: real time    102.4802

 eigenvalue-minimisations  :  6400
 total energy-change (2. order) :-0.3511034E+04  (-0.3306848E+04)
 number of electron     368.0000000 magnetization      58.2000000
 augmentation part      368.0000000 magnetization      58.2000000

 Free energy of the ion-electron system (eV)
  ---------------------------------------------------
  alpha Z        PSCENC =       175.87611319
  Ewald energy   TEWEN  =     36492.03410021
  -Hartree energ DENC   =    -46691.82026334
  -exchange      EXHF   =         0.00000000
  -V(xc)+E(xc)   XCENC  =      1223.89316317
  PAW double counting   =     10101.41315093   -10154.35997595
  entropy T*S    EENTRO =        -0.00003733
  eigenvalues    EBANDS =     -5114.04574019
  atomic energy  EATOM  =     13716.13071916
  Solvation  Ediel_sol  =         0.00000000
  ---------------------------------------------------
  free energy    TOTEN  =      -250.87877016 eV

  energy without entropy =     -250.87873284  energy(sigma->0) =     -250.87875150


--------------------------------------------------------------------------------------------------------




--------------------------------------- Iteration      1(   3)  ---------------------------------------


     EDDAV:  cpu time     86.8233: real time     88.1955
       DOS:  cpu time      0.0007: real time      0.0045
    --------------------------------------------
      LOOP:  cpu time     86.8241: real time     88.2000

 eigenvalue-minimisations  :  5330
 total energy-change (2. order) :-0.6134978E+03  (-0.6107618E+03)
 number of electron     368.0000000 magnetization      58.2000000
 augmentation part      368.0000000 magnetization      58.2000000

 Free energy of the ion-electron system (eV)
  ---------------------------------------------------
  alpha Z        PSCENC =       175.87611319
  Ewald energy   TEWEN  =     36492.03410021
  -Hartree energ DENC   =    -46691.82026334
  -exchange      EXHF   =         0.00000000
  -V(xc)+E(xc)   XCENC  =      1223.89316317
  PAW double counting   =     10101.41315093   -10154.35997595
  entropy T*S    EENTRO =        -0.00000107
  eigenvalues    EBANDS =     -5727.54359219
  atomic energy  EATOM  =     13716.13071916
  Solvation  Ediel_sol  =         0.00000000
  ---------------------------------------------------
  free energy    TOTEN  =      -864.37658590 eV

  energy without entropy =     -864.37658483  energy(sigma->0) =     -864.37658537


--------------------------------------------------------------------------------------------------------




--------------------------------------- Iteration      1(   4)  ---------------------------------------


     EDDAV:  cpu time     88.2343: real time     89.5671
       DOS:  cpu time      0.0009: real time      0.0049
    --------------------------------------------
      LOOP:  cpu time     88.2353: real time     89.5721

 eigenvalue-minimisations  :  5420
 total energy-change (2. order) :-0.2214895E+02  (-0.2207087E+02)
 number of electron     368.0000000 magnetization      58.2000000
 augmentation part      368.0000000 magnetization      58.2000000

 Free energy of the ion-electron system (eV)
  ---------------------------------------------------
  alpha Z        PSCENC =       175.87611319
  Ewald energy   TEWEN  =     36492.03410021
  -Hartree energ DENC   =    -46691.82026334
  -exchange      EXHF   =         0.00000000
  -V(xc)+E(xc)   XCENC  =      1223.89316317
  PAW double counting   =     10101.41315093   -10154.35997595
  entropy T*S    EENTRO =        -0.00000146
  eigenvalues    EBANDS =     -5749.69254253
  atomic energy  EATOM  =     13716.13071916
  Solvation  Ediel_sol  =         0.00000000
  ---------------------------------------------------
  free energy    TOTEN  =      -886.52553663 eV

  energy without entropy =     -886.52553518  energy(sigma->0) =     -886.52553591


--------------------------------------------------------------------------------------------------------




--------------------------------------- Iteration      1(   5)  ---------------------------------------


     EDDAV:  cpu time     96.5902: real time     98.0063
       DOS:  cpu time      0.0008: real time      0.0056
    CHARGE:  cpu time      5.0305: real time      5.1441
    MIXING:  cpu time      0.0433: real time      0.0435
    --------------------------------------------
      LOOP:  cpu time    101.6648: real time    103.1997

 eigenvalue-minimisations  :  6050
 total energy-change (2. order) :-0.6271793E+00  (-0.6264364E+00)
 number of electron     367.9999999 magnetization      12.4400107
 augmentation part       10.6105642 magnetization      11.5150465

 Broyden mixing:
  rms(total) = 0.51796E+01    rms(broyden)= 0.51790E+01
  rms(prec ) = 0.56431E+01
  weight for this iteration     100.00

 Free energy of the ion-electron system (eV)
  ---------------------------------------------------
  alpha Z        PSCENC =       175.87611319
  Ewald energy   TEWEN  =     36492.03410021
  -Hartree energ DENC   =    -46691.82026334
  -exchange      EXHF   =         0.00000000
  -V(xc)+E(xc)   XCENC  =      1223.89316317
  PAW double counting   =     10101.41315093   -10154.35997595
  entropy T*S    EENTRO =        -0.00000156
  eigenvalues    EBANDS =     -5750.31972170
  atomic energy  EATOM  =     13716.13071916
  Solvation  Ediel_sol  =         0.00000000
  ---------------------------------------------------
  free energy    TOTEN  =      -887.15271590 eV

  energy without entropy =     -887.15271435  energy(sigma->0) =     -887.15271512


--------------------------------------------------------------------------------------------------------




--------------------------------------- Iteration      1(   6)  ---------------------------------------


    POTLOK:  cpu time      2.3621: real time      2.3915
    SETDIJ:  cpu time      3.1525: real time      3.2081
     EDDAV:  cpu time     84.5257: real time     85.7722
       DOS:  cpu time      0.0010: real time      0.0052
    CHARGE:  cpu time      4.8812: real time      4.9570
    MIXING:  cpu time      0.0465: real time      0.0469
    --------------------------------------------
      LOOP:  cpu time     94.9689: real time     96.3809

 eigenvalue-minimisations  :  5160
 total energy-change (2. order) : 0.1735866E+02  (-0.2202516E+01)
 number of electron     367.9999999 magnetization      -5.8219856
 augmentation part       10.2442229 magnetization      -5.8413660

 Broyden mixing:
  rms(total) = 0.33690E+01    rms(broyden)= 0.33689E+01
  rms(prec ) = 0.37110E+01
  weight for this iteration     100.00

 eigenvalues of (default mixing * dielectric matrix)
  average eigenvalue GAMMA=   1.4225
  1.4225

 Free energy of the ion-electron system (eV)
  ---------------------------------------------------
  alpha Z        PSCENC =       175.87611319
  Ewald energy   TEWEN  =     36492.03410021
  -Hartree energ DENC   =    -47154.60581962
  -exchange      EXHF   =         0.00000000
  -V(xc)+E(xc)   XCENC  =      1234.05743802
  PAW double counting   =     13812.84666911   -13869.64324650
  entropy T*S    EENTRO =        -0.00233729
  eigenvalues    EBANDS =     -5276.48769537
  atomic energy  EATOM  =     13716.13071916
  Solvation  Ediel_sol  =         0.00000000
  ---------------------------------------------------
  free energy    TOTEN  =      -869.79405909 eV

  energy without entropy =     -869.79172180  energy(sigma->0) =     -869.79289045


--------------------------------------------------------------------------------------------------------




--------------------------------------- Iteration      1(   7)  ---------------------------------------


    POTLOK:  cpu time      2.5346: real time      2.5570
    SETDIJ:  cpu time      3.2239: real time      3.2600
     EDDAV:  cpu time     82.9331: real time     84.1936
       DOS:  cpu time      0.0008: real time      0.0049
    CHARGE:  cpu time      4.9590: real time      5.0072
    MIXING:  cpu time      0.0406: real time      0.0409
    --------------------------------------------
      LOOP:  cpu time     93.6920: real time     95.0634

 eigenvalue-minimisations  :  5040
 total energy-change (2. order) : 0.2216446E+02  (-0.3278599E+01)
 number of electron     368.0000000 magnetization       1.3388166
 augmentation part        9.7951106 magnetization       1.3407254

 Broyden mixing:
  rms(total) = 0.20390E+01    rms(broyden)= 0.20389E+01
  rms(prec ) = 0.21612E+01
  weight for this iteration     100.00

 eigenvalues of (default mixing * dielectric matrix)
  average eigenvalue GAMMA=   2.4857
  1.2969  3.6745

 Free energy of the ion-electron system (eV)
  ---------------------------------------------------
  alpha Z        PSCENC =       175.87611319
  Ewald energy   TEWEN  =     36492.03410021
  -Hartree energ DENC   =    -47758.86371925
  -exchange      EXHF   =         0.00000000
  -V(xc)+E(xc)   XCENC  =      1255.48523487
  PAW double counting   =     20624.05636885   -20685.24286187
  entropy T*S    EENTRO =        -0.00001289
  eigenvalues    EBANDS =     -4667.10553945
  atomic energy  EATOM  =     13716.13071916
  Solvation  Ediel_sol  =         0.00000000
  ---------------------------------------------------
  free energy    TOTEN  =      -847.62959718 eV

  energy without entropy =     -847.62958429  energy(sigma->0) =     -847.62959074


--------------------------------------------------------------------------------------------------------




--------------------------------------- Iteration      1(   8)  ---------------------------------------


    POTLOK:  cpu time      2.2183: real time      2.2420
    SETDIJ:  cpu time      3.1937: real time      3.2608
     EDDAV:  cpu time     84.3896: real time     85.6199
       DOS:  cpu time      0.0007: real time      0.0045
    CHARGE:  cpu time      5.1485: real time      5.2339
    MIXING:  cpu time      0.0528: real time      0.0532
    --------------------------------------------
      LOOP:  cpu time     95.0037: real time     96.4142

 eigenvalue-minimisations  :  5130
 total energy-change (2. order) : 0.4802548E+01  (-0.2401597E+01)
 number of electron     368.0000000 magnetization      -0.8318699
 augmentation part        9.4338427 magnetization      -0.8322443

 Broyden mixing:
  rms(total) = 0.82047E+00    rms(broyden)= 0.82036E+00
  rms(prec ) = 0.84372E+00
  weight for this iteration     100.00

 eigenvalues of (default mixing * dielectric matrix)
  average eigenvalue GAMMA=   2.4560
  4.3699  1.3264  1.6716

 Free energy of the ion-electron system (eV)
  ---------------------------------------------------
  alpha Z        PSCENC =       175.87611319
  Ewald energy   TEWEN  =     36492.03410021
  -Hartree energ DENC   =    -48299.86543702
  -exchange      EXHF   =         0.00000000
  -V(xc)+E(xc)   XCENC  =      1276.14169877
  PAW double counting   =     31124.50056944   -31189.34203617
  entropy T*S    EENTRO =        -0.00000007
  eigenvalues    EBANDS =     -4138.30277635
  atomic energy  EATOM  =     13716.13071916
  Solvation  Ediel_sol  =         0.00000000
  ---------------------------------------------------
  free energy    TOTEN  =      -842.82704885 eV

  energy without entropy =     -842.82704878  energy(sigma->0) =     -842.82704882


--------------------------------------------------------------------------------------------------------




--------------------------------------- Iteration      1(   9)  ---------------------------------------


    POTLOK:  cpu time      2.2611: real time      2.2826
    SETDIJ:  cpu time      2.9661: real time      3.0031
     EDDAV:  cpu time     82.6423: real time     83.9441
       DOS:  cpu time      0.0008: real time      0.0051
    CHARGE:  cpu time      5.4085: real time      5.4651
    MIXING:  cpu time      0.0541: real time      0.0545
    --------------------------------------------
      LOOP:  cpu time     93.3328: real time     94.7545

 eigenvalue-minimisations  :  5000
 total energy-change (2. order) : 0.9995102E-01  (-0.1101017E+00)
 number of electron     368.0000000 magnetization       0.1413070
 augmentation part        9.4345324 magnetization       0.1416050

 Broyden mixing:
  rms(total) = 0.32954E+00    rms(broyden)= 0.32952E+00
  rms(prec ) = 0.34791E+00
  weight for this iteration     100.00

 eigenvalues of (default mixing * dielectric matrix)
  average eigenvalue GAMMA=   2.4306
  4.7234  1.1035  1.2244  2.6710

 Free energy of the ion-electron system (eV)
  ---------------------------------------------------
  alpha Z        PSCENC =       175.87611319
  Ewald energy   TEWEN  =     36492.03410021
  -Hartree energ DENC   =    -48271.65924044
  -exchange      EXHF   =         0.00000000
  -V(xc)+E(xc)   XCENC  =      1276.00744396
  PAW double counting   =     35269.87510697   -35334.40377730
  entropy T*S    EENTRO =        -0.00000007
  eigenvalues    EBANDS =     -4166.58756351
  atomic energy  EATOM  =     13716.13071916
  Solvation  Ediel_sol  =         0.00000000
  ---------------------------------------------------
  free energy    TOTEN  =      -842.72709783 eV

  energy without entropy =     -842.72709776  energy(sigma->0) =     -842.72709779


--------------------------------------------------------------------------------------------------------




--------------------------------------- Iteration      1(  10)  ---------------------------------------


    POTLOK:  cpu time      2.3861: real time      2.4083
    SETDIJ:  cpu time      3.2567: real time      3.3241
     EDDAV:  cpu time     81.7272: real time     82.9471
       DOS:  cpu time      0.0009: real time      0.0081
    CHARGE:  cpu time      5.0866: real time      5.1560
    MIXING:  cpu time      0.0661: real time      0.0666
    --------------------------------------------
      LOOP:  cpu time     92.5236: real time     93.9102

 eigenvalue-minimisations  :  4930
 total energy-change (2. order) : 0.9334476E-01  (-0.4598404E-01)
 number of electron     368.0000000 magnetization      -0.0111950
 augmentation part        9.4631521 magnetization      -0.0113697

 Broyden mixing:
  rms(total) = 0.97153E-01    rms(broyden)= 0.97142E-01
  rms(prec ) = 0.10769E+00
  weight for this iteration     100.00

 eigenvalues of (default mixing * dielectric matrix)
  average eigenvalue GAMMA=   2.3124
  4.7523  3.0987  0.9822  1.4709  1.2577

 Free energy of the ion-electron system (eV)
  ---------------------------------------------------
  alpha Z        PSCENC =       175.87611319
  Ewald energy   TEWEN  =     36492.03410021
  -Hartree energ DENC   =    -48213.04255717
  -exchange      EXHF   =         0.00000000
  -V(xc)+E(xc)   XCENC  =      1274.30854172
  PAW double counting   =     36992.78334597   -37056.80194852
  entropy T*S    EENTRO =        -0.00000004
  eigenvalues    EBANDS =     -4223.92206758
  atomic energy  EATOM  =     13716.13071916
  Solvation  Ediel_sol  =         0.00000000
  ---------------------------------------------------
  free energy    TOTEN  =      -842.63375307 eV

  energy without entropy =     -842.63375303  energy(sigma->0) =     -842.63375305


--------------------------------------------------------------------------------------------------------




--------------------------------------- Iteration      1(  11)  ---------------------------------------


    POTLOK:  cpu time      2.5565: real time      2.6568
    SETDIJ:  cpu time      3.2520: real time      3.2776
     EDDAV:  cpu time     80.7458: real time     81.9551
       DOS:  cpu time      0.0006: real time      0.0043
    CHARGE:  cpu time      5.0280: real time      5.1253
    MIXING:  cpu time      0.0771: real time      0.0777
    --------------------------------------------
      LOOP:  cpu time     91.6599: real time     93.0968

 eigenvalue-minimisations  :  4880
 total energy-change (2. order) : 0.1138492E-01  (-0.8948429E-02)
 number of electron     368.0000000 magnetization       0.0184568
 augmentation part        9.4634811 magnetization       0.0181518

 Broyden mixing:
  rms(total) = 0.33695E-01    rms(broyden)= 0.33681E-01
  rms(prec ) = 0.38582E-01
  weight for this iteration     100.00

 eigenvalues of (default mixing * dielectric matrix)
  average eigenvalue GAMMA=   2.1495
  4.7118  3.1125  1.6669  1.0608  1.0608  1.2842

 Free energy of the ion-electron system (eV)
  ---------------------------------------------------
  alpha Z        PSCENC =       175.87611319
  Ewald energy   TEWEN  =     36492.03410021
  -Hartree energ DENC   =    -48200.30363823
  -exchange      EXHF   =         0.00000000
  -V(xc)+E(xc)   XCENC  =      1273.90573714
  PAW double counting   =     37224.63193329   -37288.51871216
  entropy T*S    EENTRO =        -0.00000004
  eigenvalues    EBANDS =     -4236.37862071
  atomic energy  EATOM  =     13716.13071916
  Solvation  Ediel_sol  =         0.00000000
  ---------------------------------------------------
  free energy    TOTEN  =      -842.62236815 eV

  energy without entropy =     -842.62236811  energy(sigma->0) =     -842.62236813


--------------------------------------------------------------------------------------------------------




--------------------------------------- Iteration      1(  12)  ---------------------------------------


    POTLOK:  cpu time      2.6675: real time      2.6971
    SETDIJ:  cpu time      3.2323: real time      3.2682
     EDDAV:  cpu time     86.5244: real time     87.8602
       DOS:  cpu time      0.0008: real time      0.0049
    CHARGE:  cpu time      5.1157: real time      5.1968
    MIXING:  cpu time      0.0830: real time      0.0836
    --------------------------------------------
      LOOP:  cpu time     97.6237: real time     99.1109

 eigenvalue-minimisations  :  5310
 total energy-change (2. order) : 0.1839697E-02  (-0.9263580E-03)
 number of electron     368.0000000 magnetization      -0.0030512
 augmentation part        9.4630656 magnetization      -0.0031648

 Broyden mixing:
  rms(total) = 0.17840E-01    rms(broyden)= 0.17836E-01
  rms(prec ) = 0.19976E-01
  weight for this iteration     100.00

 eigenvalues of (default mixing * dielectric matrix)
  average eigenvalue GAMMA=   2.1159
  4.6640  3.1619  2.1806  1.4636  1.0384  1.0384  1.2648

 Free energy of the ion-electron system (eV)
  ---------------------------------------------------
  alpha Z        PSCENC =       175.87611319
  Ewald energy   TEWEN  =     36492.03410021
  -Hartree energ DENC   =    -48200.08935487
  -exchange      EXHF   =         0.00000000
  -V(xc)+E(xc)   XCENC  =      1273.89014570
  PAW double counting   =     37238.03195116   -37301.89594326
  entropy T*S    EENTRO =        -0.00000004
  eigenvalues    EBANDS =     -4236.59825970
  atomic energy  EATOM  =     13716.13071916
  Solvation  Ediel_sol  =         0.00000000
  ---------------------------------------------------
  free energy    TOTEN  =      -842.62052846 eV

  energy without entropy =     -842.62052842  energy(sigma->0) =     -842.62052844


[...]
   -.194E+02 0.115E+02 -.371E+00   0.195E+02 -.115E+02 0.371E+00   -.120E+00 0.531E-01 0.915E-04   -.789E-03 -.186E-02 0.415E-03
   -.394E+01 -.224E+01 -.224E+01   0.388E+01 0.221E+01 0.224E+01   0.589E-01 0.369E-01 -.333E-02   -.474E-03 -.742E-03 -.100E-02
   0.834E+01 -.123E+02 -.172E+01   -.846E+01 0.123E+02 0.172E+01   0.119E+00 0.318E-01 -.435E-03   -.378E-03 -.275E-04 0.146E-03
   0.200E+02 -.672E+02 0.203E+01   -.202E+02 0.678E+02 -.203E+01   0.244E+00 -.626E+00 -.111E-01   -.493E-04 -.259E-03 0.291E-02
   -.483E+02 0.509E+02 0.205E+01   0.487E+02 -.515E+02 -.205E+01   -.422E+00 0.518E+00 -.113E-01   0.684E-03 -.101E-02 0.500E-02
   -.650E+01 0.135E+02 -.192E+01   0.641E+01 -.136E+02 0.192E+01   0.884E-01 0.963E-01 -.188E-02   -.615E-03 -.715E-05 0.142E-02
   0.403E+01 0.236E+01 -.191E+01   -.420E+01 -.246E+01 0.191E+01   0.166E+00 0.958E-01 0.825E-03   -.210E-03 0.314E-03 -.166E-03
   0.249E+02 -.102E+02 0.165E+00   -.253E+02 0.101E+02 -.191E+00   0.422E+00 0.136E+00 0.249E-01   0.282E-03 0.109E-03 0.109E-02
   0.363E+01 0.267E+02 0.112E-01   -.397E+01 -.270E+02 -.413E-01   0.340E+00 0.303E+00 0.232E-01   0.370E-02 -.501E-03 0.392E-02
   0.114E+01 0.918E+01 -.223E+01   -.112E+01 -.904E+01 0.225E+01   -.121E-01 -.138E+00 -.207E-01   0.237E-03 -.694E-03 -.685E-04
   0.846E+01 -.362E+01 -.169E+01   -.833E+01 0.357E+01 0.171E+01   -.133E+00 0.496E-01 -.181E-01   -.584E-04 0.195E-03 -.865E-03
   0.234E+02 -.188E+02 0.198E+01   -.234E+02 0.192E+02 -.200E+01   0.830E-01 -.407E+00 0.107E-01   0.351E-03 0.442E-03 0.215E-02
   0.706E+02 0.113E+02 0.111E+02   -.712E+02 -.115E+02 -.112E+02   0.671E+00 0.180E+00 -.957E-02   0.708E-03 -.529E-03 0.893E-02
   0.825E+02 0.476E+02 0.256E+02   -.829E+02 -.478E+02 -.258E+02   0.378E+00 0.215E+00 0.173E+00   -.549E-03 0.629E-04 0.131E-01
   0.452E+02 0.555E+02 0.104E+02   -.457E+02 -.560E+02 -.104E+02   0.496E+00 0.498E+00 -.151E-01   0.492E-03 0.291E-02 0.821E-02
   -.462E+01 0.297E+02 0.148E+01   0.493E+01 -.300E+02 -.149E+01   -.313E+00 0.278E+00 0.955E-02   0.429E-03 -.753E-03 0.439E-02
   -.162E+01 0.603E+01 -.138E+01   0.174E+01 -.610E+01 0.139E+01   -.126E+00 0.591E-01 -.997E-02   0.282E-03 -.503E-03 -.108E-02
   -.221E+01 -.127E+01 -.105E+01   0.233E+01 0.134E+01 0.107E+01   -.116E+00 -.723E-01 -.122E-01   0.208E-04 -.209E-03 -.148E-02
   0.449E+01 -.444E+01 -.102E+01   -.449E+01 0.457E+01 0.104E+01   -.355E-02 -.138E+00 -.108E-01   -.119E-03 0.140E-02 -.331E-03
   0.188E+02 -.192E+01 -.352E+01   -.188E+02 0.206E+01 0.355E+01   0.224E-01 -.142E+00 -.357E-01   0.707E-03 0.184E-03 0.197E-02
   0.261E+02 0.103E+02 -.239E+01   -.262E+02 -.104E+02 0.232E+01   0.371E-01 0.673E-01 0.577E-01   -.158E-03 0.284E-03 0.490E-02
   0.220E+02 0.174E+02 -.250E+01   -.221E+02 -.174E+02 0.244E+01   0.741E-01 -.493E-02 0.552E-01   -.515E-03 0.186E-02 0.375E-02
   0.779E+01 0.172E+02 -.393E+01   -.768E+01 -.173E+02 0.396E+01   -.109E+00 0.908E-01 -.340E-01   0.226E-04 -.345E-04 0.719E-03
   0.137E+01 -.666E+02 0.539E+01   -.102E+01 0.725E+02 -.550E+01   -.349E+00 -.588E+01 0.103E+00   0.733E-04 -.434E-05 0.664E-03
   -.501E+02 -.383E+02 0.968E+01   0.550E+02 0.417E+02 -.964E+01   -.490E+01 -.333E+01 -.487E-01   -.442E-04 -.262E-04 0.128E-02
   -.583E+02 -.242E+02 0.971E+01   0.636E+02 0.268E+02 -.968E+01   -.533E+01 -.258E+01 -.448E-01   -.490E-04 -.209E-04 0.125E-02
   0.515E+02 0.389E+02 0.251E+02   -.565E+02 -.417E+02 -.259E+02   0.509E+01 0.276E+01 0.759E+00   -.120E-03 -.373E-03 0.255E-02
   0.594E+02 0.251E+02 0.253E+02   -.644E+02 -.281E+02 -.260E+02   0.493E+01 0.303E+01 0.763E+00   -.202E-03 0.683E-04 0.247E-02
   -.570E+02 0.345E+02 0.536E+01   0.623E+02 -.371E+02 -.547E+01   -.527E+01 0.264E+01 0.102E+00   0.166E-04 0.596E-04 0.756E-03
   -.230E+01 -.724E+02 -.509E+02   0.303E+01 0.806E+02 0.520E+02   -.719E+00 -.822E+01 -.104E+01   0.228E-03 0.114E-03 -.926E-04
   -.641E+02 0.333E+02 -.510E+02   0.717E+02 -.367E+02 0.521E+02   -.753E+01 0.339E+01 -.104E+01   0.192E-03 -.334E-04 -.118E-03
   0.199E+03 -.116E+03 0.833E+01   -.226E+03 0.132E+03 -.844E+01   0.277E+02 -.157E+02 0.968E-01   0.378E-03 0.638E-03 0.988E-02
   -.166E+01 0.230E+03 0.802E+01   0.135E+01 -.262E+03 -.814E+01   0.301E+00 0.318E+02 0.948E-01   0.143E-02 -.136E-03 0.141E-01
   0.396E+02 0.230E+02 -.195E+03   -.796E+02 -.465E+02 0.186E+03   0.401E+02 0.235E+02 0.886E+01   0.113E-02 -.171E-02 -.143E-02
 -----------------------------------------------------------------------------------------------
   -.477E+02 -.278E+02 -.953E+01   0.540E-12 0.249E-12 -.284E-13   0.477E+02 0.278E+02 0.936E+01   -.240E-02 -.363E-02 0.153E+00
 
 
 POSITION                                       TOTAL-FORCE (eV/Angst)
 -----------------------------------------------------------------------------------
      8.62379     14.94551      7.51334        -0.000029      0.000401      0.001439
     16.02587      2.12437      7.50256         0.000191      0.000776      0.000683
     14.79120      4.26558      7.49583        -0.000259     -0.001001      0.000226
     13.55431      6.40541      7.49967         0.000166     -0.002472     -0.000635
     12.32165      8.54194      7.51088        -0.001494     -0.001027     -0.001821
     11.09308     10.67570      7.51326        -0.001724     -0.001107     -0.001054
      9.85755     12.81511      7.51284        -0.000800     -0.000814      0.000675
      2.46225      0.00010      7.51310        -0.000104      0.000047      0.004167
      1.22488      2.13171      7.49776        -0.000618      0.000051      0.000888
     -0.01774      4.25783      7.48048        -0.000480      0.000361     -0.002410
     -1.25557      6.40165      7.47865         0.001052     -0.001387     -0.002378
     -2.47527      8.54088      7.49531         0.000735     -0.001042     -0.000995
     -3.70251     10.67857      7.51245        -0.000967      0.000306      0.001277
     -4.93835     12.81769      7.51773        -0.000880     -0.000035      0.003742
      4.93447      0.00020      7.51422         0.000780      0.000584      0.002093
      3.70338      2.14016      7.49632        -0.000006      0.000060      0.000387
      2.45419      4.29010      7.46473         0.001536      0.002787     -0.001578
      1.19717      6.38845      7.44665         0.001510     -0.000108     -0.005997
      0.00835      8.52592      7.46352         0.002340      0.004407     -0.004756
     -1.22883     10.68297      7.49476         0.000307      0.004838     -0.001014
     -2.46653     12.81961      7.51331         0.001145      0.001727      0.001961
     -1.23298     14.95703      7.51457         0.007169      0.000100      0.002743
      6.17441      2.14678      7.50461         0.001016      0.000009     -0.000107
      4.94317      4.24337      7.47721         0.000867      0.000026     -0.004396
      1.21257     10.70495      7.47724         0.000235      0.002254     -0.004971
      0.01243     12.81969      7.50479        -0.001154      0.004449     -0.001876
      1.23000     14.95618      7.50918        -0.003139      0.000875     -0.000262
      8.63333      2.13374      7.50837         0.000636     -0.000658      0.000829
      7.43178      4.31649      7.48883         0.000356     -0.001102     -0.003277
      2.51972     12.82417      7.49013        -0.003347      0.001552     -0.005610
     12.32932      0.00474      7.50050        -0.004479      0.000379     -0.002107
     11.09845      2.13405      7.50898        -0.003935     -0.001647     -0.000175
      9.87020      4.26480      7.49749        -0.000702     -0.001653     -0.000489
      8.59276      6.34677      7.45989        -0.001444     -0.000364     -0.006199
      7.40954      8.54479      7.33568        -0.006341     -0.002917     -0.012598
      6.17047     10.69068      7.33745        -0.003519     -0.007480     -0.010568
      4.85854     12.81499      7.46307        -0.000969     -0.003394     -0.005598
      6.15520     14.94701      7.49855        -0.001034      0.002399     -0.000875
     13.56107      2.13214      7.50451        -0.001085      0.000954      0.001067
     12.32858      4.26785      7.50264        -0.000421     -0.001836      0.000354
     11.08831      6.40355      7.49464        -0.000743     -0.001788     -0.002166
      9.84525      8.52954      7.48267        -0.003023     -0.001317     -0.006522
      8.62420     10.67643      7.46541        -0.002805     -0.003984     -0.006066
      7.37510     12.80704      7.48559        -0.002793     -0.003317     -0.002939
     -0.00838      1.41485      7.50648        -0.000429     -0.000890      0.001043
     -1.25099      3.54560      7.49379         0.000999     -0.000053     -0.000211
     -2.48896      5.68978      7.49179        -0.000326      0.002114     -0.000886
     -3.71275      7.83126      7.50366         0.001132      0.001222     -0.001999
     -4.94355      9.96748      7.51512         0.002190      0.001679      0.000422
     -6.17824     12.10180      7.51604        -0.000436     -0.000217      0.001860
     -7.40961     14.23811      7.51572        -0.000609      0.000212      0.001682
      2.46570      1.42173      7.50278        -0.001126     -0.001409      0.000852
      1.22112      3.55466      7.48058         0.001310     -0.000832     -0.001387
     -0.03601      5.67677      7.46805         0.000730      0.000545     -0.003448
     -1.24493      7.82596      7.47859        -0.004019      0.000023     -0.002757
     -2.46965      9.97047      7.50098        -0.001131     -0.001103     -0.000257
     -3.70184     12.10723      7.51511        -0.000866     -0.001929      0.002693
     -4.93554     14.24409      7.51552        -0.001828     -0.001020      0.003899
      4.93830      1.43227      7.50631        -0.000161     -0.002358      0.000402
      3.71901      3.56863      7.47880         0.000026     -0.001301     -0.002488
      2.41023      5.67669      7.44258        -0.000330     -0.000520     -0.004364
      1.18709      7.79476      7.44199         0.000077      0.001426     -0.003784
      0.01621      9.98227      7.47771        -0.001331     -0.002725     -0.002689
     -1.22448     12.10650      7.50506        -0.002137     -0.004387      0.000047
     -2.46957     14.24324      7.51579        -0.002889     -0.002139      0.001007
      7.40251      1.42368      7.51093        -0.002647     -0.000277      0.001188
      6.17069      3.57847      7.49275        -0.001081     -0.000365     -0.002887
      1.25027     12.10052      7.49308         0.000499     -0.002895     -0.004775
     -0.00008     14.24516      7.51157        -0.001090     -0.001622     -0.000109
      9.86372      1.42106      7.51039         0.000863      0.000149      0.001039
      8.64045      3.56115      7.49839        -0.000936      0.000655     -0.000038
      2.46969     14.24876      7.50007         0.005803     -0.000448     -0.002911
     12.32961      1.42792      7.50759         0.001819     -0.001340      0.000596
     11.10264      3.55329      7.50525         0.000487      0.000715      0.000832
      9.85731      5.68272      7.48421         0.000412      0.001306     -0.002697
      8.59137      7.81701      7.42949         0.001422     -0.000462     -0.009215
      7.38354      9.96030      7.37591         0.002411      0.002302     -0.010524
      6.13091     12.07797      7.43317         0.002102      0.007804     -0.009585
      4.91523     14.24215      7.48788         0.001248     -0.001157     -0.004043
     14.79254      1.41068      7.50348        -0.000118     -0.001986      0.000429
     13.55996      3.55486      7.50248         0.000226      0.000001      0.000919
     12.31968      5.69465      7.50051        -0.000266      0.004433      0.000511
     11.08458      7.82960      7.50179         0.000718      0.000642     -0.003035
      9.85220      9.95741      7.49073         0.000028      0.001058     -0.005839
      8.61527     12.09911      7.49180        -0.001564      0.002284     -0.004749
      7.38841     14.23036      7.50507        -0.000874     -0.001340     -0.001452
      4.98039      5.32957      7.46031         0.000280     -0.000096     -0.005725
      3.32059      6.26962      7.44241         0.001756      0.000620     -0.005591
      2.15561      8.28699      7.44138         0.001629      0.001566     -0.005597
      5.22868     10.15684      7.21373         0.000331     -0.002580     -0.010533
      6.47637      7.99618      7.21143        -0.002901      0.000821     -0.009987
      2.17194     10.19431      7.46060         0.000114      0.000677     -0.005808
      4.35925      9.10300      8.66937         0.009460      0.005023      0.080754
      5.13727      7.77558      8.66962         0.009492      0.004633      0.080608
      7.42750      5.67059      7.47273        -0.000277     -0.000050     -0.005118
      3.69039     12.14377      7.47508         0.000652     -0.000169     -0.006915
      4.24491      8.14422      8.54664         0.009409      0.004865      0.037527
 -----------------------------------------------------------------------------------
    total drift:                                0.014561     -0.034962     -0.013724


--------------------------------------------------------------------------------------------------------



  FREE ENERGIE OF THE ION-ELECTRON SYSTEM (eV)
  ---------------------------------------------------
  free  energy   TOTEN  =      -850.42042009 eV

  energy  without entropy=     -850.42042005  energy(sigma->0) =     -850.42042007
 
 d Force = 0.3032710E-04[ 0.236E-04, 0.371E-04]  d Energy = 0.2855421E-04 0.177E-05
 d Force = 0.8675094E-01[ 0.868E-01, 0.867E-01]  d Ewald  = 0.8675074E-01 0.200E-06


--------------------------------------------------------------------------------------------------------


    POTLOK:  cpu time      5.1560: real time      5.2338


--------------------------------------------------------------------------------------------------------


 NEB: the previous image is higher in energy: F
 NEB: the next image is higher in energy    : T
 NEB: only next energy greater

 NEB: Tangent
 ----------------------------------------------
      0.00314      0.00171      0.00501
      0.00012     -0.00059      0.00618
     -0.00102     -0.00080      0.00933
     -0.00012     -0.00011      0.01077
      0.00343      0.00135      0.00763
      0.00519      0.00257      0.00499
      0.00521      0.00269      0.00466
      0.00322      0.00140     -0.00066
      0.00028     -0.00073      0.00673
     -0.00240     -0.00179      0.01476
     -0.00250     -0.00140      0.01801
     -0.00022      0.00005      0.01095
      0.00316      0.00153      0.00076
      0.00410      0.00199     -0.00287
      0.00306      0.00180     -0.00560
      0.00115      0.00065      0.00207
     -0.00376     -0.00304      0.01020
     -0.00535     -0.00327      0.01239
     -0.00439     -0.00168      0.01415
      0.00152      0.00028      0.00444
      0.00323      0.00123     -0.00529
      0.00273      0.00116     -0.00864
      0.00164      0.00221     -0.00343
     -0.00159      0.00056      0.01114
      0.00030     -0.00199      0.01186
      0.00302     -0.00023     -0.00379
      0.00219     -0.00007     -0.00674
      0.00128      0.00154     -0.00517
      0.00023      0.00362      0.00177
      0.00340     -0.00173     -0.00082
      0.00162     -0.00005     -0.00233
      0.00089      0.00002     -0.00325
      0.00080      0.00095      0.00199
      0.00389      0.00246      0.00857
      0.01622      0.00624      0.01048
      0.01388      0.01004      0.00897
      0.00408      0.00135      0.00439
      0.00206      0.00089      0.00368
      0.00036     -0.00019      0.00022
      0.00006     -0.00007      0.00325
      0.00207      0.00095      0.00909
      0.00787      0.00313      0.01410
      0.00730      0.00387      0.01528
      0.00672      0.00486      0.01161
      0.00089      0.00034      0.00591
     -0.00139     -0.00117      0.01063
     -0.00146     -0.00100      0.01390
      0.00125      0.00013      0.00955
      0.00382      0.00169      0.00396
      0.00470      0.00240      0.00153
      0.00355      0.00213      0.00261
      0.00149      0.00077      0.00214
     -0.00234     -0.00208      0.01200
     -0.00367     -0.00242      0.01789
     -0.00270     -0.00132      0.01666
      0.00175      0.00039      0.00462
      0.00359      0.00144     -0.00304
      0.00344      0.00172     -0.00377
      0.00211      0.00177     -0.00284
     -0.00128      0.00013      0.00788
     -0.00631     -0.00473      0.00551
     -0.00744     -0.00331      0.00817
      0.00014     -0.00141      0.01041
      0.00274      0.00043     -0.00166
      0.00289      0.00136     -0.00765
      0.00168      0.00160     -0.00701
      0.00005      0.00278      0.00232
      0.00282     -0.00170      0.00160
      0.00248      0.00017     -0.00773
      0.00127      0.00036     -0.00550
      0.00023      0.00218     -0.00055
      0.00235     -0.00098     -0.00402
      0.00081     -0.00015     -0.00302
      0.00037      0.00008     -0.00005
      0.00228      0.00100      0.00745
      0.01058      0.00293      0.01338
      0.00841      0.00449      0.01435
      0.00794      0.00702      0.01028
      0.00237      0.00077      0.00246
      0.00059      0.00009      0.00265
     -0.00031     -0.00039      0.00312
      0.00050     -0.00008      0.00760
      0.00474      0.00129      0.01042
      0.00637      0.00309      0.01216
      0.00606      0.00378      0.01097
      0.00371      0.00314      0.00688
     -0.00464      0.00018      0.02117
     -0.00959     -0.00582     -0.01025
     -0.01010     -0.00570     -0.00781
      0.01056      0.02856     -0.01374
      0.03097     -0.00699     -0.01130
     -0.00161     -0.00440      0.02207
     -0.06212     -0.02525     -0.60248
     -0.06002     -0.02511     -0.60514
      0.00225      0.00446      0.00375
      0.00498     -0.00082      0.00067
     -0.06977     -0.03115     -0.49461

 NEB: forces: par spring, perp REAL, dneb     0.029825    0.072988    0.000000
 NEB: distance to prev, next image, angle between     1.052080    1.058045  167.143800
 NEB: projections on to tangent (spring, REAL)     0.029825   -0.101923

 stress matrix after NEB project (eV)
     -5.80110     -2.16845      0.04559
     -2.16845     -3.33403     -0.00355
      0.04558     -0.00355     -0.43826
  FORCES: max atom, RMS     0.012518    0.004507
  FORCE total and by dimension    0.044390    0.012342
  Stress total and by dimension    7.373545    5.801101
 OPT: skip step - force has converged


--------------------------------------------------------------------------------------------------------


  
 reached required accuracy - stopping structural energy minimisation
     LOOP+:  cpu time    288.4734: real time    292.8261
    4ORBIT:  cpu time      0.0000: real time      0.0000

 total amount of memory used by VASP MPI-rank0  1122718. kBytes
=======================================================================

   base      :      30000. kBytes
   nonlr-proj:       9011. kBytes
   fftplans  :     185212. kBytes
   grid      :     184190. kBytes
   one-center:        595. kBytes
   wavefun   :     713710. kBytes
 
  
  
 General timing and accounting informations for this job:
 ========================================================
  
                  Total CPU time used (sec):     2881.466
                            User time (sec):     2802.980
                          System time (sec):       78.486
                         Elapsed time (sec):     2925.940
  
                   Maximum memory used (kb):     1563656.
                   Average memory used (kb):          N/A
  
                          Minor page faults:       267859
                          Major page faults:           54
                 Voluntary context switches:         2522
