<?xml version="1.0" encoding="ISO-8859-1"?>
<modeling>
 <generator>
  <i name="program" type="string">vasp </i>
  <i name="version" type="string">6.4.2  </i>
  <i name="subversion" type="string">20Jul23 (build Aug 26 2025 15:10:52) complex                          parallel </i>
  <i name="platform" type="string">LinuxIFC </i>
  <i name="date" type="string">2025 12 02 </i>
  <i name="time" type="string">12:14:43 </i>
 </generator>
 <incar>
  <i type="int" name="ISTART">     0</i>
  <i type="string" name="ALGO">Normal</i>
  <i type="logical" name="ADDGRID"> T  </i>
  <i type="int" name="ISPIN">     2</i>
  <i type="int" name="IMIX">     4</i>
  <i name="AMIX">      0.20000000</i>
  <i name="BMIX">      0.00010000</i>
  <i name="AMIX_MAG">      0.80000000</i>
  <i name="BMIX_MAG">      0.00010000</i>
  <i type="int" name="ICHARG">     2</i>
  <i type="int" name="NELM">   200</i>
  <i type="int" name="IBRION">     3</i>
  <i name="EDIFF">      0.00001000</i>
  <i name="EDIFFG">     -0.03000000</i>
  <i type="int" name="NSW">   300</i>
  <i type="int" name="ISIF">     2</i>
  <i type="int" name="ISYM">     0</i>
  <i name="ENCUT">    520.00000000</i>
  <i name="POTIM">      0.00000000</i>
  <v name="MAGMOM">      0.60000000      0.60000000      0.60000000      0.60000000      0.60000000      0.60000000      0.60000000      0.60000000      0.60000000      0.60000000      0.60000000      0.60000000      0.60000000      0.60000000      0.60000000      0.60000000      0.60000000      0.60000000      0.60000000      0.60000000
      0.60000000      0.60000000      0.60000000      0.60000000      0.60000000      0.60000000      0.60000000      0.60000000      0.60000000      0.60000000      0.60000000      0.60000000      0.60000000      0.60000000      0.60000000      0.60000000      0.60000000      0.60000000      0.60000000      0.60000000
      0.60000000      0.60000000      0.60000000      0.60000000      0.60000000      0.60000000      0.60000000      0.60000000      0.60000000      0.60000000      0.60000000      0.60000000      0.60000000      0.60000000      0.60000000      0.60000000      0.60000000      0.60000000      0.60000000      0.60000000
      0.60000000      0.60000000      0.60000000      0.60000000      0.60000000      0.60000000      0.60000000      0.60000000      0.60000000      0.60000000      0.60000000      0.60000000      0.60000000      0.60000000      0.60000000      0.60000000      0.60000000      0.60000000      0.60000000      0.60000000
      0.60000000      0.60000000      0.60000000      0.60000000      0.60000000      0.60000000      0.60000000      0.60000000      0.60000000      0.60000000      0.60000000      0.60000000      0.60000000      0.60000000      0.60000000      0.60000000      0.60000000</v>
  <i type="string" name="LREAL">Auto</i>
  <i type="int" name="ISMEAR">     0</i>
  <i name="SIGMA">      0.05000000</i>
  <i type="logical" name="LWAVE"> F  </i>
  <i type="logical" name="LCHARG"> F  </i>
  <i type="logical" name="LASPH"> T  </i>
  <i type="int" name="IVDW">    12</i>
  <i name="SPRING">     -5.00000000</i>
 </incar>
 <primitive_cell>
  <structure name="primitive_cell" >
   <crystal>
    <varray name="basis" >
     <v>      17.27103806       0.00000000       0.00000000 </v>
     <v>      -8.63551903      14.95715771       0.00000000 </v>
     <v>       0.00000000       0.00000000      15.00000000 </v>
    </varray>
    <i name="volume">   3874.88459904 </i>
    <varray name="rec_basis" >
     <v>       0.05790040       0.03342881       0.00000000 </v>
     <v>       0.00000000       0.06685762       0.00000000 </v>
     <v>       0.00000000       0.00000000       0.06666667 </v>
    </varray>
   </crystal>
   <varray name="positions" >
    <v>       0.99893343       0.99922244       0.50087636 </v>
    <v>       0.99892173       0.14202997       0.50016400 </v>
    <v>       0.99900917       0.28518700       0.49971329 </v>
    <v>       0.99892497       0.42825139       0.49997085 </v>
    <v>       0.99897594       0.57109448       0.50072334 </v>
    <v>       0.99917184       0.71375280       0.50088497 </v>
    <v>       0.99914993       0.85678868       0.50084671 </v>
    <v>       0.14256861       0.00000728       0.50084684 </v>
    <v>       0.14218235       0.14252139       0.49984088 </v>
    <v>       0.14130713       0.28466794       0.49869388 </v>
    <v>       0.14130123       0.42799847       0.49857462 </v>
    <v>       0.14219077       0.57102128       0.49968409 </v>
    <v>       0.14259623       0.71394381       0.50082228 </v>
    <v>       0.14254873       0.85696123       0.50116086 </v>
    <v>       0.28571578       0.00001541       0.50093998 </v>
    <v>       0.28597031       0.14308665       0.49974964 </v>
    <v>       0.28551297       0.28682906       0.49766034 </v>
    <v>       0.28287333       0.42711569       0.49646937 </v>
    <v>       0.28549636       0.57002650       0.49758042 </v>
    <v>       0.28596749       0.71423583       0.49965433 </v>
    <v>       0.28573184       0.85708859       0.50087950 </v>
    <v>       0.42860624       0.99999049       0.50097118 </v>
    <v>       0.42926597       0.14352857       0.50031066 </v>
    <v>       0.42806344       0.28370119       0.49849699 </v>
    <v>       0.42806204       0.71570594       0.49850389 </v>
    <v>       0.42926608       0.85709421       0.50033238 </v>
    <v>       0.57118370       0.99993538       0.50061883 </v>
    <v>       0.57120175       0.14265647       0.50055727 </v>
    <v>       0.57459771       0.28858829       0.49927605 </v>
    <v>       0.57459057       0.85739499       0.49937817 </v>
    <v>       0.71403029       0.00031794       0.50004792 </v>
    <v>       0.71394374       0.14267813       0.50059301 </v>
    <v>       0.71405594       0.28513450       0.49983417 </v>
    <v>       0.70968834       0.42432870       0.49735227 </v>
    <v>       0.71465855       0.57128564       0.48911649 </v>
    <v>       0.71464479       0.71475069       0.48923638 </v>
    <v>       0.70970363       0.85678146       0.49758082 </v>
    <v>       0.85604981       0.99932110       0.49990644 </v>
    <v>       0.85646698       0.14255040       0.50029414 </v>
    <v>       0.85649908       0.28533922       0.50017192 </v>
    <v>       0.85608035       0.42812650       0.49964740 </v>
    <v>       0.85517556       0.57026424       0.49887109 </v>
    <v>       0.85624476       0.71380116       0.49773658 </v>
    <v>       0.85514694       0.85625106       0.49906164 </v>
    <v>       0.04681306       0.09459423       0.50041906 </v>
    <v>       0.04609259       0.23705059       0.49957508 </v>
    <v>       0.04609054       0.38040500       0.49944487 </v>
    <v>       0.04681941       0.52357905       0.50023867 </v>
    <v>       0.04696522       0.66640047       0.50100395 </v>
    <v>       0.04682713       0.80909821       0.50105711 </v>
    <v>       0.04694465       0.95192690       0.50102533 </v>
    <v>       0.19029286       0.09505465       0.50017129 </v>
    <v>       0.18953248       0.23765592       0.49870496 </v>
    <v>       0.18768207       0.37953417       0.49787521 </v>
    <v>       0.18953076       0.52322430       0.49857467 </v>
    <v>       0.19030701       0.66660081       0.50006275 </v>
    <v>       0.19039366       0.80946067       0.50099413 </v>
    <v>       0.19039234       0.95232835       0.50101225 </v>
    <v>       0.33380940       0.09576088       0.50041476 </v>
    <v>       0.33462813       0.23859103       0.49859632 </v>
    <v>       0.32931814       0.37953324       0.49620352 </v>
    <v>       0.32930296       0.52113814       0.49616446 </v>
    <v>       0.33463420       0.66738934       0.49852383 </v>
    <v>       0.33381053       0.80941362       0.50033845 </v>
    <v>       0.33314657       0.95227081       0.50104834 </v>
    <v>       0.47620159       0.09518311       0.50072866 </v>
    <v>       0.47690963       0.23924656       0.49953193 </v>
    <v>       0.47689745       0.80901087       0.49956586 </v>
    <v>       0.47619379       0.95239691       0.50077846 </v>
    <v>       0.61861767       0.09500961       0.50069025 </v>
    <v>       0.61933086       0.23808824       0.49989600 </v>
    <v>       0.61931387       0.95264266       0.50002326 </v>
    <v>       0.76162338       0.09546868       0.50050451 </v>
    <v>       0.76162952       0.23756462       0.50034434 </v>
    <v>       0.76070761       0.37993222       0.49895679 </v>
    <v>       0.75875417       0.52262481       0.49534188 </v>
    <v>       0.76046853       0.66591816       0.49179418 </v>
    <v>       0.75874021       0.80750845       0.49557563 </v>
    <v>       0.76069254       0.95219813       0.49921512 </v>
    <v>       0.90365240       0.09431480       0.50022469 </v>
    <v>       0.90396199       0.23767030       0.50015829 </v>
    <v>       0.90367965       0.38073122       0.50003202 </v>
    <v>       0.90353510       0.52346789       0.50012709 </v>
    <v>       0.90331098       0.66572801       0.49940703 </v>
    <v>       0.90328645       0.80891792       0.49947222 </v>
    <v>       0.90349823       0.95141015       0.50034129 </v>
    <v>       0.46652908       0.35632178       0.49737136 </v>
    <v>       0.40185034       0.41917336       0.49620934 </v>
    <v>       0.40183499       0.55404354       0.49613751 </v>
    <v>       0.64226991       0.67905655       0.48100344 </v>
    <v>       0.64228032       0.53460985       0.48084261 </v>
    <v>       0.46653861       0.68156449       0.49738907 </v>
    <v>       0.55669899       0.60859755       0.57798801 </v>
    <v>       0.55737106       0.51984984       0.57800847 </v>
    <v>       0.61961495       0.37912046       0.49821692 </v>
    <v>       0.61962809       0.81190537       0.49838912 </v>
    <v>       0.51803149       0.54449865       0.56977595 </v>
   </varray>
  </structure>
  <varray name="primitive_index" >
   <v type="int" >        1 </v>
   <v type="int" >        2 </v>
   <v type="int" >        3 </v>
   <v type="int" >        4 </v>
   <v type="int" >        5 </v>
   <v type="int" >        6 </v>
   <v type="int" >        7 </v>
   <v type="int" >        8 </v>
   <v type="int" >        9 </v>
   <v type="int" >       10 </v>
   <v type="int" >       11 </v>
   <v type="int" >       12 </v>
   <v type="int" >       13 </v>
   <v type="int" >       14 </v>
   <v type="int" >       15 </v>
   <v type="int" >       16 </v>
   <v type="int" >       17 </v>
   <v type="int" >       18 </v>
   <v type="int" >       19 </v>
   <v type="int" >       20 </v>
   <v type="int" >       21 </v>
   <v type="int" >       22 </v>
   <v type="int" >       23 </v>
   <v type="int" >       24 </v>
   <v type="int" >       25 </v>
   <v type="int" >       26 </v>
   <v type="int" >       27 </v>
   <v type="int" >       28 </v>
   <v type="int" >       29 </v>
   <v type="int" >       30 </v>
   <v type="int" >       31 </v>
   <v type="int" >       32 </v>
   <v type="int" >       33 </v>
   <v type="int" >       34 </v>
   <v type="int" >       35 </v>
   <v type="int" >       36 </v>
   <v type="int" >       37 </v>
   <v type="int" >       38 </v>
   <v type="int" >       39 </v>
   <v type="int" >       40 </v>
   <v type="int" >       41 </v>
   <v type="int" >       42 </v>
   <v type="int" >       43 </v>
   <v type="int" >       44 </v>
   <v type="int" >       45 </v>
   <v type="int" >       46 </v>
   <v type="int" >       47 </v>
   <v type="int" >       48 </v>
   <v type="int" >       49 </v>
   <v type="int" >       50 </v>
   <v type="int" >       51 </v>
   <v type="int" >       52 </v>
   <v type="int" >       53 </v>
   <v type="int" >       54 </v>
   <v type="int" >       55 </v>
   <v type="int" >       56 </v>
   <v type="int" >       57 </v>
   <v type="int" >       58 </v>
   <v type="int" >       59 </v>
   <v type="int" >       60 </v>
   <v type="int" >       61 </v>
   <v type="int" >       62 </v>
   <v type="int" >       63 </v>
   <v type="int" >       64 </v>
   <v type="int" >       65 </v>
   <v type="int" >       66 </v>
   <v type="int" >       67 </v>
   <v type="int" >       68 </v>
   <v type="int" >       69 </v>
   <v type="int" >       70 </v>
   <v type="int" >       71 </v>
   <v type="int" >       72 </v>
   <v type="int" >       73 </v>
   <v type="int" >       74 </v>
   <v type="int" >       75 </v>
   <v type="int" >       76 </v>
   <v type="int" >       77 </v>
   <v type="int" >       78 </v>
   <v type="int" >       79 </v>
   <v type="int" >       80 </v>
   <v type="int" >       81 </v>
   <v type="int" >       82 </v>
   <v type="int" >       83 </v>
   <v type="int" >       84 </v>
   <v type="int" >       85 </v>
   <v type="int" >       86 </v>
   <v type="int" >       87 </v>
   <v type="int" >       88 </v>
   <v type="int" >       89 </v>
   <v type="int" >       90 </v>
   <v type="int" >       91 </v>
   <v type="int" >       92 </v>
   <v type="int" >       93 </v>
   <v type="int" >       94 </v>
   <v type="int" >       95 </v>
   <v type="int" >       96 </v>
   <v type="int" >       97 </v>
  </varray>
 </primitive_cell>
 <kpoints>
  <generation param="Gamma">
   <v type="int" name="divisions">       2        2        1 </v>
   <v name="usershift">      0.00000000       0.00000000       0.00000000 </v>
   <v name="genvec1">      0.50000000       0.00000000       0.00000000 </v>
   <v name="genvec2">      0.00000000       0.50000000       0.00000000 </v>
   <v name="genvec3">      0.00000000       0.00000000       1.00000000 </v>
   <v name="shift">      0.00000000       0.00000000       0.00000000 </v>
  </generation>
  <varray name="kpointlist" >
   <v>       0.00000000       0.00000000       0.00000000 </v>
   <v>       0.50000000       0.00000000       0.00000000 </v>
   <v>       0.00000000       0.50000000       0.00000000 </v>
   <v>       0.50000000       0.50000000       0.00000000 </v>
  </varray>
  <varray name="weights" >
   <v>       0.25000000 </v>
   <v>       0.25000000 </v>
   <v>       0.25000000 </v>
   <v>       0.25000000 </v>
  </varray>
 </kpoints>
 <parameters>
  <separator name="general" >
   <i type="string" name="SYSTEM">unknown system</i>
   <i type="logical" name="LCOMPAT"> F  </i>
  </separator>
  <separator name="electronic" >
   <i type="string" name="PREC">normal</i>
   <i name="ENMAX">    520.00000000</i>
   <i name="ENAUG">    644.87300000</i>
   <i name="EDIFF">      0.00001000</i>
   <i type="int" name="IALGO">    38</i>
   <i type="int" name="IWAVPR">    11</i>
   <i type="int" name="NBANDS">   265</i>
   <i type="int" name="NBANDSLOW">    -1</i>
   <i type="int" name="NBANDSHIGH">    -1</i>
   <i name="NELECT">    368.00000000</i>
   <i type="int" name="TURBO">     0</i>
   <i type="int" name="IRESTART">     0</i>
   <i type="int" name="NREBOOT">     0</i>
   <i type="int" name="NMIN">     0</i>
   <i name="EREF">      0.00000000</i>
   <separator name="electronic smearing" >
    <i type="int" name="ISMEAR">     0</i>
    <i name="SIGMA">      0.05000000</i>
    <i name="KSPACING">      0.50000000</i>
    <i type="logical" name="KGAMMA"> T  </i>
    <i type="logical" name="KBLOWUP"> T  </i>
   </separator>
   <separator name="electronic projectors" >
    <i type="logical" name="LREAL"> T  </i>
    <v name="ROPT">     -0.00050000     -0.00050000     -0.00050000     -0.00050000</v>
    <i type="int" name="LMAXPAW">  -100</i>
    <i type="int" name="LMAXMIX">     2</i>
    <i type="logical" name="NLSPLINE"> F  </i>
   </separator>
   <separator name="electronic startup" >
    <i type="int" name="ISTART">     0</i>
    <i type="int" name="ICHARG">     2</i>
    <i type="int" name="INIWAV">     1</i>
   </separator>
   <separator name="electronic spin" >
    <i type="int" name="ISPIN">     2</i>
    <i type="logical" name="LNONCOLLINEAR"> F  </i>
    <v name="MAGMOM">      0.60000000      0.60000000      0.60000000      0.60000000      0.60000000      0.60000000      0.60000000      0.60000000      0.60000000      0.60000000      0.60000000      0.60000000      0.60000000      0.60000000      0.60000000      0.60000000      0.60000000      0.60000000      0.60000000      0.60000000
      0.60000000      0.60000000      0.60000000      0.60000000      0.60000000      0.60000000      0.60000000      0.60000000      0.60000000      0.60000000      0.60000000      0.60000000      0.60000000      0.60000000      0.60000000      0.60000000      0.60000000      0.60000000      0.60000000      0.60000000
      0.60000000      0.60000000      0.60000000      0.60000000      0.60000000      0.60000000      0.60000000      0.60000000      0.60000000      0.60000000      0.60000000      0.60000000      0.60000000      0.60000000      0.60000000      0.60000000      0.60000000      0.60000000      0.60000000      0.60000000
      0.60000000      0.60000000      0.60000000      0.60000000      0.60000000      0.60000000      0.60000000      0.60000000      0.60000000      0.60000000      0.60000000      0.60000000      0.60000000      0.60000000      0.60000000      0.60000000      0.60000000      0.60000000      0.60000000      0.60000000
      0.60000000      0.60000000      0.60000000      0.60000000      0.60000000      0.60000000      0.60000000      0.60000000      0.60000000      0.60000000      0.60000000      0.60000000      0.60000000      0.60000000      0.60000000      0.60000000      0.60000000</v>
    <i name="NUPDOWN">     -1.00000000</i>
    <i type="logical" name="LSORBIT"> F  </i>
    <v name="SAXIS">      0.00000000      0.00000000      1.00000000</v>
    <i type="logical" name="LSPIRAL"> F  </i>
    <v name="QSPIRAL">      0.00000000      0.00000000      0.00000000</v>
    <i type="logical" name="LZEROZ"> F  </i>
   </separator>
   <separator name="electronic exchange-correlation" >
    <i type="logical" name="LASPH"> T  </i>
    <i type="logical" name="LMETAGGA"> F  </i>
   </separator>
   <separator name="electronic convergence" >
    <i type="int" name="NELM">   200</i>
    <i type="int" name="NELMDL">    -5</i>
    <i type="int" name="NELMIN">     2</i>
    <i name="ENINI">    520.00000000</i>
    <separator name="electronic convergence detail" >
     <i type="logical" name="LDIAG"> T  </i>
     <i type="logical" name="LSUBROT"> F  </i>
     <i name="WEIMIN">      0.00100000</i>
     <i name="EBREAK">      0.00000001</i>
     <i name="DEPER">      0.30000000</i>
     <i type="int" name="NRMM">     4</i>
     <i name="TIME">      0.40000000</i>
    </separator>
   </separator>
   <separator name="electronic mixer" >
    <i name="AMIX">      0.20000000</i>
    <i name="BMIX">      0.00010000</i>
    <i name="AMIN">      0.10000000</i>
    <i name="AMIX_MAG">      0.80000000</i>
    <i name="BMIX_MAG">      0.00010000</i>
    <separator name="electronic mixer details" >
     <i type="int" name="IMIX">     4</i>
     <i type="logical" name="MIXFIRST"> F  </i>
     <i type="int" name="MAXMIX">   -45</i>
     <i name="WC">    100.00000000</i>
     <i type="int" name="INIMIX">     1</i>
     <i type="int" name="MIXPRE">     1</i>
     <i type="int" name="MREMOVE">     5</i>
    </separator>
   </separator>
   <separator name="electronic dipolcorrection" >
    <i type="logical" name="LDIPOL"> F  </i>
    <i type="logical" name="LMONO"> F  </i>
    <i type="int" name="IDIPOL">     0</i>
    <i name="EPSILON">      1.00000000</i>
    <v name="DIPOL">   -100.00000000   -100.00000000   -100.00000000</v>
    <i name="EFIELD">      0.00000000</i>
   </separator>
  </separator>
  <separator name="grids" >
   <i type="int" name="NGX">    96</i>
   <i type="int" name="NGY">    96</i>
   <i type="int" name="NGZ">    84</i>
   <i type="int" name="NGXF">   192</i>
   <i type="int" name="NGYF">   192</i>
   <i type="int" name="NGZF">   168</i>
   <i type="logical" name="ADDGRID"> T  </i>
  </separator>
  <separator name="ionic" >
   <i type="int" name="NSW">   300</i>
   <i type="int" name="IBRION">     3</i>
   <i type="int" name="MDALGO">     0</i>
   <i type="int" name="ISIF">     2</i>
   <i name="PSTRESS">      0.00000000</i>
   <i name="EDIFFG">     -0.03000000</i>
   <i type="int" name="NFREE">     0</i>
   <i name="POTIM">      0.00000000</i>
   <i name="SMASS">     -3.00000000</i>
   <i name="SCALEE">      1.00000000</i>
  </separator>
  <separator name="ionic md" >
   <i name="TEBEG">      0.00010000</i>
   <i name="TEEND">      0.00010000</i>
   <i type="int" name="NBLOCK">     1</i>
   <i type="int" name="KBLOCK">   300</i>
   <i type="int" name="NPACO">   256</i>
   <i name="APACO">     10.00000000</i>
  </separator>
  <separator name="symmetry" >
   <i type="int" name="ISYM">     0</i>
   <i name="SYMPREC">      0.00001000</i>
  </separator>
  <separator name="dos" >
   <i type="int" name="LORBIT">     0</i>
   <v name="RWIGS">     -1.00000000     -1.00000000     -1.00000000     -1.00000000</v>
   <i type="int" name="NEDOS">   301</i>
   <i name="EMIN">     10.00000000</i>
   <i name="EMAX">    -10.00000000</i>
   <i name="EFERMI">      0.00000000</i>
  </separator>
  <separator name="writing" >
   <i type="int" name="NWRITE">     2</i>
   <i type="logical" name="LWAVE"> F  </i>
   <i type="logical" name="LDOWNSAMPLE"> F  </i>
   <i type="logical" name="LCHARG"> F  </i>
   <i type="logical" name="LPARD"> F  </i>
   <i type="logical" name="LVTOT"> F  </i>
   <i type="logical" name="LVHAR"> F  </i>
   <i type="logical" name="LELF"> F  </i>
   <i type="logical" name="LOPTICS"> F  </i>
   <v name="STM">      0.00000000      0.00000000      0.00000000      0.00000000      0.00000000      0.00000000      0.00000000</v>
  </separator>
  <separator name="performance" >
   <i type="int" name="NPAR">     5</i>
   <i type="int" name="NSIM">     4</i>
   <i type="int" name="NBLK">    -1</i>
   <i type="logical" name="LPLANE"> T  </i>
   <i type="logical" name="LSCALAPACK"> T  </i>
   <i type="logical" name="LSCAAWARE"> F  </i>
   <i type="logical" name="LSCALU"> F  </i>
   <i type="logical" name="LASYNC"> F  </i>
   <i type="logical" name="LORBITALREAL"> F  </i>
  </separator>
  <separator name="miscellaneous" >
   <i type="int" name="IDIOT">     3</i>
   <i type="int" name="PHON_NSTRUCT">    -1</i>
   <i type="logical" name="LMUSIC"> F  </i>
   <v name="POMASS">     12.01100000      1.00000000     14.00100000     16.00000000</v>
   <v name="DARWINR">      0.00000000      0.00000000      0.00000000      0.00000000</v>
   <v name="DARWINV">      1.00000000      1.00000000      1.00000000      1.00000000</v>
   <i type="logical" name="LCORR"> T  </i>
  </separator>
  <i type="logical" name="GGA_COMPAT"> T  </i>
  <i type="logical" name="LBERRY"> F  </i>
  <i type="int" name="ICORELEVEL">     0</i>
  <i type="logical" name="LDAU"> F  </i>
  <i type="int" name="I_CONSTRAINED_M">     0</i>
  <separator name="electronic exchange-correlation" >
   <i type="string" name="GGA">--</i>
   <i type="int" name="VOSKOWN">     0</i>
   <i type="logical" name="LHFCALC"> F  </i>
   <i type="string" name="PRECFOCK"></i>
   <i type="logical" name="LSYMGRAD"> F  </i>
   <i type="logical" name="LHFONE"> F  </i>
   <i type="logical" name="LRHFCALC"> F  </i>
   <i type="logical" name="LTHOMAS"> F  </i>
   <i type="logical" name="LMODELHF"> F  </i>
   <i type="logical" name="LFOCKACE"> F  </i>
   <i name="ENCUT4O">     -1.00000000</i>
   <i type="int" name="EXXOEP">     0</i>
   <i type="int" name="FOURORBIT">     0</i>
   <i name="AEXX">      0.00000000</i>
   <i name="HFALPHA">      0.00000000</i>
   <i name="MCALPHA">      0.00000000</i>
   <i name="ALDAX">      1.00000000</i>
   <i name="AGGAX">      1.00000000</i>
   <i name="ALDAC">      1.00000000</i>
   <i name="AGGAC">      1.00000000</i>
   <i type="int" name="NKREDX">     1</i>
   <i type="int" name="NKREDY">     1</i>
   <i type="int" name="NKREDZ">     1</i>
   <i type="logical" name="SHIFTRED"> F  </i>
   <i type="logical" name="ODDONLY"> F  </i>
   <i type="logical" name="EVENONLY"> F  </i>
   <i type="int" name="LMAXFOCK">     0</i>
   <i type="int" name="NMAXFOCKAE">     0</i>
   <i type="logical" name="LFOCKAEDFT"> F  </i>
   <i name="HFSCREEN">      0.00000000</i>
   <i name="HFSCREENC">      0.00000000</i>
   <i type="int" name="NBANDSGWLOW">     0</i>
  </separator>
  <separator name="vdW DFT" >
   <i type="logical" name="LUSE_VDW"> F  </i>
   <i type="int" name="IVDW_NL">     1</i>
   <i type="logical" name="LSPIN_VDW"> F  </i>
   <i name="Zab_VDW">     -0.84910000</i>
   <i name="PARAM1">      0.12340000</i>
   <i name="PARAM2">      1.00000000</i>
   <i name="PARAM3">      0.00000000</i>
  </separator>
  <separator name="model GW" >
   <i type="int" name="MODEL_GW">     0</i>
   <i name="MODEL_EPS0">     23.96835834</i>
   <i name="MODEL_ALPHA">      1.00000000</i>
  </separator>
  <separator name="linear response parameters" >
   <i type="logical" name="LEPSILON"> F  </i>
   <i type="logical" name="LRPA"> F  </i>
   <i type="logical" name="LNABLA"> F  </i>
   <i type="logical" name="LVEL"> F  </i>
   <i name="CSHIFT">      0.10000000</i>
   <i name="OMEGAMAX">     -1.00000000</i>
   <i name="DEG_THRESHOLD">      0.00200000</i>
   <i name="RTIME">     -0.10000000</i>
   <i name="WPLASMAI">      0.00000000</i>
   <v name="DFIELD">      0.00000000      0.00000000      0.00000000</v>
   <v name="WPLASMA">      0.00000000      0.00000000      0.00000000      0.00000000      0.00000000      0.00000000      0.00000000      0.00000000      0.00000000</v>
  </separator>
  <separator name="orbital magnetization" >
   <i type="logical" name="NUCIND"> F  </i>
   <v name="MAGPOS">      0.00000000      0.00000000      0.00000000</v>
   <i type="logical" name="LNICSALL"> T  </i>
   <i type="logical" name="ORBITALMAG"> F  </i>
   <i type="logical" name="LMAGBLOCH"> F  </i>
   <i type="logical" name="LCHIMAG"> F  </i>
   <i type="logical" name="LGAUGE"> T  </i>
   <i type="int" name="MAGATOM">     0</i>
   <v name="MAGDIPOL">      0.00000000      0.00000000      0.00000000</v>
   <v name="AVECCONST">      0.00000000      0.00000000      0.00000000</v>
  </separator>
  <separator name="response functions" >
   <i type="logical" name="LALL_IN_ONE"> F  </i>
   <i type="int" name="IALL_IN_ONE">    -1</i>
   <i type="int" name="NBANDS_WAVE">    -1</i>
   <i type="logical" name="LFINITE_TEMPERATURE"> F  </i>
   <i type="logical" name="LADDER"> F  </i>
   <i type="logical" name="LRPAFORCE"> F  </i>
   <i type="logical" name="LFXC"> F  </i>
   <i type="logical" name="LHARTREE"> T  </i>
   <i type="int" name="IBSE">     0</i>
   <v type="int" name="KPOINT">    -1     0     0     0</v>
   <i type="logical" name="LTCTC"> F  </i>
   <i type="logical" name="LTCTE"> F  </i>
   <i type="logical" name="LTETE"> F  </i>
   <i type="logical" name="LTRIPLET"> F  </i>
   <i type="logical" name="LFXCEPS"> F  </i>
   <i type="logical" name="LFXHEG"> F  </i>
   <i type="int" name="NATURALO">     2</i>
   <i type="logical" name="LHOLEGF"> F  </i>
   <i type="logical" name="L2ORDER"> F  </i>
   <i type="logical" name="LDMP1"> F  </i>
   <i type="logical" name="LMP2LT"> F  </i>
   <i type="logical" name="LSMP2LT"> F  </i>
   <i type="logical" name="LGWLF"> F  </i>
   <i name="ENCUTGW">     -1.60000002</i>
   <i name="ENCUTGWSOFT">     -1.60000002</i>
   <i name="ENCUTLF">     -1.00000000</i>
   <i type="logical" name="LESF_SPLINES"> F  </i>
   <i type="int" name="LMAXMP2">    -1</i>
   <i name="SCISSOR">      0.00000000</i>
   <i type="int" name="NOMEGA">     0</i>
   <i type="int" name="NOMEGAR">     0</i>
   <i type="int" name="NBANDSGW">    -1</i>
   <i type="int" name="NBANDSO">    -1</i>
   <i type="int" name="NBANDSV">    -1</i>
   <i type="int" name="NELMGW">     1</i>
   <i type="int" name="NELMHF">     1</i>
   <i type="int" name="DIM">     3</i>
   <i type="int" name="IESPILON">     4</i>
   <i type="int" name="ANTIRES">     0</i>
   <i name="OMEGAMAX">    -30.00000000</i>
   <i name="OMEGAMIN">    -30.00000000</i>
   <i name="OMEGATL">   -200.00000000</i>
   <i type="int" name="OMEGAGRID">     0</i>
   <i name="CSHIFT">     -0.10000000</i>
   <i type="logical" name="LSELFENERGY"> F  </i>
   <i type="logical" name="LSPECTRAL"> F  </i>
   <i type="logical" name="LSPECTRALGW"> F  </i>
   <i type="logical" name="LSINGLES"> F  </i>
   <i type="logical" name="LFERMIGW"> F  </i>
   <i type="logical" name="ODDONLYGW"> F  </i>
   <i type="logical" name="EVENONLYGW"> F  </i>
   <i type="int" name="NKREDLFX">     1</i>
   <i type="int" name="NKREDLFY">     1</i>
   <i type="int" name="NKREDLFZ">     1</i>
   <i type="int" name="MAXMEM">  2800</i>
   <i type="int" name="TELESCOPE">     0</i>
   <i type="int" name="NTAUPAR">    -1</i>
   <i type="int" name="NOMEGAPAR">    -1</i>
   <i name="DAMP_NEWTON">      0.80000001</i>
   <i name="LAMBDA">      1.00000000</i>
  </separator>
  <separator name="External order field" >
   <i name="OFIELD_KAPPA">      0.00000000</i>
   <v name="OFIELD_K">      0.00000000      0.00000000      0.00000000</v>
   <i name="OFIELD_Q6_NEAR">      0.00000000</i>
   <i name="OFIELD_Q6_FAR">      0.00000000</i>
   <i name="OFIELD_A">      0.00000000</i>
  </separator>
  <separator name="optional k-points parameters" >
   <i type="int" name="KPOINTS_OPT_MODE">     1</i>
   <i type="logical" name="LKPOINTS_OPT"> F  </i>
  </separator>
 </parameters>
 <atominfo>
  <atoms>      97 </atoms>
  <types>       4 </types>
  <array name="atoms" >
   <dimension dim="1">ion</dimension>
   <field type="string">element</field>
   <field type="int">atomtype</field>
   <set>
    <rc><c>C </c><c>   1</c></rc>
    <rc><c>C </c><c>   1</c></rc>
    <rc><c>C </c><c>   1</c></rc>
    <rc><c>C </c><c>   1</c></rc>
    <rc><c>C </c><c>   1</c></rc>
    <rc><c>C </c><c>   1</c></rc>
    <rc><c>C </c><c>   1</c></rc>
    <rc><c>C </c><c>   1</c></rc>
    <rc><c>C </c><c>   1</c></rc>
    <rc><c>C </c><c>   1</c></rc>
    <rc><c>C </c><c>   1</c></rc>
    <rc><c>C </c><c>   1</c></rc>
    <rc><c>C </c><c>   1</c></rc>
    <rc><c>C </c><c>   1</c></rc>
    <rc><c>C </c><c>   1</c></rc>
    <rc><c>C </c><c>   1</c></rc>
    <rc><c>C </c><c>   1</c></rc>
    <rc><c>C </c><c>   1</c></rc>
    <rc><c>C </c><c>   1</c></rc>
    <rc><c>C </c><c>   1</c></rc>
    <rc><c>C </c><c>   1</c></rc>
    <rc><c>C </c><c>   1</c></rc>
    <rc><c>C </c><c>   1</c></rc>
    <rc><c>C </c><c>   1</c></rc>
    <rc><c>C </c><c>   1</c></rc>
    <rc><c>C </c><c>   1</c></rc>
    <rc><c>C </c><c>   1</c></rc>
    <rc><c>C </c><c>   1</c></rc>
    <rc><c>C </c><c>   1</c></rc>
    <rc><c>C </c><c>   1</c></rc>
    <rc><c>C </c><c>   1</c></rc>
    <rc><c>C </c><c>   1</c></rc>
    <rc><c>C </c><c>   1</c></rc>
    <rc><c>C </c><c>   1</c></rc>
    <rc><c>C </c><c>   1</c></rc>
    <rc><c>C </c><c>   1</c></rc>
    <rc><c>C </c><c>   1</c></rc>
    <rc><c>C </c><c>   1</c></rc>
    <rc><c>C </c><c>   1</c></rc>
    <rc><c>C </c><c>   1</c></rc>
    <rc><c>C </c><c>   1</c></rc>
    <rc><c>C </c><c>   1</c></rc>
    <rc><c>C </c><c>   1</c></rc>
    <rc><c>C </c><c>   1</c></rc>
    <rc><c>C </c><c>   1</c></rc>
    <rc><c>C </c><c>   1</c></rc>
    <rc><c>C </c><c>   1</c></rc>
    <rc><c>C </c><c>   1</c></rc>
    <rc><c>C </c><c>   1</c></rc>
    <rc><c>C </c><c>   1</c></rc>
    <rc><c>C </c><c>   1</c></rc>
    <rc><c>C </c><c>   1</c></rc>
    <rc><c>C </c><c>   1</c></rc>
    <rc><c>C </c><c>   1</c></rc>
    <rc><c>C </c><c>   1</c></rc>
    <rc><c>C </c><c>   1</c></rc>
    <rc><c>C </c><c>   1</c></rc>
    <rc><c>C </c><c>   1</c></rc>
    <rc><c>C </c><c>   1</c></rc>
    <rc><c>C </c><c>   1</c></rc>
    <rc><c>C </c><c>   1</c></rc>
    <rc><c>C </c><c>   1</c></rc>
    <rc><c>C </c><c>   1</c></rc>
    <rc><c>C </c><c>   1</c></rc>
    <rc><c>C </c><c>   1</c></rc>
    <rc><c>C </c><c>   1</c></rc>
    <rc><c>C </c><c>   1</c></rc>
    <rc><c>C </c><c>   1</c></rc>
    <rc><c>C </c><c>   1</c></rc>
    <rc><c>C </c><c>   1</c></rc>
    <rc><c>C </c><c>   1</c></rc>
    <rc><c>C </c><c>   1</c></rc>
    <rc><c>C </c><c>   1</c></rc>
    <rc><c>C </c><c>   1</c></rc>
    <rc><c>C </c><c>   1</c></rc>
    <rc><c>C </c><c>   1</c></rc>
    <rc><c>C </c><c>   1</c></rc>
    <rc><c>C </c><c>   1</c></rc>
    <rc><c>C </c><c>   1</c></rc>
    <rc><c>C </c><c>   1</c></rc>
    <rc><c>C </c><c>   1</c></rc>
    <rc><c>C </c><c>   1</c></rc>
    <rc><c>C </c><c>   1</c></rc>
    <rc><c>C </c><c>   1</c></rc>
    <rc><c>C </c><c>   1</c></rc>
    <rc><c>C </c><c>   1</c></rc>
    <rc><c>H </c><c>   2</c></rc>
    <rc><c>H </c><c>   2</c></rc>
    <rc><c>H </c><c>   2</c></rc>
    <rc><c>H </c><c>   2</c></rc>
    <rc><c>H </c><c>   2</c></rc>
    <rc><c>H </c><c>   2</c></rc>
    <rc><c>H </c><c>   2</c></rc>
    <rc><c>H </c><c>   2</c></rc>
    <rc><c>N </c><c>   3</c></rc>
    <rc><c>N </c><c>   3</c></rc>
    <rc><c>O </c><c>   4</c></rc>
   </set>
  </array>
  <array name="atomtypes" >
   <dimension dim="1">type</dimension>
   <field type="int">atomspertype</field>
   <field type="string">element</field>
   <field>mass</field>
   <field>valence</field>
   <field type="string">pseudopotential</field>
   <set>
    <rc><c>  86</c><c>C </c><c>     12.01100000</c><c>      4.00000000</c><c>  PAW_PBE C 08Apr2002                   </c></rc>
    <rc><c>   8</c><c>H </c><c>      1.00000000</c><c>      1.00000000</c><c>  PAW_PBE H 15Jun2001                   </c></rc>
    <rc><c>   2</c><c>N </c><c>     14.00100000</c><c>      5.00000000</c><c>  PAW_PBE N 08Apr2002                   </c></rc>
    <rc><c>   1</c><c>O </c><c>     16.00000000</c><c>      6.00000000</c><c>  PAW_PBE O 08Apr2002                   </c></rc>
   </set>
  </array>
 </atominfo>
 <structure name="initialpos" >
  <crystal>
   <varray name="basis" >
    <v>      17.27103806       0.00000000       0.00000000 </v>
    <v>      -8.63551903      14.95715771       0.00000000 </v>
    <v>       0.00000000       0.00000000      15.00000000 </v>
   </varray>
   <i name="volume">   3874.88459904 </i>
   <varray name="rec_basis" >
    <v>       0.05790040       0.03342881       0.00000000 </v>
    <v>       0.00000000       0.06685762       0.00000000 </v>
    <v>       0.00000000       0.00000000       0.06666667 </v>
   </varray>
  </crystal>
  <varray name="positions" >
   <v>       0.99893343       0.99922244       0.50087636 </v>
   <v>       0.99892173       0.14202997       0.50016400 </v>
   <v>       0.99900917       0.28518700       0.49971329 </v>
   <v>       0.99892497       0.42825139       0.49997085 </v>
   <v>       0.99897594       0.57109448       0.50072334 </v>
   <v>       0.99917184       0.71375280       0.50088497 </v>
   <v>       0.99914993       0.85678868       0.50084671 </v>
   <v>       0.14256861       0.00000728       0.50084684 </v>
   <v>       0.14218235       0.14252139       0.49984088 </v>
   <v>       0.14130713       0.28466794       0.49869388 </v>
   <v>       0.14130123       0.42799847       0.49857462 </v>
   <v>       0.14219077       0.57102128       0.49968409 </v>
   <v>       0.14259623       0.71394381       0.50082228 </v>
   <v>       0.14254873       0.85696123       0.50116086 </v>
   <v>       0.28571578       0.00001541       0.50093998 </v>
   <v>       0.28597031       0.14308665       0.49974964 </v>
   <v>       0.28551297       0.28682906       0.49766034 </v>
   <v>       0.28287333       0.42711569       0.49646937 </v>
   <v>       0.28549636       0.57002650       0.49758042 </v>
   <v>       0.28596749       0.71423583       0.49965433 </v>
   <v>       0.28573184       0.85708859       0.50087950 </v>
   <v>       0.42860624       0.99999049       0.50097118 </v>
   <v>       0.42926597       0.14352857       0.50031066 </v>
   <v>       0.42806344       0.28370119       0.49849699 </v>
   <v>       0.42806204       0.71570594       0.49850389 </v>
   <v>       0.42926608       0.85709421       0.50033238 </v>
   <v>       0.57118370       0.99993538       0.50061883 </v>
   <v>       0.57120175       0.14265647       0.50055727 </v>
   <v>       0.57459771       0.28858829       0.49927605 </v>
   <v>       0.57459057       0.85739499       0.49937817 </v>
   <v>       0.71403029       0.00031794       0.50004792 </v>
   <v>       0.71394374       0.14267813       0.50059301 </v>
   <v>       0.71405594       0.28513450       0.49983417 </v>
   <v>       0.70968834       0.42432870       0.49735227 </v>
   <v>       0.71465855       0.57128564       0.48911649 </v>
   <v>       0.71464479       0.71475069       0.48923638 </v>
   <v>       0.70970363       0.85678146       0.49758082 </v>
   <v>       0.85604981       0.99932110       0.49990644 </v>
   <v>       0.85646698       0.14255040       0.50029414 </v>
   <v>       0.85649908       0.28533922       0.50017192 </v>
   <v>       0.85608035       0.42812650       0.49964740 </v>
   <v>       0.85517556       0.57026424       0.49887109 </v>
   <v>       0.85624476       0.71380116       0.49773658 </v>
   <v>       0.85514694       0.85625106       0.49906164 </v>
   <v>       0.04681306       0.09459423       0.50041906 </v>
   <v>       0.04609259       0.23705059       0.49957508 </v>
   <v>       0.04609054       0.38040500       0.49944487 </v>
   <v>       0.04681941       0.52357905       0.50023867 </v>
   <v>       0.04696522       0.66640047       0.50100395 </v>
   <v>       0.04682713       0.80909821       0.50105711 </v>
   <v>       0.04694465       0.95192690       0.50102533 </v>
   <v>       0.19029286       0.09505465       0.50017129 </v>
   <v>       0.18953248       0.23765592       0.49870496 </v>
   <v>       0.18768207       0.37953417       0.49787521 </v>
   <v>       0.18953076       0.52322430       0.49857467 </v>
   <v>       0.19030701       0.66660081       0.50006275 </v>
   <v>       0.19039366       0.80946067       0.50099413 </v>
   <v>       0.19039234       0.95232835       0.50101225 </v>
   <v>       0.33380940       0.09576088       0.50041476 </v>
   <v>       0.33462813       0.23859103       0.49859632 </v>
   <v>       0.32931814       0.37953324       0.49620352 </v>
   <v>       0.32930296       0.52113814       0.49616446 </v>
   <v>       0.33463420       0.66738934       0.49852383 </v>
   <v>       0.33381053       0.80941362       0.50033845 </v>
   <v>       0.33314657       0.95227081       0.50104834 </v>
   <v>       0.47620159       0.09518311       0.50072866 </v>
   <v>       0.47690963       0.23924656       0.49953193 </v>
   <v>       0.47689745       0.80901087       0.49956586 </v>
   <v>       0.47619379       0.95239691       0.50077846 </v>
   <v>       0.61861767       0.09500961       0.50069025 </v>
   <v>       0.61933086       0.23808824       0.49989600 </v>
   <v>       0.61931387       0.95264266       0.50002326 </v>
   <v>       0.76162338       0.09546868       0.50050451 </v>
   <v>       0.76162952       0.23756462       0.50034434 </v>
   <v>       0.76070761       0.37993222       0.49895679 </v>
   <v>       0.75875417       0.52262481       0.49534188 </v>
   <v>       0.76046853       0.66591816       0.49179418 </v>
   <v>       0.75874021       0.80750845       0.49557563 </v>
   <v>       0.76069254       0.95219813       0.49921512 </v>
   <v>       0.90365240       0.09431480       0.50022469 </v>
   <v>       0.90396199       0.23767030       0.50015829 </v>
   <v>       0.90367965       0.38073122       0.50003202 </v>
   <v>       0.90353510       0.52346789       0.50012709 </v>
   <v>       0.90331098       0.66572801       0.49940703 </v>
   <v>       0.90328645       0.80891792       0.49947222 </v>
   <v>       0.90349823       0.95141015       0.50034129 </v>
   <v>       0.46652908       0.35632178       0.49737136 </v>
   <v>       0.40185034       0.41917336       0.49620934 </v>
   <v>       0.40183499       0.55404354       0.49613751 </v>
   <v>       0.64226991       0.67905655       0.48100344 </v>
   <v>       0.64228032       0.53460985       0.48084261 </v>
   <v>       0.46653861       0.68156449       0.49738907 </v>
   <v>       0.55669899       0.60859755       0.57798801 </v>
   <v>       0.55737106       0.51984984       0.57800847 </v>
   <v>       0.61961495       0.37912046       0.49821692 </v>
   <v>       0.61962809       0.81190537       0.49838912 </v>
   <v>       0.51803149       0.54449865       0.56977595 </v>
  </varray>
  <varray name="selective"  type="logical" >
   <v type="logical" >  T  T  T </v>
   <v type="logical" >  T  T  T </v>
   <v type="logical" >  T  T  T </v>
   <v type="logical" >  T  T  T </v>
   <v type="logical" >  T  T  T </v>
   <v type="logical" >  T  T  T </v>
   <v type="logical" >  T  T  T </v>
   <v type="logical" >  T  T  T </v>
   <v type="logical" >  T  T  T </v>
   <v type="logical" >  T  T  T </v>
   <v type="logical" >  T  T  T </v>
   <v type="logical" >  T  T  T </v>
   <v type="logical" >  T  T  T </v>
   <v type="logical" >  T  T  T </v>
   <v type="logical" >  T  T  T </v>
   <v type="logical" >  T  T  T </v>
   <v type="logical" >  T  T  T </v>
   <v type="logical" >  T  T  T </v>
   <v type="logical" >  T  T  T </v>
   <v type="logical" >  T  T  T </v>
   <v type="logical" >  T  T  T </v>
   <v type="logical" >  T  T  T </v>
   <v type="logical" >  T  T  T </v>
   <v type="logical" >  T  T  T </v>
   <v type="logical" >  T  T  T </v>
   <v type="logical" >  T  T  T </v>
   <v type="logical" >  T  T  T </v>
   <v type="logical" >  T  T  T </v>
   <v type="logical" >  T  T  T </v>
   <v type="logical" >  T  T  T </v>
   <v type="logical" >  T  T  T </v>
   <v type="logical" >  T  T  T </v>
   <v type="logical" >  T  T  T </v>
   <v type="logical" >  T  T  T </v>
   <v type="logical" >  T  T  T </v>
   <v type="logical" >  T  T  T </v>
   <v type="logical" >  T  T  T </v>
   <v type="logical" >  T  T  T </v>
   <v type="logical" >  T  T  T </v>
   <v type="logical" >  T  T  T </v>
   <v type="logical" >  T  T  T </v>
   <v type="logical" >  T  T  T </v>
   <v type="logical" >  T  T  T </v>
   <v type="logical" >  T  T  T </v>
   <v type="logical" >  T  T  T </v>
   <v type="logical" >  T  T  T </v>
   <v type="logical" >  T  T  T </v>
   <v type="logical" >  T  T  T </v>
   <v type="logical" >  T  T  T </v>
   <v type="logical" >  T  T  T </v>
   <v type="logical" >  T  T  T </v>
   <v type="logical" >  T  T  T </v>
   <v type="logical" >  T  T  T </v>
   <v type="logical" >  T  T  T </v>
   <v type="logical" >  T  T  T </v>
   <v type="logical" >  T  T  T </v>
   <v type="logical" >  T  T  T </v>
   <v type="logical" >  T  T  T </v>
   <v type="logical" >  T  T  T </v>
   <v type="logical" >  T  T  T </v>
   <v type="logical" >  T  T  T </v>
   <v type="logical" >  T  T  T </v>
   <v type="logical" >  T  T  T </v>
   <v type="logical" >  T  T  T </v>
   <v type="logical" >  T  T  T </v>
   <v type="logical" >  T  T  T </v>
   <v type="logical" >  T  T  T </v>
   <v type="logical" >  T  T  T </v>
   <v type="logical" >  T  T  T </v>
   <v type="logical" >  T  T  T </v>
   <v type="logical" >  T  T  T </v>
   <v type="logical" >  T  T  T </v>
   <v type="logical" >  T  T  T </v>
   <v type="logical" >  T  T  T </v>
   <v type="logical" >  T  T  T </v>
   <v type="logical" >  T  T  T </v>
   <v type="logical" >  T  T  T </v>
   <v type="logical" >  T  T  T </v>
   <v type="logical" >  T  T  T </v>
   <v type="logical" >  T  T  T </v>
   <v type="logical" >  T  T  T </v>
   <v type="logical" >  T  T  T </v>
   <v type="logical" >  T  T  T </v>
   <v type="logical" >  T  T  T </v>
   <v type="logical" >  T  T  T </v>
   <v type="logical" >  T  T  T </v>
   <v type="logical" >  T  T  T </v>
   <v type="logical" >  T  T  T </v>
   <v type="logical" >  T  T  T </v>
   <v type="logical" >  T  T  T </v>
   <v type="logical" >  T  T  T </v>
   <v type="logical" >  T  T  T </v>
   <v type="logical" >  T  T  T </v>
   <v type="logical" >  T  T  T </v>
   <v type="logical" >  T  T  T </v>
   <v type="logical" >  T  T  T </v>
   <v type="logical" >  T  T  F </v>
  </varray>
  <nose>
   <v>      -3.00000000       0.00000000       0.00010000       0.00010000 </v>
  </nose>
 </structure>
 <calculation>
  <scstep>
   <time name="dav">   77.96   79.07</time>
   <time name="total">   83.58   84.80</time>
   <energy>
    <i name="alphaZ">    175.87611319 </i>
    <i name="ewald">  36492.03410021 </i>
    <i name="hartreedc"> -46691.82026334 </i>
    <i name="XCdc">   1223.89316317 </i>
    <i name="pawpsdc">  10101.41315093 </i>
    <i name="pawaedc"> -10154.35997595 </i>
    <i name="eentropy">     -0.04541372 </i>
    <i name="bandstr">  -1602.96641127 </i>
    <i name="atom">  13716.13071916 </i>
    <i name="e_fr_energy">   3260.15518237 </i>
    <i name="e_wo_entrp">   3260.20059609 </i>
    <i name="e_0_energy">   3260.17788923 </i>
   </energy>
  </scstep>
  <scstep>
   <time name="dav">  100.87  102.47</time>
   <time name="total">  100.88  102.48</time>
   <energy>
    <i name="e_fr_energy">   -250.87877016 </i>
    <i name="e_wo_entrp">   -250.87873284 </i>
    <i name="e_0_energy">   -250.87875150 </i>
   </energy>
  </scstep>
  <scstep>
   <time name="dav">   86.82   88.20</time>
   <time name="total">   86.82   88.20</time>
   <energy>
    <i name="e_fr_energy">   -864.37658590 </i>
    <i name="e_wo_entrp">   -864.37658483 </i>
    <i name="e_0_energy">   -864.37658537 </i>
   </energy>
  </scstep>
  <scstep>
   <time name="dav">   88.23   89.57</time>
   <time name="total">   88.24   89.57</time>
   <energy>
    <i name="e_fr_energy">   -886.52553663 </i>
    <i name="e_wo_entrp">   -886.52553518 </i>
    <i name="e_0_energy">   -886.52553591 </i>
   </energy>
  </scstep>
  <scstep>
   <time name="dav">   96.59   98.01</time>
   <time name="total">  101.66  103.20</time>
   <energy>
    <i name="e_fr_energy">   -887.15271590 </i>
    <i name="e_wo_entrp">   -887.15271435 </i>
    <i name="e_0_energy">   -887.15271512 </i>
   </energy>
  </scstep>
  <scstep>
   <time name="dav">   84.53   85.77</time>
   <time name="total">   94.97   96.38</time>
   <energy>
    <i name="e_fr_energy">   -869.79405909 </i>
    <i name="e_wo_entrp">   -869.79172180 </i>
    <i name="e_0_energy">   -869.79289045 </i>
   </energy>
  </scstep>
  <scstep>
   <time name="dav">   82.93   84.19</time>
   <time name="total">   93.69   95.06</time>
   <energy>
    <i name="e_fr_energy">   -847.62959718 </i>
    <i name="e_wo_entrp">   -847.62958429 </i>
    <i name="e_0_energy">   -847.62959074 </i>
   </energy>
  </scstep>
  <scstep>
   <time name="dav">   84.39   85.62</time>
   <time name="total">   95.00   96.41</time>
   <energy>
    <i name="e_fr_energy">   -842.82704885 </i>
    <i name="e_wo_entrp">   -842.82704878 </i>
    <i name="e_0_energy">   -842.82704882 </i>
   </energy>
  </scstep>
  <scstep>
   <time name="dav">   82.64   83.94</time>
   <time name="total">   93.33   94.75</time>
   <energy>
    <i name="e_fr_energy">   -842.72709783 </i>
    <i name="e_wo_entrp">   -842.72709776 </i>
    <i name="e_0_energy">   -842.72709779 </i>
   </energy>
  </scstep>
  <scstep>
   <time name="dav">   81.73   82.95</time>
   <time name="total">   92.52   93.91</time>
   <energy>
    <i name="e_fr_energy">   -842.63375307 </i>
    <i name="e_wo_entrp">   -842.63375303 </i>
    <i name="e_0_energy">   -842.63375305 </i>
   </energy>
  </scstep>
  <scstep>
   <time name="dav">   80.75   81.96</time>
   <time name="total">   91.66   93.10</time>
   <energy>
    <i name="e_fr_energy">   -842.62236815 </i>
    <i name="e_wo_entrp">   -842.62236811 </i>
    <i name="e_0_energy">   -842.62236813 </i>
   </energy>
  </scstep>
  <scstep>
   <time name="dav">   86.52   87.86</time>
   <time name="total">   97.62   99.11</time>
   <energy>
    <i name="e_fr_energy">   -842.62052846 </i>
    <i name="e_wo_entrp">   -842.62052842 </i>
    <i name="e_0_energy">   -842.62052844 </i>
   </energy>
  </scstep>
  <scstep>
   <time name="dav">   84.40   85.75</time>
   <time name="total">   95.49   96.96</time>
   <energy>
    <i name="e_fr_energy">   -842.62014992 </i>
    <i name="e_wo_entrp">   -842.62014988 </i>
    <i name="e_0_energy">   -842.62014990 </i>
   </energy>
  </scstep>
  <scstep>
   <time name="dav">   84.88   86.18</time>
   <time name="total">   96.04   97.48</time>
   <energy>
    <i name="e_fr_energy">   -842.62027235 </i>
    <i name="e_wo_entrp">   -842.62027231 </i>
    <i name="e_0_energy">   -842.62027233 </i>
   </energy>
  </scstep>
  <scstep>
   <time name="dav">   79.61   80.80</time>
   <time name="total">   90.58   91.90</time>
   <energy>
    <i name="e_fr_energy">   -842.62030174 </i>
    <i name="e_wo_entrp">   -842.62030169 </i>
    <i name="e_0_energy">   -842.62030171 </i>
   </energy>
  </scstep>
  <scstep>
   <time name="dav">   71.36   72.31</time>
   <time name="total">   82.60   83.72</time>
   <energy>
    <i name="e_fr_energy">   -842.62031610 </i>
    <i name="e_wo_entrp">   -842.62031606 </i>
    <i name="e_0_energy">   -842.62031608 </i>
   </energy>
  </scstep>
  <scstep>
   <time name="dav">   61.45   62.25</time>
   <time name="total">   67.42   68.27</time>
   <energy>
    <i name="alphaZ">    175.87611319 </i>
    <i name="ewald">  36492.03410021 </i>
    <i name="hartreedc"> -48199.89539697 </i>
    <i name="XCdc">   1273.89198395 </i>
    <i name="pawpsdc">  37279.46428989 </i>
    <i name="pawaedc"> -37343.28449091 </i>
    <i name="eentropy">     -0.00000004 </i>
    <i name="bandstr">  -4236.83763458 </i>
    <i name="atom">  13716.13071916 </i>
    <i name="e_fr_energy">   -842.62031612 </i>
    <i name="e_wo_entrp">   -842.62031608 </i>
    <i name="e_0_energy">   -842.62031610 </i>
   </energy>
  </scstep>
  <structure>
   <crystal>
    <varray name="basis" >
     <v>      17.27103806       0.00000000       0.00000000 </v>
     <v>      -8.63551903      14.95715771       0.00000000 </v>
     <v>       0.00000000       0.00000000      15.00000000 </v>
    </varray>
    <i name="volume">   3874.88459904 </i>
    <varray name="rec_basis" >
     <v>       0.05790040       0.03342881       0.00000000 </v>
     <v>       0.00000000       0.06685762       0.00000000 </v>
     <v>       0.00000000       0.00000000       0.06666667 </v>
    </varray>
   </crystal>
   <varray name="positions" >
    <v>       0.99893343       0.99922244       0.50087636 </v>
    <v>       0.99892173       0.14202997       0.50016400 </v>
    <v>       0.99900917       0.28518700       0.49971329 </v>
    <v>       0.99892497       0.42825139       0.49997085 </v>
    <v>       0.99897594       0.57109448       0.50072334 </v>
    <v>       0.99917184       0.71375280       0.50088497 </v>
    <v>       0.99914993       0.85678868       0.50084671 </v>
    <v>       0.14256861       0.00000728       0.50084684 </v>
    <v>       0.14218235       0.14252139       0.49984088 </v>
    <v>       0.14130713       0.28466794       0.49869388 </v>
    <v>       0.14130123       0.42799847       0.49857462 </v>
    <v>       0.14219077       0.57102128       0.49968409 </v>
    <v>       0.14259623       0.71394381       0.50082228 </v>
    <v>       0.14254873       0.85696123       0.50116086 </v>
    <v>       0.28571578       0.00001541       0.50093998 </v>
    <v>       0.28597031       0.14308665       0.49974964 </v>
    <v>       0.28551297       0.28682906       0.49766034 </v>
    <v>       0.28287333       0.42711569       0.49646937 </v>
    <v>       0.28549636       0.57002650       0.49758042 </v>
    <v>       0.28596749       0.71423583       0.49965433 </v>
    <v>       0.28573184       0.85708859       0.50087950 </v>
    <v>       0.42860624       0.99999049       0.50097118 </v>
    <v>       0.42926597       0.14352857       0.50031066 </v>
    <v>       0.42806344       0.28370119       0.49849699 </v>
    <v>       0.42806204       0.71570594       0.49850389 </v>
    <v>       0.42926608       0.85709421       0.50033238 </v>
    <v>       0.57118370       0.99993538       0.50061883 </v>
    <v>       0.57120175       0.14265647       0.50055727 </v>
    <v>       0.57459771       0.28858829       0.49927605 </v>
    <v>       0.57459057       0.85739499       0.49937817 </v>
    <v>       0.71403029       0.00031794       0.50004792 </v>
    <v>       0.71394374       0.14267813       0.50059301 </v>
    <v>       0.71405594       0.28513450       0.49983417 </v>
    <v>       0.70968834       0.42432870       0.49735227 </v>
    <v>       0.71465855       0.57128564       0.48911649 </v>
    <v>       0.71464479       0.71475069       0.48923638 </v>
    <v>       0.70970363       0.85678146       0.49758082 </v>
    <v>       0.85604981       0.99932110       0.49990644 </v>
    <v>       0.85646698       0.14255040       0.50029414 </v>
    <v>       0.85649908       0.28533922       0.50017192 </v>
    <v>       0.85608035       0.42812650       0.49964740 </v>
    <v>       0.85517556       0.57026424       0.49887109 </v>
    <v>       0.85624476       0.71380116       0.49773658 </v>
    <v>       0.85514694       0.85625106       0.49906164 </v>
    <v>       0.04681306       0.09459423       0.50041906 </v>
    <v>       0.04609259       0.23705059       0.49957508 </v>
    <v>       0.04609054       0.38040500       0.49944487 </v>
    <v>       0.04681941       0.52357905       0.50023867 </v>
    <v>       0.04696522       0.66640047       0.50100395 </v>
    <v>       0.04682713       0.80909821       0.50105711 </v>
    <v>       0.04694465       0.95192690       0.50102533 </v>
    <v>       0.19029286       0.09505465       0.50017129 </v>
    <v>       0.18953248       0.23765592       0.49870496 </v>
    <v>       0.18768207       0.37953417       0.49787521 </v>
    <v>       0.18953076       0.52322430       0.49857467 </v>
    <v>       0.19030701       0.66660081       0.50006275 </v>
    <v>       0.19039366       0.80946067       0.50099413 </v>
    <v>       0.19039234       0.95232835       0.50101225 </v>
    <v>       0.33380940       0.09576088       0.50041476 </v>
    <v>       0.33462813       0.23859103       0.49859632 </v>
    <v>       0.32931814       0.37953324       0.49620352 </v>
    <v>       0.32930296       0.52113814       0.49616446 </v>
    <v>       0.33463420       0.66738934       0.49852383 </v>
    <v>       0.33381053       0.80941362       0.50033845 </v>
    <v>       0.33314657       0.95227081       0.50104834 </v>
    <v>       0.47620159       0.09518311       0.50072866 </v>
    <v>       0.47690963       0.23924656       0.49953193 </v>
    <v>       0.47689745       0.80901087       0.49956586 </v>
    <v>       0.47619379       0.95239691       0.50077846 </v>
    <v>       0.61861767       0.09500961       0.50069025 </v>
    <v>       0.61933086       0.23808824       0.49989600 </v>
    <v>       0.61931387       0.95264266       0.50002326 </v>
    <v>       0.76162338       0.09546868       0.50050451 </v>
    <v>       0.76162952       0.23756462       0.50034434 </v>
    <v>       0.76070761       0.37993222       0.49895679 </v>
    <v>       0.75875417       0.52262481       0.49534188 </v>
    <v>       0.76046853       0.66591816       0.49179418 </v>
    <v>       0.75874021       0.80750845       0.49557563 </v>
    <v>       0.76069254       0.95219813       0.49921512 </v>
    <v>       0.90365240       0.09431480       0.50022469 </v>
    <v>       0.90396199       0.23767030       0.50015829 </v>
    <v>       0.90367965       0.38073122       0.50003202 </v>
    <v>       0.90353510       0.52346789       0.50012709 </v>
    <v>       0.90331098       0.66572801       0.49940703 </v>
    <v>       0.90328645       0.80891792       0.49947222 </v>
    <v>       0.90349823       0.95141015       0.50034129 </v>
    <v>       0.46652908       0.35632178       0.49737136 </v>
    <v>       0.40185034       0.41917336       0.49620934 </v>
    <v>       0.40183499       0.55404354       0.49613751 </v>
    <v>       0.64226991       0.67905655       0.48100344 </v>
    <v>       0.64228032       0.53460985       0.48084261 </v>
    <v>       0.46653861       0.68156449       0.49738907 </v>
    <v>       0.55669899       0.60859755       0.57798801 </v>
    <v>       0.55737106       0.51984984       0.57800847 </v>
    <v>       0.61961495       0.37912046       0.49821692 </v>
    <v>       0.61962809       0.81190537       0.49838912 </v>
    <v>       0.51803149       0.54449865       0.56977595 </v>
   </varray>
  </structure>
  <varray name="forces" >
   <v>      -0.00006820       0.00044722       0.00109310 </v>
   <v>      -0.00032600       0.00119652       0.00077868 </v>
   <v>       0.00010290      -0.00168242      -0.00021569 </v>
   <v>       0.00035168      -0.00339495      -0.00062594 </v>
   <v>      -0.00222995      -0.00312477      -0.00027417 </v>
   <v>      -0.00325344      -0.00144116      -0.00092469 </v>
   <v>      -0.00007178      -0.00123313       0.00063443 </v>
   <v>      -0.00043341       0.00056281       0.00385902 </v>
   <v>      -0.00012069       0.00067284       0.00026953 </v>
   <v>      -0.00179828       0.00069507      -0.00077363 </v>
   <v>       0.00160665      -0.00146660      -0.00235243 </v>
   <v>       0.00145119      -0.00083199      -0.00120816 </v>
   <v>      -0.00200368       0.00008054       0.00081805 </v>
   <v>      -0.00121367       0.00045780       0.00332457 </v>
   <v>       0.00053999       0.00109549       0.00222027 </v>
   <v>      -0.00039182       0.00092190       0.00035323 </v>
   <v>       0.00002211       0.00134667      -0.00368569 </v>
   <v>       0.00117049       0.00088595      -0.00544237 </v>
   <v>       0.00366793       0.00004917      -0.00420570 </v>
   <v>       0.00169171       0.00681310      -0.00128152 </v>
   <v>       0.00143171       0.00274777       0.00178895 </v>
   <v>       0.00411434       0.00105893       0.00168171 </v>
   <v>       0.00121307       0.00050533      -0.00003165 </v>
   <v>       0.00099629       0.00004376      -0.00396771 </v>
   <v>       0.00119119       0.00355252      -0.00467118 </v>
   <v>       0.00136366       0.00374931      -0.00148512 </v>
   <v>      -0.00357261       0.00172837      -0.00004145 </v>
   <v>       0.00096525      -0.00020806       0.00068733 </v>
   <v>       0.00066126      -0.00158133      -0.00338752 </v>
   <v>      -0.00423407       0.00253545      -0.00519710 </v>
   <v>      -0.00505108       0.00057200      -0.00182702 </v>
   <v>      -0.00242930      -0.00003854       0.00119966 </v>
   <v>      -0.00068054      -0.00197733      -0.00060549 </v>
   <v>      -0.00159104      -0.00033577      -0.00495861 </v>
   <v>      -0.00937523      -0.00574997      -0.01228646 </v>
   <v>      -0.00294303      -0.00567946      -0.01261913 </v>
   <v>      -0.00102308      -0.00158919      -0.00714484 </v>
   <v>      -0.00175549       0.00379474      -0.00025029 </v>
   <v>      -0.00100787       0.00093034       0.00084952 </v>
   <v>      -0.00044512      -0.00262013      -0.00007560 </v>
   <v>      -0.00082012      -0.00258445      -0.00210560 </v>
   <v>      -0.00342820      -0.00130214      -0.00591575 </v>
   <v>      -0.00184952      -0.00872493      -0.00940619 </v>
   <v>      -0.00059635      -0.00350445      -0.00520106 </v>
   <v>       0.00026328      -0.00139539       0.00088138 </v>
   <v>       0.00110693      -0.00026594      -0.00005135 </v>
   <v>      -0.00086358       0.00414799      -0.00023060 </v>
   <v>       0.00058670       0.00204345      -0.00072363 </v>
   <v>       0.00476927       0.00346245       0.00024901 </v>
   <v>      -0.00024535       0.00003130       0.00146518 </v>
   <v>      -0.00092979      -0.00081986       0.00274710 </v>
   <v>      -0.00064995      -0.00108107       0.00159938 </v>
   <v>       0.00128948      -0.00041058      -0.00179217 </v>
   <v>       0.00021139       0.00116453      -0.00335183 </v>
   <v>      -0.00401263       0.00119732      -0.00291589 </v>
   <v>      -0.00141566      -0.00123619      -0.00037314 </v>
   <v>      -0.00150142      -0.00225434       0.00214324 </v>
   <v>      -0.00101755      -0.00170416       0.00410466 </v>
   <v>       0.00097559      -0.00405483       0.00058795 </v>
   <v>      -0.00038114      -0.00076888      -0.00254918 </v>
   <v>       0.00047825      -0.00032090      -0.00568760 </v>
   <v>      -0.00137307       0.00105067      -0.00555426 </v>
   <v>      -0.00210277      -0.00170584      -0.00339246 </v>
   <v>      -0.00388815      -0.00705921       0.00032588 </v>
   <v>      -0.00360858      -0.00298065       0.00073717 </v>
   <v>      -0.00371198      -0.00004156       0.00131966 </v>
   <v>      -0.00134865      -0.00055466      -0.00252908 </v>
   <v>      -0.00028150      -0.00282251      -0.00405753 </v>
   <v>      -0.00101519      -0.00134442      -0.00001544 </v>
   <v>       0.00131893      -0.00019134       0.00103963 </v>
   <v>      -0.00159247       0.00121530       0.00040328 </v>
   <v>       0.00894420      -0.00296330      -0.00200681 </v>
   <v>       0.00246790      -0.00175773       0.00058953 </v>
   <v>       0.00095768       0.00109093       0.00074608 </v>
   <v>       0.00100482       0.00185621      -0.00240872 </v>
   <v>       0.00311814       0.00009502      -0.00756670 </v>
   <v>       0.00069184       0.00484600      -0.01149902 </v>
   <v>      -0.00095956       0.00397127      -0.00516874 </v>
   <v>       0.00157273      -0.00151569      -0.00376552 </v>
   <v>       0.00037871      -0.00195760       0.00064882 </v>
   <v>       0.00069306       0.00006399       0.00042946 </v>
   <v>      -0.00004947       0.00488145       0.00012379 </v>
   <v>       0.00107697       0.00103380      -0.00270170 </v>
   <v>      -0.00011516       0.00167176      -0.00529208 </v>
   <v>      -0.00156476       0.00330765      -0.00404546 </v>
   <v>      -0.00100648      -0.00161250      -0.00158278 </v>
   <v>       0.00044624       0.00002921      -0.00559313 </v>
   <v>       0.00143344       0.00064701      -0.00575479 </v>
   <v>       0.00154912       0.00174683      -0.00562378 </v>
   <v>      -0.00066361      -0.00260412      -0.01060603 </v>
   <v>       0.00044295       0.00202677      -0.00963063 </v>
   <v>       0.00026550       0.00086404      -0.00551139 </v>
   <v>       0.00909457       0.00440846       0.08057549 </v>
   <v>       0.00878911       0.00466349       0.08034513 </v>
   <v>      -0.00019551       0.00073137      -0.00579522 </v>
   <v>       0.00116676      -0.00091816      -0.00762537 </v>
   <v>       0.00957257       0.00472032       0.03694994 </v>
  </varray>
  <varray name="stress" >
   <v>      -2.39691712      -0.89888285       0.01654744 </v>
   <v>      -0.89888280      -1.37312936      -0.00021855 </v>
   <v>       0.01654714      -0.00021874      -0.18299825 </v>
  </varray>
  <energy>
   <i name="e_fr_energy">   -850.36535633 </i>
   <i name="e_wo_entrp">   -850.36535629 </i>
   <i name="e_0_energy">   -850.36535631 </i>
  </energy>
  <time name="totalsc"> 1700.92 1726.14</time>
 </calculation>
 <calculation>
  <scstep>
   <time name="dav">   76.22   77.35</time>
   <time name="total">   87.74   88.98</time>
   <energy>
    <i name="alphaZ">    175.87611319 </i>
    <i name="ewald">  36492.00654911 </i>
    <i name="hartreedc"> -48199.85355469 </i>
    <i name="XCdc">   1273.89188428 </i>
    <i name="pawpsdc">  37279.16867868 </i>
    <i name="pawaedc"> -37342.98860792 </i>
    <i name="eentropy">     -0.00000004 </i>
    <i name="bandstr">  -4236.85210679 </i>
    <i name="atom">  13716.13071916 </i>
    <i name="e_fr_energy">   -842.62032503 </i>
    <i name="e_wo_entrp">   -842.62032499 </i>
    <i name="e_0_energy">   -842.62032501 </i>
   </energy>
  </scstep>
  <scstep>
   <time name="dav">   55.43   56.29</time>
   <time name="total">   60.54   61.47</time>
   <energy>
    <i name="alphaZ">    175.87611319 </i>
    <i name="ewald">  36492.00654911 </i>
    <i name="hartreedc"> -48199.84560943 </i>
    <i name="XCdc">   1273.89178737 </i>
    <i name="pawpsdc">  37279.12441917 </i>
    <i name="pawaedc"> -37342.94434147 </i>
    <i name="eentropy">     -0.00000004 </i>
    <i name="bandstr">  -4236.85996260 </i>
    <i name="atom">  13716.13071916 </i>
    <i name="e_fr_energy">   -842.62032555 </i>
    <i name="e_wo_entrp">   -842.62032551 </i>
    <i name="e_0_energy">   -842.62032553 </i>
   </energy>
  </scstep>
  <structure>
   <crystal>
    <varray name="basis" >
     <v>      17.27103806       0.00000000       0.00000000 </v>
     <v>      -8.63551903      14.95715771       0.00000000 </v>
     <v>       0.00000000       0.00000000      15.00000000 </v>
    </varray>
    <i name="volume">   3874.88459904 </i>
    <varray name="rec_basis" >
     <v>       0.05790040       0.03342881       0.00000000 </v>
     <v>       0.00000000       0.06685762       0.00000000 </v>
     <v>       0.00000000       0.00000000       0.06666667 </v>
    </varray>
   </crystal>
   <varray name="positions" >
    <v>       0.99893389       0.99922291       0.50087760 </v>
    <v>       0.99892192       0.14203071       0.50016513 </v>
    <v>       0.99900854       0.28518580       0.49971404 </v>
    <v>       0.99892402       0.42824911       0.49997146 </v>
    <v>       0.99897395       0.57109252       0.50072391 </v>
    <v>       0.99917003       0.71375208       0.50088486 </v>
    <v>       0.99915004       0.85678811       0.50084760 </v>
    <v>       0.14256889       0.00000779       0.50084939 </v>
    <v>       0.14218249       0.14252177       0.49984171 </v>
    <v>       0.14130603       0.28466823       0.49869479 </v>
    <v>       0.14130139       0.42799735       0.49857478 </v>
    <v>       0.14219131       0.57102073       0.49968434 </v>
    <v>       0.14259543       0.71394401       0.50082292 </v>
    <v>       0.14254862       0.85696173       0.50116283 </v>
    <v>       0.28571680       0.00001631       0.50094093 </v>
    <v>       0.28597052       0.14308732       0.49975008 </v>
    <v>       0.28551297       0.28682966       0.49765884 </v>
    <v>       0.28287369       0.42711596       0.49646688 </v>
    <v>       0.28549805       0.57002636       0.49757895 </v>
    <v>       0.28597089       0.71424042       0.49965390 </v>
    <v>       0.28573391       0.85709054       0.50088020 </v>
    <v>       0.42860926       0.99999131       0.50097147 </v>
    <v>       0.42926709       0.14352913       0.50031032 </v>
    <v>       0.42806392       0.28370127       0.49849541 </v>
    <v>       0.42806384       0.71570812       0.49850191 </v>
    <v>       0.42926837       0.85709669       0.50033102 </v>
    <v>       0.57118239       0.99993653       0.50061815 </v>
    <v>       0.57120242       0.14265647       0.50055724 </v>
    <v>       0.57459776       0.28858758       0.49927396 </v>
    <v>       0.57458916       0.85739651       0.49937460 </v>
    <v>       0.71402769       0.00031832       0.50004647 </v>
    <v>       0.71394239       0.14267811       0.50059351 </v>
    <v>       0.71405500       0.28513327       0.49983397 </v>
    <v>       0.70968775       0.42432871       0.49734977 </v>
    <v>       0.71465285       0.57128239       0.48910911 </v>
    <v>       0.71464283       0.71474786       0.48922862 </v>
    <v>       0.70970291       0.85678053       0.49757643 </v>
    <v>       0.85605028       0.99932372       0.49990663 </v>
    <v>       0.85646673       0.14255100       0.50029473 </v>
    <v>       0.85649795       0.28533747       0.50017218 </v>
    <v>       0.85607923       0.42812486       0.49964687 </v>
    <v>       0.85517395       0.57026367       0.49886850 </v>
    <v>       0.85624157       0.71379571       0.49773173 </v>
    <v>       0.85514621       0.85624918       0.49905928 </v>
    <v>       0.04681284       0.09459333       0.50042023 </v>
    <v>       0.04609297       0.23705030       0.49957608 </v>
    <v>       0.04609126       0.38040768       0.49944604 </v>
    <v>       0.04682054       0.52358043       0.50023911 </v>
    <v>       0.04696954       0.66640295       0.50100452 </v>
    <v>       0.04682750       0.80909846       0.50105827 </v>
    <v>       0.04694423       0.95192655       0.50102746 </v>
    <v>       0.19029228       0.09505400       0.50017258 </v>
    <v>       0.18953280       0.23765545       0.49870492 </v>
    <v>       0.18768216       0.37953471       0.49787468 </v>
    <v>       0.18952855       0.52322498       0.49857432 </v>
    <v>       0.19030595       0.66660003       0.50006296 </v>
    <v>       0.19039240       0.80945930       0.50099529 </v>
    <v>       0.19039155       0.95232738       0.50101465 </v>
    <v>       0.33380887       0.09575833       0.50041489 </v>
    <v>       0.33462756       0.23859052       0.49859536 </v>
    <v>       0.32931756       0.37953257       0.49620019 </v>
    <v>       0.32930173       0.52113852       0.49616147 </v>
    <v>       0.33463236       0.66738806       0.49852256 </v>
    <v>       0.33380616       0.80940894       0.50033852 </v>
    <v>       0.33314379       0.95226895       0.50104810 </v>
    <v>       0.47619964       0.09518324       0.50072888 </v>
    <v>       0.47690880       0.23924646       0.49953046 </v>
    <v>       0.47689649       0.80900882       0.49956329 </v>
    <v>       0.47619297       0.95239603       0.50077770 </v>
    <v>       0.61861849       0.09500951       0.50069042 </v>
    <v>       0.61933047       0.23808926       0.49989621 </v>
    <v>       0.61931821       0.95264057       0.50002152 </v>
    <v>       0.76162428       0.09546749       0.50050462 </v>
    <v>       0.76163047       0.23756535       0.50034484 </v>
    <v>       0.76070905       0.37993356       0.49895590 </v>
    <v>       0.75875703       0.52262515       0.49533807 </v>
    <v>       0.76047148       0.66592183       0.49178775 </v>
    <v>       0.75874197       0.80751177       0.49557312 </v>
    <v>       0.76069317       0.95219719       0.49921282 </v>
    <v>       0.90365202       0.09431350       0.50022540 </v>
    <v>       0.90396237       0.23767031       0.50015887 </v>
    <v>       0.90368129       0.38073448       0.50003283 </v>
    <v>       0.90353653       0.52346870       0.50012630 </v>
    <v>       0.90331216       0.66572943       0.49940466 </v>
    <v>       0.90328734       0.80892050       0.49947057 </v>
    <v>       0.90349756       0.95140937       0.50034091 </v>
    <v>       0.46652897       0.35632182       0.49736967 </v>
    <v>       0.40185030       0.41917323       0.49620441 </v>
    <v>       0.40183535       0.55404416       0.49613291 </v>
    <v>       0.64227092       0.67905757       0.48099467 </v>
    <v>       0.64228353       0.53461053       0.48083474 </v>
    <v>       0.46653871       0.68156465       0.49738752 </v>
    <v>       0.55669935       0.60859808       0.57798409 </v>
    <v>       0.55737149       0.51985055       0.57800414 </v>
    <v>       0.61961549       0.37912138       0.49821340 </v>
    <v>       0.61962883       0.81190467       0.49838406 </v>
    <v>       0.51803130       0.54449882       0.56977595 </v>
   </varray>
  </structure>
  <varray name="forces" >
   <v>      -0.00086486      -0.00075657       0.00124534 </v>
   <v>      -0.00136021       0.00019989      -0.00056844 </v>
   <v>       0.00037577       0.00040965       0.00000717 </v>
   <v>      -0.00002310       0.00063873      -0.00039624 </v>
   <v>      -0.00005836      -0.00024134      -0.00025028 </v>
   <v>      -0.00060839      -0.00014326      -0.00082531 </v>
   <v>      -0.00086620      -0.00042715       0.00075278 </v>
   <v>      -0.00058305      -0.00042506       0.00409959 </v>
   <v>      -0.00015686      -0.00000444       0.00046003 </v>
   <v>      -0.00022777       0.00068705      -0.00080475 </v>
   <v>       0.00018755       0.00053688      -0.00224145 </v>
   <v>      -0.00015688       0.00045328      -0.00110723 </v>
   <v>      -0.00015022      -0.00003997       0.00100057 </v>
   <v>      -0.00067381      -0.00046032       0.00355392 </v>
   <v>      -0.00077594      -0.00064460       0.00236513 </v>
   <v>      -0.00002082      -0.00049431       0.00042168 </v>
   <v>       0.00064264       0.00028772      -0.00369852 </v>
   <v>       0.00072616       0.00072991      -0.00558171 </v>
   <v>       0.00005904       0.00079854      -0.00421780 </v>
   <v>      -0.00021703      -0.00140370      -0.00121693 </v>
   <v>      -0.00092767      -0.00085785       0.00186733 </v>
   <v>      -0.00217641      -0.00038726       0.00090361 </v>
   <v>      -0.00055749      -0.00084270       0.00001462 </v>
   <v>      -0.00055761      -0.00004081      -0.00403658 </v>
   <v>      -0.00054425      -0.00039024      -0.00481024 </v>
   <v>      -0.00116765      -0.00011525      -0.00148670 </v>
   <v>      -0.00000825      -0.00000418      -0.00003872 </v>
   <v>      -0.00045475      -0.00037965       0.00088285 </v>
   <v>      -0.00043912       0.00034008      -0.00328447 </v>
   <v>       0.00042812      -0.00054226      -0.00529816 </v>
   <v>       0.00079475      -0.00015086      -0.00186878 </v>
   <v>       0.00031087      -0.00007947       0.00129507 </v>
   <v>       0.00011975       0.00013722      -0.00047234 </v>
   <v>      -0.00053325      -0.00032304      -0.00504011 </v>
   <v>      -0.00244844      -0.00070607      -0.01190722 </v>
   <v>      -0.00148792      -0.00057310      -0.01237177 </v>
   <v>      -0.00083403      -0.00034176      -0.00697256 </v>
   <v>       0.00044801      -0.00247946      -0.00154441 </v>
   <v>       0.00011467      -0.00042031       0.00096238 </v>
   <v>       0.00002902       0.00043656       0.00014779 </v>
   <v>       0.00016991       0.00041022      -0.00197532 </v>
   <v>      -0.00015874       0.00003154      -0.00588874 </v>
   <v>      -0.00093089       0.00260590      -0.00829515 </v>
   <v>      -0.00057841      -0.00044605      -0.00496713 </v>
   <v>      -0.00025637      -0.00004035       0.00109049 </v>
   <v>       0.00018084       0.00021796       0.00014647 </v>
   <v>       0.00069705      -0.00124963      -0.00123862 </v>
   <v>      -0.00037213      -0.00032715      -0.00055433 </v>
   <v>      -0.00292838      -0.00204018      -0.00029426 </v>
   <v>      -0.00080351      -0.00056645       0.00163310 </v>
   <v>      -0.00057043      -0.00030329       0.00295320 </v>
   <v>      -0.00019043       0.00001542       0.00180987 </v>
   <v>      -0.00003051       0.00033247      -0.00165218 </v>
   <v>       0.00036275       0.00030516      -0.00326500 </v>
   <v>       0.00184124       0.00029586      -0.00253206 </v>
   <v>      -0.00007431       0.00043657      -0.00028007 </v>
   <v>      -0.00064788       0.00015779       0.00234181 </v>
   <v>       0.00108111      -0.00084635       0.00359732 </v>
   <v>      -0.00121813       0.00100092       0.00179130 </v>
   <v>       0.00023310       0.00017488      -0.00256319 </v>
   <v>       0.00222141      -0.00058830      -0.00500330 </v>
   <v>       0.00135120       0.00074586      -0.00581219 </v>
   <v>       0.00051483       0.00091538      -0.00344330 </v>
   <v>      -0.00056895       0.00010267       0.00034128 </v>
   <v>       0.00050895       0.00043459       0.00252956 </v>
   <v>      -0.00034749       0.00004887       0.00137547 </v>
   <v>       0.00021546       0.00002579      -0.00259779 </v>
   <v>      -0.00033947       0.00110955      -0.00419799 </v>
   <v>      -0.00003623       0.00038117       0.00004802 </v>
   <v>      -0.00026037      -0.00012127       0.00110701 </v>
   <v>       0.00062296      -0.00031600      -0.00116796 </v>
   <v>       0.00099154      -0.00084373      -0.00209972 </v>
   <v>      -0.00052131       0.00005876       0.00066721 </v>
   <v>      -0.00020256      -0.00025464       0.00082599 </v>
   <v>      -0.00069405      -0.00029627      -0.00241088 </v>
   <v>      -0.00189604      -0.00050710      -0.00812826 </v>
   <v>      -0.00156263      -0.00145414      -0.01236734 </v>
   <v>      -0.00179479      -0.00105237      -0.00616818 </v>
   <v>      -0.00079388      -0.00028130      -0.00376983 </v>
   <v>      -0.00027993       0.00067475       0.00084278 </v>
   <v>      -0.00000056      -0.00014577       0.00057527 </v>
   <v>       0.00009686      -0.00181791      -0.00129602 </v>
   <v>      -0.00101613      -0.00031778      -0.00267473 </v>
   <v>      -0.00124664      -0.00095202      -0.00549055 </v>
   <v>      -0.00074936      -0.00154478      -0.00428997 </v>
   <v>      -0.00082703      -0.00041735      -0.00145261 </v>
   <v>       0.00043111       0.00011219      -0.00555270 </v>
   <v>       0.00123439       0.00055986      -0.00573320 </v>
   <v>       0.00087392       0.00147490      -0.00559662 </v>
   <v>      -0.00158860      -0.00345362      -0.01080742 </v>
   <v>      -0.00308288       0.00015670      -0.01011085 </v>
   <v>       0.00020466       0.00106294      -0.00548517 </v>
   <v>       0.00901405       0.00418930       0.08067747 </v>
   <v>       0.00867880       0.00471269       0.08049095 </v>
   <v>       0.00021848      -0.00066703      -0.00576030 </v>
   <v>      -0.00138822       0.00040709      -0.00763004 </v>
   <v>       0.01085665       0.00571258       0.03776928 </v>
  </varray>
  <varray name="stress" >
   <v>      -2.39348356      -0.89563586       0.01757744 </v>
   <v>      -0.89563580      -1.37484790      -0.00014951 </v>
   <v>       0.01757716      -0.00014968      -0.17799347 </v>
  </varray>
  <energy>
   <i name="e_fr_energy">   -850.36536469 </i>
   <i name="e_wo_entrp">   -850.36536464 </i>
   <i name="e_0_energy">   -850.36536467 </i>
  </energy>
  <time name="totalsc">  281.12  285.37</time>
 </calculation>
 <calculation>
  <scstep>
   <time name="dav">   76.69   77.84</time>
   <time name="total">   88.28   89.60</time>
   <energy>
    <i name="alphaZ">    175.87611319 </i>
    <i name="ewald">  36491.96029754 </i>
    <i name="hartreedc"> -48199.79149002 </i>
    <i name="XCdc">   1273.89153331 </i>
    <i name="pawpsdc">  37279.02588138 </i>
    <i name="pawaedc"> -37342.84578874 </i>
    <i name="eentropy">     -0.00000004 </i>
    <i name="bandstr">  -4236.86759925 </i>
    <i name="atom">  13716.13071916 </i>
    <i name="e_fr_energy">   -842.62033348 </i>
    <i name="e_wo_entrp">   -842.62033344 </i>
    <i name="e_0_energy">   -842.62033346 </i>
   </energy>
  </scstep>
  <scstep>
   <time name="dav">   58.74   59.64</time>
   <time name="total">   64.09   65.05</time>
   <energy>
    <i name="alphaZ">    175.87611319 </i>
    <i name="ewald">  36491.96029754 </i>
    <i name="hartreedc"> -48199.78704807 </i>
    <i name="XCdc">   1273.89151634 </i>
    <i name="pawpsdc">  37278.95281509 </i>
    <i name="pawaedc"> -37342.77271668 </i>
    <i name="eentropy">     -0.00000004 </i>
    <i name="bandstr">  -4236.87203041 </i>
    <i name="atom">  13716.13071916 </i>
    <i name="e_fr_energy">   -842.62033389 </i>
    <i name="e_wo_entrp">   -842.62033385 </i>
    <i name="e_0_energy">   -842.62033387 </i>
   </energy>
  </scstep>
  <structure>
   <crystal>
    <varray name="basis" >
     <v>      17.27103806       0.00000000       0.00000000 </v>
     <v>      -8.63551903      14.95715771       0.00000000 </v>
     <v>       0.00000000       0.00000000      15.00000000 </v>
    </varray>
    <i name="volume">   3874.88459904 </i>
    <varray name="rec_basis" >
     <v>       0.05790040       0.03342881       0.00000000 </v>
     <v>       0.00000000       0.06685762       0.00000000 </v>
     <v>       0.00000000       0.00000000       0.06666667 </v>
    </varray>
   </crystal>
   <varray name="positions" >
[...]
       <r>   -13.9739     3.8528    58.2069 </r>
       <r>   -13.8705     5.2789    58.7529 </r>
       <r>   -13.7670     3.4142    59.1060 </r>
       <r>   -13.6636     7.7797    59.9107 </r>
       <r>   -13.5602     6.7188    60.6057 </r>
       <r>   -13.4567     9.5089    61.5892 </r>
       <r>   -13.3533    10.3209    62.6568 </r>
       <r>   -13.2499     8.0427    63.4887 </r>
       <r>   -13.1464     4.1712    63.9201 </r>
       <r>   -13.0430     5.3925    64.4779 </r>
       <r>   -12.9396     0.3532    64.5144 </r>
       <r>   -12.8361     8.3093    65.3739 </r>
       <r>   -12.7327     4.6783    65.8578 </r>
       <r>   -12.6293     9.8126    66.8727 </r>
       <r>   -12.5258    13.0397    68.2215 </r>
       <r>   -12.4224    14.4705    69.7182 </r>
       <r>   -12.3190    10.6564    70.8205 </r>
       <r>   -12.2155     7.0326    71.5479 </r>
       <r>   -12.1121     1.9583    71.7505 </r>
       <r>   -12.0086     2.0752    71.9651 </r>
       <r>   -11.9052    12.7507    73.2840 </r>
       <r>   -11.8018     6.6911    73.9760 </r>
       <r>   -11.6983    11.1077    75.1250 </r>
       <r>   -11.5949    10.8711    76.2494 </r>
       <r>   -11.4915    13.7769    77.6744 </r>
       <r>   -11.3880     9.1026    78.6159 </r>
       <r>   -11.2846    14.0571    80.0699 </r>
       <r>   -11.1812     8.5798    80.9574 </r>
       <r>   -11.0777     9.7356    81.9644 </r>
       <r>   -10.9743     9.4734    82.9442 </r>
       <r>   -10.8709    10.8164    84.0630 </r>
       <r>   -10.7674    14.4784    85.5606 </r>
       <r>   -10.6640     5.7731    86.1577 </r>
       <r>   -10.5606     2.7524    86.4424 </r>
       <r>   -10.4571     5.6998    87.0320 </r>
       <r>   -10.3537     3.7484    87.4197 </r>
       <r>   -10.2503     9.2371    88.3751 </r>
       <r>   -10.1468    17.6800    90.2039 </r>
       <r>   -10.0434    18.2847    92.0951 </r>
       <r>    -9.9400    14.1836    93.5622 </r>
       <r>    -9.8365    18.1013    95.4345 </r>
       <r>    -9.7331    18.9329    97.3928 </r>
       <r>    -9.6297    13.5185    98.7911 </r>
       <r>    -9.5262    14.0007   100.2393 </r>
       <r>    -9.4228    19.1843   102.2236 </r>
       <r>    -9.3193    18.8760   104.1760 </r>
       <r>    -9.2159    15.2396   105.7523 </r>
       <r>    -9.1125    15.9610   107.4032 </r>
       <r>    -9.0090    22.3054   109.7104 </r>
       <r>    -8.9056    27.1987   112.5237 </r>
       <r>    -8.8022    25.3111   115.1417 </r>
       <r>    -8.6987    22.5384   117.4730 </r>
       <r>    -8.5953    17.2235   119.2545 </r>
       <r>    -8.4919    22.5783   121.5898 </r>
       <r>    -8.3884    12.4947   122.8822 </r>
       <r>    -8.2850    21.2090   125.0760 </r>
       <r>    -8.1816    24.0197   127.5604 </r>
       <r>    -8.0781    23.0006   129.9395 </r>
       <r>    -7.9747    13.1164   131.2962 </r>
       <r>    -7.8713    18.3025   133.1893 </r>
       <r>    -7.7678    16.8659   134.9338 </r>
       <r>    -7.6644    17.6919   136.7638 </r>
       <r>    -7.5610     8.6549   137.6590 </r>
       <r>    -7.4575    10.3488   138.7294 </r>
       <r>    -7.3541    14.2119   140.1994 </r>
       <r>    -7.2507    23.7110   142.6519 </r>
       <r>    -7.1472    21.5217   144.8780 </r>
       <r>    -7.0438    15.4452   146.4756 </r>
       <r>    -6.9404    13.6636   147.8889 </r>
       <r>    -6.8369    12.4985   149.1817 </r>
       <r>    -6.7335    11.4192   150.3628 </r>
       <r>    -6.6300     9.3920   151.3343 </r>
       <r>    -6.5266    10.2490   152.3944 </r>
       <r>    -6.4232     9.8876   153.4171 </r>
       <r>    -6.3197    11.5218   154.6088 </r>
       <r>    -6.2163    21.6664   156.8499 </r>
       <r>    -6.1129    17.0357   158.6120 </r>
       <r>    -6.0094    13.6984   160.0289 </r>
       <r>    -5.9060     9.1364   160.9739 </r>
       <r>    -5.8026    15.9370   162.6223 </r>
       <r>    -5.6991    18.8476   164.5718 </r>
       <r>    -5.5957    11.9814   165.8111 </r>
       <r>    -5.4923     5.9604   166.4276 </r>
       <r>    -5.3888     4.0331   166.8448 </r>
       <r>    -5.2854     1.6338   167.0138 </r>
       <r>    -5.1820     4.7237   167.5024 </r>
       <r>    -5.0785    16.7666   169.2366 </r>
       <r>    -4.9751    18.4546   171.1454 </r>
       <r>    -4.8717    18.8279   173.0929 </r>
       <r>    -4.7682    12.5749   174.3936 </r>
       <r>    -4.6648     9.2421   175.3495 </r>
       <r>    -4.5614    12.1573   176.6070 </r>
       <r>    -4.4579     6.1501   177.2432 </r>
       <r>    -4.3545     2.2928   177.4803 </r>
       <r>    -4.2511    10.6728   178.5843 </r>
       <r>    -4.1476     7.1484   179.3237 </r>
       <r>    -4.0442     6.9620   180.0438 </r>
       <r>    -3.9407    10.1822   181.0970 </r>
       <r>    -3.8373     7.2689   181.8488 </r>
       <r>    -3.7339     1.4606   181.9999 </r>
       <r>    -3.6304     0.0016   182.0001 </r>
       <r>    -3.5270     0.6637   182.0687 </r>
       <r>    -3.4236     1.8118   182.2561 </r>
       <r>    -3.3201     4.0895   182.6791 </r>
       <r>    -3.2167     4.6876   183.1640 </r>
       <r>    -3.1133     3.1292   183.4876 </r>
       <r>    -3.0098     0.1196   183.5000 </r>
       <r>    -2.9064     0.0000   183.5000 </r>
       <r>    -2.8030     0.0012   183.5001 </r>
       <r>    -2.6995     1.3986   183.6448 </r>
       <r>    -2.5961     3.3913   183.9956 </r>
       <r>    -2.4927     0.0429   184.0000 </r>
       <r>    -2.3892     0.0768   184.0079 </r>
       <r>    -2.2858     3.7026   184.3909 </r>
       <r>    -2.1824     1.0540   184.4999 </r>
       <r>    -2.0789     0.0005   184.5000 </r>
       <r>    -1.9755     0.2318   184.5240 </r>
       <r>    -1.8721     2.6926   184.8025 </r>
       <r>    -1.7686     3.5362   185.1683 </r>
       <r>    -1.6652     5.1810   185.7041 </r>
       <r>    -1.5618     2.0740   185.9187 </r>
       <r>    -1.4583     0.8271   186.0042 </r>
       <r>    -1.3549     4.3131   186.4503 </r>
       <r>    -1.2514     8.9558   187.3767 </r>
       <r>    -1.1480     1.1932   187.5001 </r>
       <r>    -1.0446     1.1930   187.6235 </r>
       <r>    -0.9411     8.1583   188.4674 </r>
       <r>    -0.8377    18.0062   190.3298 </r>
       <r>    -0.7343     6.6179   191.0143 </r>
       <r>    -0.6308     9.2470   191.9708 </r>
       <r>    -0.5274    10.2322   193.0292 </r>
       <r>    -0.4240     6.6446   193.7164 </r>
       <r>    -0.3205     4.9394   194.2273 </r>
       <r>    -0.2171     5.2016   194.7654 </r>
       <r>    -0.1137    11.5151   195.9564 </r>
       <r>    -0.0102     9.2089   196.9089 </r>
       <r>     0.0932     9.9929   197.9426 </r>
       <r>     0.1966    12.1964   199.2041 </r>
       <r>     0.3001     4.6341   199.6834 </r>
       <r>     0.4035     3.0121   199.9950 </r>
       <r>     0.5069     3.4446   200.3513 </r>
       <r>     0.6104     5.5091   200.9211 </r>
       <r>     0.7138     6.5542   201.5990 </r>
       <r>     0.8172    11.1809   202.7555 </r>
       <r>     0.9207     8.1744   203.6010 </r>
       <r>     1.0241    10.4641   204.6834 </r>
       <r>     1.1276     6.6686   205.3731 </r>
       <r>     1.2310    10.6093   206.4705 </r>
       <r>     1.3344     6.1589   207.1076 </r>
       <r>     1.4379    16.7436   208.8394 </r>
       <r>     1.5413    17.0176   210.5996 </r>
       <r>     1.6447    13.2780   211.9730 </r>
       <r>     1.7482    10.5476   213.0640 </r>
       <r>     1.8516     8.9928   213.9942 </r>
       <r>     1.9550    15.5221   215.5997 </r>
       <r>     2.0585    19.9569   217.6640 </r>
       <r>     2.1619    12.2234   218.9283 </r>
       <r>     2.2653    22.9535   221.3025 </r>
       <r>     2.3688    18.7588   223.2428 </r>
       <r>     2.4722    25.3106   225.8608 </r>
       <r>     2.5756     3.9437   226.2687 </r>
       <r>     2.6791     9.2602   227.2265 </r>
       <r>     2.7825    21.3899   229.4390 </r>
       <r>     2.8859    35.9040   233.1527 </r>
       <r>     2.9894    41.1480   237.4088 </r>
       <r>     3.0928    15.9754   239.0612 </r>
       <r>     3.1962    19.6789   241.0967 </r>
       <r>     3.2997    19.4273   243.1062 </r>
       <r>     3.4031    12.6059   244.4100 </r>
       <r>     3.5065    25.4176   247.0391 </r>
       <r>     3.6100    20.8935   249.2002 </r>
       <r>     3.7134    12.2081   250.4629 </r>
       <r>     3.8169    28.2809   253.3882 </r>
       <r>     3.9203    22.1178   255.6759 </r>
       <r>     4.0237    24.3412   258.1936 </r>
       <r>     4.1272    17.3447   259.9877 </r>
       <r>     4.2306    16.3751   261.6814 </r>
       <r>     4.3340    25.0329   264.2707 </r>
       <r>     4.4375     6.9544   264.9900 </r>
       <r>     4.5409     0.0964   265.0000 </r>
       <r>     4.6443     0.0000   265.0000 </r>
       <r>     4.7478     0.0000   265.0000 </r>
       <r>     4.8512     0.0000   265.0000 </r>
       <r>     4.9546     0.0000   265.0000 </r>
       <r>     5.0581     0.0000   265.0000 </r>
       <r>     5.1615     0.0000   265.0000 </r>
       <r>     5.2649     0.0000   265.0000 </r>
       <r>     5.3684     0.0000   265.0000 </r>
       <r>     5.4718     0.0000   265.0000 </r>
       <r>     5.5752     0.0000   265.0000 </r>
       <r>     5.6787     0.0000   265.0000 </r>
       <r>     5.7821     0.0000   265.0000 </r>
      </set>
     </set>
    </array>
   </total>
  </dos>
 </calculation>
 <structure name="finalpos" >
  <crystal>
   <varray name="basis" >
    <v>      17.27103806       0.00000000       0.00000000 </v>
    <v>      -8.63551903      14.95715771       0.00000000 </v>
    <v>       0.00000000       0.00000000      15.00000000 </v>
   </varray>
   <i name="volume">   3874.88459904 </i>
   <varray name="rec_basis" >
    <v>       0.05790040       0.03342881       0.00000000 </v>
    <v>       0.00000000       0.06685762       0.00000000 </v>
    <v>       0.00000000       0.00000000       0.06666667 </v>
   </varray>
  </crystal>
  <varray name="positions" >
   <v>       0.99893164       0.99922119       0.50088960 </v>
   <v>       0.99891940       0.14203058       0.50017040 </v>
   <v>       0.99900923       0.28518626       0.49972202 </v>
   <v>       0.99892499       0.42825044       0.49997785 </v>
   <v>       0.99897510       0.57109362       0.50072504 </v>
   <v>       0.99916990       0.71375215       0.50088404 </v>
   <v>       0.99914962       0.85678760       0.50085615 </v>
   <v>       0.14256845       0.00000647       0.50087357 </v>
   <v>       0.14218151       0.14252139       0.49985041 </v>
   <v>       0.14130732       0.28466867       0.49869871 </v>
   <v>       0.14130167       0.42799893       0.49857647 </v>
   <v>       0.14219199       0.57102276       0.49968709 </v>
   <v>       0.14259549       0.71394408       0.50082976 </v>
   <v>       0.14254760       0.85696038       0.50118192 </v>
   <v>       0.28571464       0.00001333       0.50094773 </v>
   <v>       0.28596997       0.14308608       0.49975439 </v>
   <v>       0.28551168       0.28682620       0.49764856 </v>
   <v>       0.28287471       0.42711625       0.49644335 </v>
   <v>       0.28549461       0.57002267       0.49756786 </v>
   <v>       0.28596899       0.71423783       0.49965040 </v>
   <v>       0.28573108       0.85708848       0.50088717 </v>
   <v>       0.42860586       0.99999123       0.50097102 </v>
   <v>       0.42926542       0.14352887       0.50030757 </v>
   <v>       0.42806221       0.28370165       0.49848044 </v>
   <v>       0.42806206       0.71570736       0.49848296 </v>
   <v>       0.42926675       0.85709412       0.50031965 </v>
   <v>       0.57118477       0.99993477       0.50061203 </v>
   <v>       0.57120163       0.14265681       0.50055800 </v>
   <v>       0.57459778       0.28858996       0.49925556 </v>
   <v>       0.57458939       0.85739368       0.49934176 </v>
   <v>       0.71403067       0.00031680       0.50003304 </v>
   <v>       0.71394366       0.14267765       0.50059850 </v>
   <v>       0.71405592       0.28513455       0.49983265 </v>
   <v>       0.70968917       0.42432971       0.49732591 </v>
   <v>       0.71465742       0.57128426       0.48904525 </v>
   <v>       0.71464944       0.71475370       0.48916343 </v>
   <v>       0.70970128       0.85677970       0.49753826 </v>
   <v>       0.85604923       0.99932159       0.49990330 </v>
   <v>       0.85646619       0.14254956       0.50030077 </v>
   <v>       0.85649873       0.28533809       0.50017582 </v>
   <v>       0.85608063       0.42812595       0.49964253 </v>
   <v>       0.85517654       0.57026503       0.49884463 </v>
   <v>       0.85624467       0.71380059       0.49769394 </v>
   <v>       0.85514558       0.85624854       0.49903957 </v>
   <v>       0.04681146       0.09459323       0.50043168 </v>
   <v>       0.04609248       0.23705056       0.49958580 </v>
   <v>       0.04609084       0.38040484       0.49945234 </v>
   <v>       0.04682008       0.52357950       0.50024410 </v>
   <v>       0.04696731       0.66640181       0.50100813 </v>
   <v>       0.04682629       0.80909760       0.50106966 </v>
   <v>       0.04694380       0.95192605       0.50104778 </v>
   <v>       0.19029206       0.09505382       0.50018558 </v>
   <v>       0.18953139       0.23765582       0.49870531 </v>
   <v>       0.18768262       0.37953559       0.49787022 </v>
   <v>       0.18953082       0.52322519       0.49857266 </v>
   <v>       0.19030733       0.66660191       0.50006527 </v>
   <v>       0.19039210       0.80946029       0.50100707 </v>
   <v>       0.19039311       0.95232572       0.50103463 </v>
   <v>       0.33380863       0.09575791       0.50042037 </v>
   <v>       0.33462711       0.23859030       0.49858646 </v>
   <v>       0.32931790       0.37952981       0.49617221 </v>
   <v>       0.32930270       0.52113904       0.49613255 </v>
   <v>       0.33463375       0.66739054       0.49851387 </v>
   <v>       0.33380798       0.80941202       0.50033736 </v>
   <v>       0.33314540       0.95226933       0.50105285 </v>
   <v>       0.47620047       0.09518390       0.50072881 </v>
   <v>       0.47690918       0.23924773       0.49951664 </v>
   <v>       0.47689698       0.80901194       0.49953894 </v>
   <v>       0.47619443       0.95239769       0.50077110 </v>
   <v>       0.61861789       0.09500886       0.50069236 </v>
   <v>       0.61933010       0.23808973       0.49989234 </v>
   <v>       0.61931520       0.95263826       0.50000493 </v>
   <v>       0.76162312       0.09546734       0.50050600 </v>
   <v>       0.76162968       0.23756449       0.50034976 </v>
   <v>       0.76070844       0.37993300       0.49894764 </v>
   <v>       0.75875666       0.52262637       0.49529932 </v>
   <v>       0.76047092       0.66592210       0.49172733 </v>
   <v>       0.75873392       0.80750403       0.49554454 </v>
   <v>       0.76069213       0.95219639       0.49919190 </v>
   <v>       0.90365152       0.09431458       0.50023223 </v>
   <v>       0.90396209       0.23766957       0.50016511 </v>
   <v>       0.90367989       0.38073081       0.50003404 </v>
   <v>       0.90353553       0.52346818       0.50011908 </v>
   <v>       0.90331073       0.66572856       0.49938173 </v>
   <v>       0.90328648       0.80891786       0.49945362 </v>
   <v>       0.90349597       0.95140805       0.50033796 </v>
   <v>       0.46652805       0.35632246       0.49735423 </v>
   <v>       0.40184955       0.41917181       0.49616072 </v>
   <v>       0.40183495       0.55404827       0.49609203 </v>
   <v>       0.64227378       0.67906189       0.48091560 </v>
   <v>       0.64228705       0.53460526       0.48076187 </v>
   <v>       0.46653983       0.68156707       0.49737314 </v>
   <v>       0.55670461       0.60860487       0.57795813 </v>
   <v>       0.55737809       0.51985671       0.57797479 </v>
   <v>       0.61961658       0.37912241       0.49818229 </v>
   <v>       0.61962651       0.81190335       0.49833885 </v>
   <v>       0.51803350       0.54450335       0.56977595 </v>
  </varray>
  <varray name="selective"  type="logical" >
   <v type="logical" >  T  T  T </v>
   <v type="logical" >  T  T  T </v>
   <v type="logical" >  T  T  T </v>
   <v type="logical" >  T  T  T </v>
   <v type="logical" >  T  T  T </v>
   <v type="logical" >  T  T  T </v>
   <v type="logical" >  T  T  T </v>
   <v type="logical" >  T  T  T </v>
   <v type="logical" >  T  T  T </v>
   <v type="logical" >  T  T  T </v>
   <v type="logical" >  T  T  T </v>
   <v type="logical" >  T  T  T </v>
   <v type="logical" >  T  T  T </v>
   <v type="logical" >  T  T  T </v>
   <v type="logical" >  T  T  T </v>
   <v type="logical" >  T  T  T </v>
   <v type="logical" >  T  T  T </v>
   <v type="logical" >  T  T  T </v>
   <v type="logical" >  T  T  T </v>
   <v type="logical" >  T  T  T </v>
   <v type="logical" >  T  T  T </v>
   <v type="logical" >  T  T  T </v>
   <v type="logical" >  T  T  T </v>
   <v type="logical" >  T  T  T </v>
   <v type="logical" >  T  T  T </v>
   <v type="logical" >  T  T  T </v>
   <v type="logical" >  T  T  T </v>
   <v type="logical" >  T  T  T </v>
   <v type="logical" >  T  T  T </v>
   <v type="logical" >  T  T  T </v>
   <v type="logical" >  T  T  T </v>
   <v type="logical" >  T  T  T </v>
   <v type="logical" >  T  T  T </v>
   <v type="logical" >  T  T  T </v>
   <v type="logical" >  T  T  T </v>
   <v type="logical" >  T  T  T </v>
   <v type="logical" >  T  T  T </v>
   <v type="logical" >  T  T  T </v>
   <v type="logical" >  T  T  T </v>
   <v type="logical" >  T  T  T </v>
   <v type="logical" >  T  T  T </v>
   <v type="logical" >  T  T  T </v>
   <v type="logical" >  T  T  T </v>
   <v type="logical" >  T  T  T </v>
   <v type="logical" >  T  T  T </v>
   <v type="logical" >  T  T  T </v>
   <v type="logical" >  T  T  T </v>
   <v type="logical" >  T  T  T </v>
   <v type="logical" >  T  T  T </v>
   <v type="logical" >  T  T  T </v>
   <v type="logical" >  T  T  T </v>
   <v type="logical" >  T  T  T </v>
   <v type="logical" >  T  T  T </v>
   <v type="logical" >  T  T  T </v>
   <v type="logical" >  T  T  T </v>
   <v type="logical" >  T  T  T </v>
   <v type="logical" >  T  T  T </v>
   <v type="logical" >  T  T  T </v>
   <v type="logical" >  T  T  T </v>
   <v type="logical" >  T  T  T </v>
   <v type="logical" >  T  T  T </v>
   <v type="logical" >  T  T  T </v>
   <v type="logical" >  T  T  T </v>
   <v type="logical" >  T  T  T </v>
   <v type="logical" >  T  T  T </v>
   <v type="logical" >  T  T  T </v>
   <v type="logical" >  T  T  T </v>
   <v type="logical" >  T  T  T </v>
   <v type="logical" >  T  T  T </v>
   <v type="logical" >  T  T  T </v>
   <v type="logical" >  T  T  T </v>
   <v type="logical" >  T  T  T </v>
   <v type="logical" >  T  T  T </v>
   <v type="logical" >  T  T  T </v>
   <v type="logical" >  T  T  T </v>
   <v type="logical" >  T  T  T </v>
   <v type="logical" >  T  T  T </v>
   <v type="logical" >  T  T  T </v>
   <v type="logical" >  T  T  T </v>
   <v type="logical" >  T  T  T </v>
   <v type="logical" >  T  T  T </v>
   <v type="logical" >  T  T  T </v>
   <v type="logical" >  T  T  T </v>
   <v type="logical" >  T  T  T </v>
   <v type="logical" >  T  T  T </v>
   <v type="logical" >  T  T  T </v>
   <v type="logical" >  T  T  T </v>
   <v type="logical" >  T  T  T </v>
   <v type="logical" >  T  T  T </v>
   <v type="logical" >  T  T  T </v>
   <v type="logical" >  T  T  T </v>
   <v type="logical" >  T  T  T </v>
   <v type="logical" >  T  T  T </v>
   <v type="logical" >  T  T  T </v>
   <v type="logical" >  T  T  T </v>
   <v type="logical" >  T  T  T </v>
   <v type="logical" >  T  T  F </v>
  </varray>
  <nose>
   <v>      -3.00000000       0.00000000       0.00010000       0.00010000 </v>
  </nose>
 </structure>
</modeling>
