unknown system                          
           1
    17.271038    0.000000    0.000000
    -8.635519   14.957158    0.000000
     0.000000    0.000000   15.000000
   C    H    N    O 
    86     8     2     1
Direct configuration=     1
   0.99893389  0.99922291  0.50087760
   0.99892192  0.14203071  0.50016513
   0.99900854  0.28518580  0.49971404
   0.99892402  0.42824911  0.49997146
   0.99897395  0.57109252  0.50072391
   0.99917003  0.71375208  0.50088486
   0.99915004  0.85678811  0.50084760
   0.14256889  0.00000779  0.50084939
   0.14218249  0.14252177  0.49984171
   0.14130603  0.28466823  0.49869479
   0.14130139  0.42799735  0.49857478
   0.14219131  0.57102073  0.49968434
   0.14259543  0.71394401  0.50082292
   0.14254862  0.85696173  0.50116283
   0.28571680  0.00001631  0.50094093
   0.28597052  0.14308732  0.49975008
   0.28551297  0.28682966  0.49765884
   0.28287369  0.42711596  0.49646688
   0.28549805  0.57002636  0.49757895
   0.28597089  0.71424042  0.49965390
   0.28573391  0.85709054  0.50088020
   0.42860926  0.99999131  0.50097147
   0.42926709  0.14352913  0.50031032
   0.42806392  0.28370127  0.49849541
   0.42806384  0.71570812  0.49850191
   0.42926837  0.85709669  0.50033102
   0.57118239  0.99993653  0.50061815
   0.57120242  0.14265647  0.50055724
   0.57459776  0.28858758  0.49927396
   0.57458916  0.85739651  0.49937460
   0.71402769  0.00031832  0.50004647
   0.71394239  0.14267811  0.50059351
   0.71405500  0.28513327  0.49983397
   0.70968775  0.42432871  0.49734977
   0.71465285  0.57128239  0.48910911
   0.71464283  0.71474786  0.48922862
   0.70970291  0.85678053  0.49757643
   0.85605028  0.99932372  0.49990663
   0.85646673  0.14255100  0.50029473
   0.85649795  0.28533747  0.50017218
   0.85607923  0.42812486  0.49964687
   0.85517395  0.57026367  0.49886850
   0.85624157  0.71379571  0.49773173
   0.85514621  0.85624918  0.49905928
   0.04681284  0.09459333  0.50042023
   0.04609297  0.23705030  0.49957608
   0.04609126  0.38040768  0.49944604
   0.04682054  0.52358043  0.50023911
   0.04696954  0.66640295  0.50100452
   0.04682750  0.80909846  0.50105827
   0.04694423  0.95192655  0.50102746
   0.19029228  0.09505400  0.50017258
   0.18953280  0.23765545  0.49870492
   0.18768216  0.37953471  0.49787468
   0.18952855  0.52322498  0.49857432
   0.19030595  0.66660003  0.50006296
   0.19039240  0.80945930  0.50099529
   0.19039155  0.95232738  0.50101465
   0.33380887  0.09575833  0.50041489
   0.33462756  0.23859052  0.49859536
   0.32931756  0.37953257  0.49620019
   0.32930173  0.52113852  0.49616147
   0.33463236  0.66738806  0.49852256
   0.33380616  0.80940894  0.50033852
   0.33314379  0.95226895  0.50104810
   0.47619964  0.09518324  0.50072888
   0.47690880  0.23924646  0.49953046
   0.47689649  0.80900882  0.49956329
   0.47619297  0.95239603  0.50077770
   0.61861849  0.09500951  0.50069042
   0.61933047  0.23808926  0.49989621
   0.61931821  0.95264057  0.50002152
   0.76162428  0.09546749  0.50050462
   0.76163047  0.23756535  0.50034484
   0.76070905  0.37993356  0.49895590
   0.75875703  0.52262515  0.49533807
   0.76047148  0.66592183  0.49178775
   0.75874197  0.80751177  0.49557312
   0.76069317  0.95219719  0.49921282
   0.90365202  0.09431350  0.50022540
   0.90396237  0.23767031  0.50015887
   0.90368129  0.38073448  0.50003283
   0.90353653  0.52346870  0.50012630
   0.90331216  0.66572943  0.49940466
   0.90328734  0.80892050  0.49947057
   0.90349756  0.95140937  0.50034091
   0.46652897  0.35632182  0.49736967
   0.40185030  0.41917323  0.49620441
   0.40183535  0.55404416  0.49613291
   0.64227092  0.67905757  0.48099467
   0.64228353  0.53461053  0.48083474
   0.46653871  0.68156465  0.49738752
   0.55669935  0.60859808  0.57798409
   0.55737149  0.51985055  0.57800414
   0.61961549  0.37912138  0.49821340
   0.61962883  0.81190467  0.49838406
   0.51803130  0.54449882  0.56977595
Direct configuration=     2
   0.99893382  0.99922293  0.50088022
   0.99892125  0.14203147  0.50016638
   0.99900824  0.28518494  0.49971572
   0.99892338  0.42824753  0.49997287
   0.99897243  0.57109073  0.50072507
   0.99916857  0.71375161  0.50088470
   0.99915004  0.85678756  0.50084950
   0.14256897  0.00000808  0.50085472
   0.14218250  0.14252203  0.49984353
   0.14130483  0.28466881  0.49869660
   0.14130155  0.42799660  0.49857517
   0.14219186  0.57102059  0.49968493
   0.14259497  0.71394433  0.50082435
   0.14254839  0.85696204  0.50116700
   0.28571735  0.00001683  0.50094297
   0.28597065  0.14308763  0.49975101
   0.28551299  0.28683009  0.49765577
   0.28287409  0.42711641  0.49646172
   0.28549941  0.57002666  0.49757596
   0.28597344  0.71424351  0.49965308
   0.28573522  0.85709179  0.50088167
   0.42861072  0.99999188  0.50097149
   0.42926768  0.14352923  0.50030966
   0.42806387  0.28370139  0.49849215
   0.42806489  0.71570958  0.49849777
   0.42926988  0.85709881  0.50032826
   0.57118141  0.99993754  0.50061679
   0.57120278  0.14265635  0.50055733
   0.57459785  0.28858758  0.49926978
   0.57458820  0.85739728  0.49936728
   0.71402596  0.00031853  0.50004350
   0.71394144  0.14267803  0.50059459
   0.71405441  0.28513237  0.49983365
   0.70968725  0.42432875  0.49734464
   0.71464771  0.57127960  0.48909445
   0.71464172  0.71474598  0.48921308
   0.70970204  0.85677957  0.49756766
   0.85605030  0.99932431  0.49990605
   0.85646644  0.14255120  0.50029602
   0.85649711  0.28533620  0.50017287
   0.85607873  0.42812381  0.49964589
   0.85517331  0.57026353  0.49886325
   0.85623996  0.71379319  0.49772273
   0.85514589  0.85624766  0.49905466
   0.04681255  0.09459252  0.50042275
   0.04609331  0.23705007  0.49957824
   0.04609169  0.38040903  0.49944766
   0.04682132  0.52358144  0.50024013
   0.04697119  0.66640381  0.50100525
   0.04682767  0.80909851  0.50106073
   0.04694382  0.95192625  0.50103190
   0.19029183  0.09505351  0.50017533
   0.18953285  0.23765504  0.49870492
   0.18768211  0.37953518  0.49787368
   0.18952755  0.52322567  0.49857390
   0.19030529  0.66659969  0.50006345
   0.19039132  0.80945835  0.50099779
   0.19039165  0.95232605  0.50101915
   0.33380827  0.09575699  0.50041606
   0.33462714  0.23859022  0.49859339
   0.32931741  0.37953100  0.49619395
   0.32930092  0.52113906  0.49615521
   0.33463131  0.66738746  0.49851993
   0.33380218  0.80940485  0.50033865
   0.33314213  0.95226774  0.50104898
   0.47619792  0.09518356  0.50072936
   0.47690835  0.23924669  0.49952744
   0.47689600  0.80900763  0.49955798
   0.47619260  0.95239554  0.50077621
   0.61861916  0.09500936  0.50069082
   0.61933054  0.23809017  0.49989547
   0.61932261  0.95263795  0.50001793
   0.76162484  0.09546644  0.50050490
   0.76163115  0.23756584  0.50034591
   0.76071006  0.37993464  0.49895410
   0.75875932  0.52262540  0.49532990
   0.76047358  0.66592453  0.49177405
   0.75874309  0.80751471  0.49556726
   0.76069339  0.95219621  0.49920817
   0.90365180  0.09431285  0.50022696
   0.90396260  0.23767016  0.50016017
   0.90368219  0.38073604  0.50003339
   0.90353754  0.52346934  0.50012472
   0.90331280  0.66573032  0.49939971
   0.90328783  0.80892206  0.49946702
   0.90349678  0.95140869  0.50034023
   0.46652877  0.35632196  0.49736624
   0.40185008  0.41917292  0.49619446
   0.40183555  0.55404522  0.49612362
   0.64227203  0.67905897  0.48097679
   0.64228698  0.53461052  0.48081847
   0.46653895  0.68156511  0.49738436
   0.55670000  0.60859902  0.57797672
   0.55737237  0.51985204  0.57799596
   0.61961631  0.37912218  0.49820629
   0.61962916  0.81190426  0.49837380
   0.51803217  0.54449994  0.56977595
Direct configuration=     3
   0.99893283  0.99922209  0.50088421
   0.99892018  0.14203126  0.50016803
   0.99900865  0.28518530  0.49971837
   0.99892393  0.42824848  0.49997504
   0.99897326  0.57109145  0.50072548
   0.99916891  0.71375185  0.50088448
   0.99914992  0.85678748  0.50085237
   0.14256866  0.00000751  0.50086278
   0.14218219  0.14252182  0.49984640
   0.14130547  0.28466892  0.49869793
   0.14130166  0.42799741  0.49857578
   0.14219206  0.57102149  0.49968585
   0.14259521  0.71394435  0.50082662
   0.14254802  0.85696149  0.50117335
   0.28571615  0.00001540  0.50094510
   0.28597040  0.14308699  0.49975246
   0.28551252  0.28682866  0.49765244
   0.28287433  0.42711659  0.49645396
   0.28549766  0.57002485  0.49757234
   0.28597222  0.71424187  0.49965191
   0.28573368  0.85709056  0.50088398
   0.42860887  0.99999169  0.50097133
   0.42926678  0.14352896  0.50030877
   0.42806309  0.28370146  0.49848722
   0.42806389  0.71570878  0.49849150
   0.42926850  0.85709797  0.50032418
   0.57118248  0.99993682  0.50061476
   0.57120231  0.14265649  0.50055761
   0.57459780  0.28858857  0.49926369
   0.57458865  0.85739601  0.49935639
   0.71402759  0.00031784  0.50003905
   0.71394220  0.14267786  0.50059626
   0.71405492  0.28513308  0.49983323
   0.70968790  0.42432908  0.49733684
   0.71465226  0.57128189  0.48907316
   0.71464536  0.71474917  0.48919157
   0.70970184  0.85677959  0.49755494
   0.85604954  0.99932206  0.49990463
   0.85646632  0.14255048  0.50029803
   0.85649762  0.28533676  0.50017408
   0.85607951  0.42812451  0.49964448
   0.85517468  0.57026420  0.49885540
   0.85624157  0.71379590  0.49770982
   0.85514608  0.85624785  0.49904806
   0.04681219  0.09459265  0.50042659
   0.04609304  0.23705018  0.49958153
   0.04609139  0.38040753  0.49944974
   0.04682087  0.52358079  0.50024180
   0.04696851  0.66640225  0.50100626
   0.04682715  0.80909812  0.50106451
   0.04694376  0.95192613  0.50103865
   0.19029186  0.09505360  0.50017962
   0.18953227  0.23765529  0.49870505
   0.18768218  0.37953537  0.49787224
   0.18952873  0.52322567  0.49857335
   0.19030598  0.66660050  0.50006423
   0.19039144  0.80945901  0.50100169
   0.19039254  0.95232556  0.50102577
   0.33380823  0.09575788  0.50041824
   0.33462712  0.23859034  0.49859044
   0.32931774  0.37953002  0.49618473
   0.32930149  0.52113937  0.49614567
   0.33463232  0.66738893  0.49851714
   0.33380429  0.80940752  0.50033802
   0.33314355  0.95226841  0.50105101
   0.47619903  0.09518372  0.50072892
   0.47690867  0.23924716  0.49952288
   0.47689641  0.80900924  0.49954995
   0.47619339  0.95239632  0.50077404
   0.61861876  0.09500910  0.50069147
   0.61933079  0.23809004  0.49989378
   0.61932091  0.95263713  0.50001249
   0.76162421  0.09546660  0.50050537
   0.76163066  0.23756535  0.50034756
   0.76070952  0.37993414  0.49895139
   0.75875850  0.52262573  0.49531712
   0.76047164  0.66592382  0.49175396
   0.75873916  0.80751067  0.49555807
   0.76069278  0.95219613  0.49920125
   0.90365187  0.09431377  0.50022930
   0.90396243  0.23766986  0.50016222
   0.90368137  0.38073419  0.50003377
   0.90353685  0.52346897  0.50012237
   0.90331198  0.66572962  0.49939215
   0.90328731  0.80892054  0.49946146
   0.90349631  0.95140847  0.50033928
   0.46652848  0.35632218  0.49736115
   0.40184971  0.41917240  0.49617991
   0.40183527  0.55404652  0.49611002
   0.64227254  0.67906019  0.48095041
   0.64228769  0.53460846  0.48079415
   0.46653933  0.68156595  0.49737965
   0.55670156  0.60860110  0.57796748
   0.55737439  0.51985406  0.57798559
   0.61961665  0.37912242  0.49819586
   0.61962805  0.81190387  0.49835866
   0.51803301  0.54450151  0.56977595
Direct configuration=     4
   0.99893164  0.99922119  0.50088960
   0.99891940  0.14203058  0.50017040
   0.99900923  0.28518626  0.49972202
   0.99892499  0.42825044  0.49997785
   0.99897510  0.57109362  0.50072504
   0.99916990  0.71375215  0.50088404
   0.99914962  0.85678760  0.50085615
   0.14256845  0.00000647  0.50087357
   0.14218151  0.14252139  0.49985041
   0.14130732  0.28466867  0.49869871
   0.14130167  0.42799893  0.49857647
   0.14219199  0.57102276  0.49968709
   0.14259549  0.71394408  0.50082976
   0.14254760  0.85696038  0.50118192
   0.28571464  0.00001333  0.50094773
   0.28596997  0.14308608  0.49975439
   0.28551168  0.28682620  0.49764856
   0.28287471  0.42711625  0.49644335
   0.28549461  0.57002267  0.49756786
   0.28596899  0.71423783  0.49965040
   0.28573108  0.85708848  0.50088717
   0.42860586  0.99999123  0.50097102
   0.42926542  0.14352887  0.50030757
   0.42806221  0.28370165  0.49848044
   0.42806206  0.71570736  0.49848296
   0.42926675  0.85709412  0.50031965
   0.57118477  0.99993477  0.50061203
   0.57120163  0.14265681  0.50055800
   0.57459778  0.28858996  0.49925556
   0.57458939  0.85739368  0.49934176
   0.71403067  0.00031680  0.50003304
   0.71394366  0.14267765  0.50059850
   0.71405592  0.28513455  0.49983265
   0.70968917  0.42432971  0.49732591
   0.71465742  0.57128426  0.48904525
   0.71464944  0.71475370  0.48916343
   0.70970128  0.85677970  0.49753826
   0.85604923  0.99932159  0.49990330
   0.85646619  0.14254956  0.50030077
   0.85649873  0.28533809  0.50017582
   0.85608063  0.42812595  0.49964253
   0.85517654  0.57026503  0.49884463
   0.85624467  0.71380059  0.49769394
   0.85514558  0.85624854  0.49903957
   0.04681146  0.09459323  0.50043168
   0.04609248  0.23705056  0.49958580
   0.04609084  0.38040484  0.49945234
   0.04682008  0.52357950  0.50024410
   0.04696731  0.66640181  0.50100813
   0.04682629  0.80909760  0.50106966
   0.04694380  0.95192605  0.50104778
   0.19029206  0.09505382  0.50018558
   0.18953139  0.23765582  0.49870531
   0.18768262  0.37953559  0.49787022
   0.18953082  0.52322519  0.49857266
   0.19030733  0.66660191  0.50006527
   0.19039210  0.80946029  0.50100707
   0.19039311  0.95232572  0.50103463
   0.33380863  0.09575791  0.50042037
   0.33462711  0.23859030  0.49858646
   0.32931790  0.37952981  0.49617221
   0.32930270  0.52113904  0.49613255
   0.33463375  0.66739054  0.49851387
   0.33380798  0.80941202  0.50033736
   0.33314540  0.95226933  0.50105285
   0.47620047  0.09518390  0.50072881
   0.47690918  0.23924773  0.49951664
   0.47689698  0.80901194  0.49953894
   0.47619443  0.95239769  0.50077110
   0.61861789  0.09500886  0.50069236
   0.61933010  0.23808973  0.49989234
   0.61931520  0.95263826  0.50000493
   0.76162312  0.09546734  0.50050600
   0.76162968  0.23756449  0.50034976
   0.76070844  0.37993300  0.49894764
   0.75875666  0.52262637  0.49529932
   0.76047092  0.66592210  0.49172733
   0.75873392  0.80750403  0.49554454
   0.76069213  0.95219639  0.49919190
   0.90365152  0.09431458  0.50023223
   0.90396209  0.23766957  0.50016511
   0.90367989  0.38073081  0.50003404
   0.90353553  0.52346818  0.50011908
   0.90331073  0.66572856  0.49938173
   0.90328648  0.80891786  0.49945362
   0.90349597  0.95140805  0.50033796
   0.46652805  0.35632246  0.49735423
   0.40184955  0.41917181  0.49616072
   0.40183495  0.55404827  0.49609203
   0.64227378  0.67906189  0.48091560
   0.64228705  0.53460526  0.48076187
   0.46653983  0.68156707  0.49737314
   0.55670461  0.60860487  0.57795813
   0.55737809  0.51985671  0.57797479
   0.61961658  0.37912241  0.49818229
   0.61962651  0.81190335  0.49833885
   0.51803350  0.54450335  0.56977595
Direct configuration=     5
   0.99893164  0.99922119  0.50088960
   0.99891940  0.14203058  0.50017040
   0.99900923  0.28518626  0.49972202
   0.99892499  0.42825044  0.49997785
   0.99897510  0.57109362  0.50072504
   0.99916990  0.71375215  0.50088404
   0.99914962  0.85678760  0.50085615
   0.14256845  0.00000647  0.50087357
   0.14218151  0.14252139  0.49985041
   0.14130732  0.28466867  0.49869871
   0.14130167  0.42799893  0.49857647
   0.14219199  0.57102276  0.49968709
   0.14259549  0.71394408  0.50082976
   0.14254760  0.85696038  0.50118192
   0.28571464  0.00001333  0.50094773
   0.28596997  0.14308608  0.49975439
   0.28551168  0.28682620  0.49764856
   0.28287471  0.42711625  0.49644335
   0.28549461  0.57002267  0.49756786
   0.28596899  0.71423783  0.49965040
   0.28573108  0.85708848  0.50088717
   0.42860586  0.99999123  0.50097102
   0.42926542  0.14352887  0.50030757
   0.42806221  0.28370165  0.49848044
   0.42806206  0.71570736  0.49848296
   0.42926675  0.85709412  0.50031965
   0.57118477  0.99993477  0.50061203
   0.57120163  0.14265681  0.50055800
   0.57459778  0.28858996  0.49925556
   0.57458939  0.85739368  0.49934176
   0.71403067  0.00031680  0.50003304
   0.71394366  0.14267765  0.50059850
   0.71405592  0.28513455  0.49983265
   0.70968917  0.42432971  0.49732591
   0.71465742  0.57128426  0.48904525
   0.71464944  0.71475370  0.48916343
   0.70970128  0.85677970  0.49753826
   0.85604923  0.99932159  0.49990330
   0.85646619  0.14254956  0.50030077
   0.85649873  0.28533809  0.50017582
   0.85608063  0.42812595  0.49964253
   0.85517654  0.57026503  0.49884463
   0.85624467  0.71380059  0.49769394
   0.85514558  0.85624854  0.49903957
   0.04681146  0.09459323  0.50043168
   0.04609248  0.23705056  0.49958580
   0.04609084  0.38040484  0.49945234
   0.04682008  0.52357950  0.50024410
   0.04696731  0.66640181  0.50100813
   0.04682629  0.80909760  0.50106966
   0.04694380  0.95192605  0.50104778
   0.19029206  0.09505382  0.50018558
   0.18953139  0.23765582  0.49870531
   0.18768262  0.37953559  0.49787022
   0.18953082  0.52322519  0.49857266
   0.19030733  0.66660191  0.50006527
   0.19039210  0.80946029  0.50100707
   0.19039311  0.95232572  0.50103463
   0.33380863  0.09575791  0.50042037
   0.33462711  0.23859030  0.49858646
   0.32931790  0.37952981  0.49617221
   0.32930270  0.52113904  0.49613255
   0.33463375  0.66739054  0.49851387
   0.33380798  0.80941202  0.50033736
   0.33314540  0.95226933  0.50105285
   0.47620047  0.09518390  0.50072881
   0.47690918  0.23924773  0.49951664
   0.47689698  0.80901194  0.49953894
   0.47619443  0.95239769  0.50077110
   0.61861789  0.09500886  0.50069236
   0.61933010  0.23808973  0.49989234
   0.61931520  0.95263826  0.50000493
   0.76162312  0.09546734  0.50050600
   0.76162968  0.23756449  0.50034976
   0.76070844  0.37993300  0.49894764
   0.75875666  0.52262637  0.49529932
   0.76047092  0.66592210  0.49172733
   0.75873392  0.80750403  0.49554454
   0.76069213  0.95219639  0.49919190
   0.90365152  0.09431458  0.50023223
   0.90396209  0.23766957  0.50016511
   0.90367989  0.38073081  0.50003404
   0.90353553  0.52346818  0.50011908
   0.90331073  0.66572856  0.49938173
   0.90328648  0.80891786  0.49945362
   0.90349597  0.95140805  0.50033796
   0.46652805  0.35632246  0.49735423
   0.40184955  0.41917181  0.49616072
   0.40183495  0.55404827  0.49609203
   0.64227378  0.67906189  0.48091560
   0.64228705  0.53460526  0.48076187
   0.46653983  0.68156707  0.49737314
   0.55670461  0.60860487  0.57795813
   0.55737809  0.51985671  0.57797479
   0.61961658  0.37912241  0.49818229
   0.61962651  0.81190335  0.49833885
   0.51803350  0.54450335  0.56977595
