  99  99   0   0
  0.3914025E+02  0.1727104E-08  0.1727104E-08  0.1500000E-08  0.0000000E+00
  1.000000000000000E-004
  CAR 
 unknown system                          
      6.03281385    -31.34791525  301     -2.39877951      1.00000000
    -31.348  0.0000E+00  0.0000E+00  0.0000E+00  0.0000E+00
    -31.223  0.0000E+00  0.0000E+00  0.0000E+00  0.0000E+00
    -31.099  0.0000E+00  0.0000E+00  0.0000E+00  0.0000E+00
    -30.974  0.0000E+00  0.0000E+00  0.0000E+00  0.0000E+00
    -30.850  0.0000E+00  0.0000E+00  0.0000E+00  0.0000E+00
    -30.725  0.0000E+00  0.0000E+00  0.0000E+00  0.0000E+00
    -30.600  0.0000E+00  0.0000E+00  0.0000E+00  0.0000E+00
    -30.476  0.0000E+00  0.0000E+00  0.0000E+00  0.0000E+00
    -30.351  0.0000E+00  0.0000E+00  0.0000E+00  0.0000E+00
    -30.226  0.0000E+00  0.0000E+00  0.0000E+00  0.0000E+00
    -30.102  0.0000E+00  0.0000E+00  0.0000E+00  0.0000E+00
    -29.977  0.0000E+00  0.0000E+00  0.0000E+00  0.0000E+00
    -29.853  0.3223E-10  0.3223E-10  0.4016E-11  0.4016E-11
    -29.728  0.9978E-04  0.9978E-04  0.1243E-04  0.1243E-04
    -29.603  0.7502E-02  0.7502E-02  0.9472E-03  0.9472E-03
    -29.479  0.1011E-01  0.1011E-01  0.2206E-02  0.2206E-02
    -29.354  0.7903E-02  0.7903E-02  0.3191E-02  0.3191E-02
    -29.230  0.1383E-01  0.1383E-01  0.4915E-02  0.4915E-02
    -29.105  0.1040E-01  0.1040E-01  0.6210E-02  0.6210E-02
    -28.980  0.1257E-01  0.1257E-01  0.7777E-02  0.7777E-02
    -28.856  0.1793E-02  0.1793E-02  0.8000E-02  0.8000E-02
    -28.731  0.7303E-07  0.7303E-07  0.8000E-02  0.8000E-02
    -28.607  0.0000E+00  0.0000E+00  0.8000E-02  0.8000E-02
    -28.482  0.0000E+00  0.0000E+00  0.8000E-02  0.8000E-02
    -28.357  0.0000E+00  0.0000E+00  0.8000E-02  0.8000E-02
    -28.233  0.0000E+00  0.0000E+00  0.8000E-02  0.8000E-02
    -28.108  0.0000E+00  0.0000E+00  0.8000E-02  0.8000E-02
    -27.984  0.0000E+00  0.0000E+00  0.8000E-02  0.8000E-02
    -27.859  0.0000E+00  0.0000E+00  0.8000E-02  0.8000E-02
    -27.734  0.0000E+00  0.0000E+00  0.8000E-02  0.8000E-02
    -27.610  0.0000E+00  0.0000E+00  0.8000E-02  0.8000E-02
    -27.485  0.0000E+00  0.0000E+00  0.8000E-02  0.8000E-02
    -27.361  0.0000E+00  0.0000E+00  0.8000E-02  0.8000E-02
    -27.236  0.0000E+00  0.0000E+00  0.8000E-02  0.8000E-02
    -27.111  0.0000E+00  0.0000E+00  0.8000E-02  0.8000E-02
    -26.987  0.0000E+00  0.0000E+00  0.8000E-02  0.8000E-02
    -26.862  0.0000E+00  0.0000E+00  0.8000E-02  0.8000E-02
    -26.738  0.0000E+00  0.0000E+00  0.8000E-02  0.8000E-02
    -26.613  0.0000E+00  0.0000E+00  0.8000E-02  0.8000E-02
    -26.488  0.0000E+00  0.0000E+00  0.8000E-02  0.8000E-02
    -26.364  0.0000E+00  0.0000E+00  0.8000E-02  0.8000E-02
    -26.239  0.0000E+00  0.0000E+00  0.8000E-02  0.8000E-02
    -26.115  0.0000E+00  0.0000E+00  0.8000E-02  0.8000E-02
    -25.990  0.0000E+00  0.0000E+00  0.8000E-02  0.8000E-02
    -25.865  0.0000E+00  0.0000E+00  0.8000E-02  0.8000E-02
    -25.741  0.0000E+00  0.0000E+00  0.8000E-02  0.8000E-02
    -25.616  0.0000E+00  0.0000E+00  0.8000E-02  0.8000E-02
    -25.492  0.0000E+00  0.0000E+00  0.8000E-02  0.8000E-02
    -25.367  0.0000E+00  0.0000E+00  0.8000E-02  0.8000E-02
    -25.242  0.0000E+00  0.0000E+00  0.8000E-02  0.8000E-02
    -25.118  0.0000E+00  0.0000E+00  0.8000E-02  0.8000E-02
    -24.993  0.0000E+00  0.0000E+00  0.8000E-02  0.8000E-02
    -24.869  0.0000E+00  0.0000E+00  0.8000E-02  0.8000E-02
    -24.744  0.0000E+00  0.0000E+00  0.8000E-02  0.8000E-02
    -24.619  0.0000E+00  0.0000E+00  0.8000E-02  0.8000E-02
    -24.495  0.0000E+00  0.0000E+00  0.8000E-02  0.8000E-02
    -24.370  0.0000E+00  0.0000E+00  0.8000E-02  0.8000E-02
    -24.246  0.0000E+00  0.0000E+00  0.8000E-02  0.8000E-02
    -24.121  0.0000E+00  0.0000E+00  0.8000E-02  0.8000E-02
    -23.996  0.0000E+00  0.0000E+00  0.8000E-02  0.8000E-02
    -23.872  0.0000E+00  0.0000E+00  0.8000E-02  0.8000E-02
    -23.747  0.0000E+00  0.0000E+00  0.8000E-02  0.8000E-02
    -23.623  0.0000E+00  0.0000E+00  0.8000E-02  0.8000E-02
    -23.498  0.0000E+00  0.0000E+00  0.8000E-02  0.8000E-02
    -23.373  0.0000E+00  0.0000E+00  0.8000E-02  0.8000E-02
    -23.249  0.0000E+00  0.0000E+00  0.8000E-02  0.8000E-02
    -23.124  0.0000E+00  0.0000E+00  0.8000E-02  0.8000E-02
    -23.000  0.7374E-12  0.7374E-12  0.8000E-02  0.8000E-02
    -22.875  0.1754E-04  0.1754E-04  0.8002E-02  0.8002E-02
    -22.750  0.6001E-02  0.6001E-02  0.8750E-02  0.8750E-02
    -22.626  0.2007E-02  0.2007E-02  0.9000E-02  0.9000E-02
    -22.501  0.1078E-06  0.1078E-06  0.9000E-02  0.9000E-02
    -22.377  0.4611E-16  0.4611E-16  0.9000E-02  0.9000E-02
    -22.252  0.0000E+00  0.0000E+00  0.9000E-02  0.9000E-02
    -22.127  0.5702E-16  0.5702E-16  0.9000E-02  0.9000E-02
    -22.003  0.6606E-07  0.6606E-07  0.9000E-02  0.9000E-02
    -21.878  0.7005E-03  0.7005E-03  0.9087E-02  0.9087E-02
    -21.754  0.7332E-02  0.7332E-02  0.1000E-01  0.1000E-01
    -21.629  0.5967E-02  0.5967E-02  0.1074E-01  0.1074E-01
    -21.504  0.4761E-02  0.4761E-02  0.1134E-01  0.1134E-01
    -21.380  0.1095E-01  0.1095E-01  0.1270E-01  0.1270E-01
    -21.255  0.5622E-02  0.5622E-02  0.1340E-01  0.1340E-01
    -21.131  0.1892E-02  0.1892E-02  0.1364E-01  0.1364E-01
    -21.006  0.1142E-01  0.1142E-01  0.1506E-01  0.1506E-01
    -20.881  0.9634E-02  0.9634E-02  0.1626E-01  0.1626E-01
    -20.757  0.3815E-02  0.3815E-02  0.1674E-01  0.1674E-01
    -20.632  0.2149E-02  0.2149E-02  0.1700E-01  0.1700E-01
    -20.508  0.8092E-02  0.8092E-02  0.1801E-01  0.1801E-01
    -20.383  0.9067E-02  0.9067E-02  0.1914E-01  0.1914E-01
    -20.258  0.1321E-01  0.1321E-01  0.2079E-01  0.2079E-01
    -20.134  0.3116E-02  0.3116E-02  0.2118E-01  0.2118E-01
    -20.009  0.2917E-02  0.2917E-02  0.2154E-01  0.2154E-01
    -19.884  0.7408E-02  0.7408E-02  0.2246E-01  0.2246E-01
    -19.760  0.4492E-02  0.4492E-02  0.2302E-01  0.2302E-01
    -19.635  0.9591E-02  0.9591E-02  0.2422E-01  0.2422E-01
    -19.511  0.1248E-01  0.1248E-01  0.2577E-01  0.2577E-01
    -19.386  0.7509E-02  0.7509E-02  0.2671E-01  0.2671E-01
    -19.261  0.2581E-02  0.2581E-02  0.2703E-01  0.2703E-01
    -19.137  0.8181E-02  0.8181E-02  0.2805E-01  0.2805E-01
    -19.012  0.5875E-02  0.5875E-02  0.2878E-01  0.2878E-01
    -18.888  0.3744E-02  0.3744E-02  0.2925E-01  0.2925E-01
    -18.763  0.6240E-02  0.6240E-02  0.3002E-01  0.3002E-01
    -18.638  0.1146E-01  0.1146E-01  0.3145E-01  0.3145E-01
    -18.514  0.1226E-01  0.1226E-01  0.3298E-01  0.3298E-01
    -18.389  0.4243E-02  0.4243E-02  0.3351E-01  0.3351E-01
    -18.265  0.8195E-02  0.8195E-02  0.3453E-01  0.3453E-01
    -18.140  0.6676E-02  0.6676E-02  0.3536E-01  0.3536E-01
    -18.015  0.8882E-02  0.8882E-02  0.3647E-01  0.3647E-01
    -17.891  0.4326E-02  0.4326E-02  0.3701E-01  0.3701E-01
    -17.766  0.3852E-02  0.3852E-02  0.3749E-01  0.3749E-01
    -17.642  0.4125E-02  0.4125E-02  0.3800E-01  0.3800E-01
    -17.517  0.1519E-01  0.1519E-01  0.3990E-01  0.3990E-01
    -17.392  0.1219E-01  0.1219E-01  0.4141E-01  0.4141E-01
    -17.268  0.9965E-02  0.9965E-02  0.4266E-01  0.4266E-01
    -17.143  0.6871E-02  0.6871E-02  0.4351E-01  0.4351E-01
    -17.019  0.7497E-02  0.7497E-02  0.4445E-01  0.4445E-01
    -16.894  0.6831E-02  0.6831E-02  0.4530E-01  0.4530E-01
    -16.769  0.7453E-02  0.7453E-02  0.4623E-01  0.4623E-01
    -16.645  0.6165E-02  0.6165E-02  0.4699E-01  0.4699E-01
    -16.520  0.7059E-02  0.7059E-02  0.4787E-01  0.4787E-01
    -16.396  0.1555E-01  0.1555E-01  0.4981E-01  0.4981E-01
    -16.271  0.8440E-02  0.8440E-02  0.5086E-01  0.5086E-01
    -16.146  0.2745E-02  0.2745E-02  0.5120E-01  0.5120E-01
    -16.022  0.2441E-02  0.2441E-02  0.5151E-01  0.5151E-01
    -15.897  0.2361E-02  0.2361E-02  0.5180E-01  0.5180E-01
    -15.773  0.3615E-02  0.3615E-02  0.5225E-01  0.5225E-01
    -15.648  0.2951E-02  0.2951E-02  0.5262E-01  0.5262E-01
    -15.523  0.6056E-02  0.6056E-02  0.5338E-01  0.5338E-01
    -15.399  0.6811E-02  0.6811E-02  0.5422E-01  0.5422E-01
    -15.274  0.7601E-02  0.7601E-02  0.5517E-01  0.5517E-01
    -15.150  0.9576E-02  0.9576E-02  0.5636E-01  0.5636E-01
    -15.025  0.9520E-02  0.9520E-02  0.5755E-01  0.5755E-01
    -14.900  0.1123E-01  0.1123E-01  0.5895E-01  0.5895E-01
    -14.776  0.4526E-02  0.4526E-02  0.5951E-01  0.5951E-01
    -14.651  0.1002E-01  0.1002E-01  0.6076E-01  0.6076E-01
    -14.527  0.9138E-02  0.9138E-02  0.6190E-01  0.6190E-01
    -14.402  0.1327E-01  0.1327E-01  0.6355E-01  0.6355E-01
    -14.277  0.1303E-01  0.1303E-01  0.6518E-01  0.6518E-01
    -14.153  0.5368E-02  0.5368E-02  0.6585E-01  0.6585E-01
    -14.028  0.4536E-02  0.4536E-02  0.6641E-01  0.6641E-01
    -13.904  0.3892E-02  0.3892E-02  0.6690E-01  0.6690E-01
    -13.779  0.6556E-02  0.6556E-02  0.6771E-01  0.6771E-01
    -13.654  0.1255E-01  0.1255E-01  0.6928E-01  0.6928E-01
    -13.530  0.1013E-01  0.1013E-01  0.7054E-01  0.7054E-01
    -13.405  0.9032E-02  0.9032E-02  0.7166E-01  0.7166E-01
    -13.281  0.5427E-02  0.5427E-02  0.7234E-01  0.7234E-01
    -13.156  0.2076E-02  0.2076E-02  0.7260E-01  0.7260E-01
    -13.031  0.7113E-02  0.7113E-02  0.7349E-01  0.7349E-01
    -12.907  0.7021E-02  0.7021E-02  0.7436E-01  0.7436E-01
    -12.782  0.9339E-02  0.9339E-02  0.7552E-01  0.7552E-01
    -12.658  0.2149E-01  0.2149E-01  0.7820E-01  0.7820E-01
    -12.533  0.4717E-02  0.4717E-02  0.7879E-01  0.7879E-01
    -12.408  0.1223E-01  0.1223E-01  0.8031E-01  0.8031E-01
    -12.284  0.1309E-01  0.1309E-01  0.8195E-01  0.8195E-01
    -12.159  0.4766E-02  0.4766E-02  0.8254E-01  0.8254E-01
    -12.035  0.7951E-02  0.7951E-02  0.8353E-01  0.8353E-01
    -11.910  0.1192E-01  0.1192E-01  0.8501E-01  0.8501E-01
    -11.785  0.1598E-01  0.1598E-01  0.8701E-01  0.8701E-01
    -11.661  0.1005E-01  0.1005E-01  0.8826E-01  0.8826E-01
    -11.536  0.1335E-01  0.1335E-01  0.8992E-01  0.8992E-01
    -11.412  0.7500E-02  0.7500E-02  0.9086E-01  0.9086E-01
    -11.287  0.1265E-01  0.1265E-01  0.9243E-01  0.9243E-01
    -11.162  0.1396E-01  0.1396E-01  0.9417E-01  0.9417E-01
    -11.038  0.1077E-01  0.1077E-01  0.9551E-01  0.9551E-01
    -10.913  0.1156E-01  0.1156E-01  0.9695E-01  0.9695E-01
    -10.789  0.1123E-01  0.1123E-01  0.9835E-01  0.9835E-01
    -10.664  0.1052E-01  0.1052E-01  0.9966E-01  0.9966E-01
    -10.539  0.1367E-01  0.1367E-01  0.1014E+00  0.1014E+00
    -10.415  0.1531E-01  0.1531E-01  0.1033E+00  0.1033E+00
    -10.290  0.1664E-01  0.1664E-01  0.1053E+00  0.1053E+00
    -10.166  0.1638E-01  0.1638E-01  0.1074E+00  0.1074E+00
    -10.041  0.2196E-01  0.2196E-01  0.1101E+00  0.1101E+00
     -9.916  0.2384E-01  0.2384E-01  0.1131E+00  0.1131E+00
     -9.792  0.1559E-01  0.1559E-01  0.1150E+00  0.1150E+00
     -9.667  0.1989E-01  0.1989E-01  0.1175E+00  0.1175E+00
     -9.542  0.2168E-01  0.2168E-01  0.1202E+00  0.1202E+00
     -9.418  0.2472E-01  0.2472E-01  0.1233E+00  0.1233E+00
     -9.293  0.2302E-01  0.2302E-01  0.1262E+00  0.1262E+00
     -9.169  0.2709E-01  0.2709E-01  0.1295E+00  0.1295E+00
     -9.044  0.1382E-01  0.1382E-01  0.1313E+00  0.1313E+00
     -8.919  0.2008E-01  0.2008E-01  0.1338E+00  0.1338E+00
     -8.795  0.2699E-01  0.2699E-01  0.1371E+00  0.1371E+00
     -8.670  0.2626E-01  0.2626E-01  0.1404E+00  0.1404E+00
     -8.546  0.1767E-01  0.1767E-01  0.1426E+00  0.1426E+00
     -8.421  0.1495E-01  0.1495E-01  0.1445E+00  0.1445E+00
     -8.296  0.1463E-01  0.1463E-01  0.1463E+00  0.1463E+00
     -8.172  0.1478E-01  0.1478E-01  0.1481E+00  0.1481E+00
     -8.047  0.2441E-01  0.2441E-01  0.1512E+00  0.1512E+00
     -7.923  0.2434E-01  0.2434E-01  0.1542E+00  0.1542E+00
     -7.798  0.1607E-01  0.1607E-01  0.1562E+00  0.1562E+00
     -7.673  0.1573E-01  0.1573E-01  0.1582E+00  0.1582E+00
     -7.549  0.1230E-01  0.1230E-01  0.1597E+00  0.1597E+00
     -7.424  0.1404E-01  0.1404E-01  0.1615E+00  0.1615E+00
     -7.300  0.2085E-01  0.2085E-01  0.1640E+00  0.1640E+00
     -7.175  0.2097E-01  0.2097E-01  0.1667E+00  0.1667E+00
     -7.050  0.1322E-01  0.1322E-01  0.1683E+00  0.1683E+00
     -6.926  0.2023E-01  0.2023E-01  0.1708E+00  0.1708E+00
     -6.801  0.2418E-01  0.2418E-01  0.1738E+00  0.1738E+00
     -6.677  0.1050E-01  0.1050E-01  0.1752E+00  0.1752E+00
     -6.552  0.1090E-01  0.1090E-01  0.1765E+00  0.1765E+00
     -6.427  0.1367E-01  0.1367E-01  0.1782E+00  0.1782E+00
     -6.303  0.9548E-02  0.9548E-02  0.1794E+00  0.1794E+00
     -6.178  0.1672E-01  0.1672E-01  0.1815E+00  0.1815E+00
     -6.054  0.2628E-01  0.2628E-01  0.1848E+00  0.1848E+00
     -5.929  0.8020E-02  0.8020E-02  0.1858E+00  0.1858E+00
     -5.804  0.9098E-02  0.9098E-02  0.1869E+00  0.1869E+00
     -5.680  0.1198E-01  0.1198E-01  0.1884E+00  0.1884E+00
     -5.555  0.9260E-02  0.9260E-02  0.1895E+00  0.1895E+00
     -5.431  0.7528E-02  0.7528E-02  0.1905E+00  0.1905E+00
     -5.306  0.5914E-02  0.5914E-02  0.1912E+00  0.1912E+00
     -5.181  0.4010E-02  0.4010E-02  0.1917E+00  0.1917E+00
     -5.057  0.1480E-01  0.1480E-01  0.1936E+00  0.1936E+00
     -4.932  0.1412E-01  0.1412E-01  0.1953E+00  0.1953E+00
     -4.808  0.2071E-01  0.2071E-01  0.1979E+00  0.1979E+00
     -4.683  0.9401E-02  0.9401E-02  0.1991E+00  0.1991E+00
     -4.558  0.4473E-02  0.4473E-02  0.1996E+00  0.1996E+00
     -4.434  0.7892E-02  0.7892E-02  0.2006E+00  0.2006E+00
     -4.309  0.6690E-02  0.6690E-02  0.2014E+00  0.2014E+00
     -4.185  0.9357E-02  0.9357E-02  0.2026E+00  0.2026E+00
     -4.060  0.5518E-02  0.5518E-02  0.2033E+00  0.2033E+00
     -3.935  0.6717E-02  0.6717E-02  0.2041E+00  0.2041E+00
     -3.811  0.4200E-02  0.4200E-02  0.2047E+00  0.2047E+00
     -3.686  0.6986E-02  0.6986E-02  0.2055E+00  0.2055E+00
     -3.562  0.3760E-02  0.3760E-02  0.2060E+00  0.2060E+00
     -3.437  0.2131E-04  0.2131E-04  0.2060E+00  0.2060E+00
     -3.312  0.5613E-03  0.5613E-03  0.2061E+00  0.2061E+00
     -3.188  0.6149E-02  0.6149E-02  0.2068E+00  0.2068E+00
     -3.063  0.3368E-02  0.3368E-02  0.2073E+00  0.2073E+00
     -2.939  0.1950E-02  0.1950E-02  0.2075E+00  0.2075E+00
     -2.814  0.9331E-05  0.9331E-05  0.2075E+00  0.2075E+00
     -2.689  0.9769E-04  0.9769E-04  0.2075E+00  0.2075E+00
     -2.565  0.3669E-02  0.3669E-02  0.2080E+00  0.2080E+00
     -2.440  0.2457E-03  0.2457E-03  0.2080E+00  0.2080E+00
     -2.316  0.2477E-06  0.2477E-06  0.2080E+00  0.2080E+00
     -2.191  0.1507E-02  0.1507E-02  0.2082E+00  0.2082E+00
     -2.066  0.2503E-02  0.2503E-02  0.2085E+00  0.2085E+00
     -1.942  0.7386E-04  0.7386E-04  0.2085E+00  0.2085E+00
     -1.817  0.1850E-02  0.1850E-02  0.2087E+00  0.2087E+00
     -1.693  0.2798E-02  0.2798E-02  0.2091E+00  0.2091E+00
     -1.568  0.5069E-02  0.5069E-02  0.2097E+00  0.2097E+00
     -1.443  0.2125E-02  0.2125E-02  0.2100E+00  0.2100E+00
     -1.319  0.1434E-03  0.1434E-03  0.2100E+00  0.2100E+00
     -1.194  0.3637E-02  0.3637E-02  0.2105E+00  0.2105E+00
     -1.070  0.3986E-02  0.3986E-02  0.2110E+00  0.2110E+00
     -0.945  0.1691E-01  0.1691E-01  0.2131E+00  0.2131E+00
     -0.820  0.1329E-01  0.1329E-01  0.2147E+00  0.2147E+00
     -0.696  0.1757E-02  0.1757E-02  0.2149E+00  0.2149E+00
     -0.571  0.1196E-01  0.1196E-01  0.2164E+00  0.2164E+00
     -0.447  0.1213E-01  0.1213E-01  0.2179E+00  0.2179E+00
     -0.322  0.5006E-02  0.5006E-02  0.2186E+00  0.2186E+00
     -0.197  0.4018E-02  0.4018E-02  0.2191E+00  0.2191E+00
     -0.073  0.6146E-02  0.6146E-02  0.2198E+00  0.2198E+00
      0.052  0.1102E-01  0.1102E-01  0.2212E+00  0.2212E+00
      0.176  0.1632E-01  0.1632E-01  0.2232E+00  0.2232E+00
      0.301  0.6191E-02  0.6191E-02  0.2240E+00  0.2240E+00
      0.426  0.4101E-02  0.4101E-02  0.2245E+00  0.2245E+00
      0.550  0.4406E-02  0.4406E-02  0.2251E+00  0.2251E+00
      0.675  0.5279E-02  0.5279E-02  0.2257E+00  0.2257E+00
      0.800  0.8213E-02  0.8213E-02  0.2267E+00  0.2267E+00
      0.924  0.6621E-02  0.6621E-02  0.2276E+00  0.2276E+00
      1.049  0.8115E-02  0.8114E-02  0.2286E+00  0.2286E+00
      1.173  0.8974E-02  0.8974E-02  0.2297E+00  0.2297E+00
      1.298  0.6999E-02  0.6999E-02  0.2306E+00  0.2306E+00
      1.423  0.1911E-01  0.1911E-01  0.2330E+00  0.2330E+00
      1.547  0.1832E-01  0.1832E-01  0.2352E+00  0.2352E+00
      1.672  0.1223E-01  0.1223E-01  0.2368E+00  0.2368E+00
      1.796  0.6599E-02  0.6599E-02  0.2376E+00  0.2376E+00
      1.921  0.1080E-01  0.1080E-01  0.2389E+00  0.2389E+00
      2.046  0.2109E-01  0.2109E-01  0.2416E+00  0.2416E+00
      2.170  0.1616E-01  0.1616E-01  0.2436E+00  0.2436E+00
      2.295  0.1346E-01  0.1346E-01  0.2452E+00  0.2452E+00
      2.419  0.1794E-01  0.1794E-01  0.2475E+00  0.2475E+00
      2.544  0.2648E-01  0.2648E-01  0.2508E+00  0.2508E+00
      2.669  0.1323E-01  0.1324E-01  0.2524E+00  0.2524E+00
      2.793  0.1348E-01  0.1348E-01  0.2541E+00  0.2541E+00
      2.918  0.2934E-01  0.2934E-01  0.2578E+00  0.2578E+00
      3.042  0.4177E-01  0.4177E-01  0.2630E+00  0.2630E+00
      3.167  0.2094E-01  0.2095E-01  0.2656E+00  0.2656E+00
      3.292  0.1636E-01  0.1636E-01  0.2676E+00  0.2676E+00
      3.416  0.1666E-01  0.1666E-01  0.2697E+00  0.2697E+00
      3.541  0.2537E-01  0.2537E-01  0.2729E+00  0.2729E+00
      3.665  0.1933E-01  0.1933E-01  0.2753E+00  0.2753E+00
      3.790  0.1783E-01  0.1783E-01  0.2775E+00  0.2775E+00
      3.915  0.2847E-01  0.2847E-01  0.2810E+00  0.2810E+00
      4.039  0.2639E-01  0.2639E-01  0.2843E+00  0.2843E+00
      4.164  0.2124E-01  0.2124E-01  0.2870E+00  0.2870E+00
      4.288  0.1663E-01  0.1663E-01  0.2890E+00  0.2890E+00
      4.413  0.7682E-02  0.7683E-02  0.2900E+00  0.2900E+00
      4.538  0.3615E-04  0.3617E-04  0.2900E+00  0.2900E+00
      4.662  0.9115E-11  0.9121E-11  0.2900E+00  0.2900E+00
      4.787  0.0000E+00  0.0000E+00  0.2900E+00  0.2900E+00
      4.911  0.0000E+00  0.0000E+00  0.2900E+00  0.2900E+00
      5.036  0.0000E+00  0.0000E+00  0.2900E+00  0.2900E+00
      5.161  0.0000E+00  0.0000E+00  0.2900E+00  0.2900E+00
      5.285  0.0000E+00  0.0000E+00  0.2900E+00  0.2900E+00
      5.410  0.0000E+00  0.0000E+00  0.2900E+00  0.2900E+00
      5.534  0.0000E+00  0.0000E+00  0.2900E+00  0.2900E+00
      5.659  0.0000E+00  0.0000E+00  0.2900E+00  0.2900E+00
      5.784  0.0000E+00  0.0000E+00  0.2900E+00  0.2900E+00
      5.908  0.0000E+00  0.0000E+00  0.2900E+00  0.2900E+00
      6.033  0.0000E+00  0.0000E+00  0.2900E+00  0.2900E+00
