 vasp.6.4.2 20Jul23 (build Aug 26 2025 15:10:52) complex                        
  
 POSCAR found type information on POSCAR C F H O 
 04/POSCAR found :  4 types and      99 ions
 Reading from existing POTCAR
 scaLAPACK will be used
 -----------------------------------------------------------------------------
|                                                                             |
|           W    W    AA    RRRRR   N    N  II  N    N   GGGG   !!!           |
|           W    W   A  A   R    R  NN   N  II  NN   N  G    G  !!!           |
|           W    W  A    A  R    R  N N  N  II  N N  N  G       !!!           |
|           W WW W  AAAAAA  RRRRR   N  N N  II  N  N N  G  GGG   !            |
|           WW  WW  A    A  R   R   N   NN  II  N   NN  G    G                |
|           W    W  A    A  R    R  N    N  II  N    N   GGGG   !!!           |
|                                                                             |
|     For optimal performance we recommend to set                             |
|       NCORE = 2 up to number-of-cores-per-socket                            |
|     NCORE specifies how many cores store one orbital (NPAR=cpu/NCORE).      |
|     This setting can greatly improve the performance of VASP for DFT.       |
|     The default, NCORE=1 might be grossly inefficient on modern             |
|     multi-core architectures or massively parallel machines. Do your        |
|     own testing! More info at https://www.vasp.at/wiki/index.php/NCORE      |
|     Unfortunately you need to use the default for GW and RPA                |
|     calculations (for HF NCORE is supported but not extensively tested      |
|     yet).                                                                   |
|                                                                             |
 -----------------------------------------------------------------------------

 Reading from existing POTCAR
 LDA part: xc-table for Pade appr. of Perdew
 POSCAR found type information on POSCAR C F H O 
 00/POSCAR found :  4 types and      99 ions
 POSCAR found type information on POSCAR C F H O 
 06/POSCAR found :  4 types and      99 ions
 Jacobian:    33.7825262909836     
 POSCAR found type information on POSCAR C F H O 
 00/POSCAR found :  4 types and      99 ions
 POSCAR found type information on POSCAR C F H O 
 06/POSCAR found :  4 types and      99 ions
 POSCAR, INCAR and KPOINTS ok, starting setup
 FFT: planning ... GRIDC
 FFT: planning ... GRID_SOFT
 FFT: planning ... GRID
 WAVECAR not read
 entering main loop
       N       E                     dE             d eps       ncg     rms          rms(c)
DAV:   1     0.386142593953E+04    0.38614E+04   -0.16150E+05  5030   0.110E+03
DAV:   2    -0.178159654192E+03   -0.40396E+04   -0.38194E+04  6890   0.275E+02
DAV:   3    -0.870673663063E+03   -0.69251E+03   -0.68911E+03  5690   0.119E+02
DAV:   4    -0.892839577829E+03   -0.22166E+02   -0.22056E+02  5780   0.263E+01
DAV:   5    -0.893497403805E+03   -0.65783E+00   -0.65673E+00  6640   0.383E+00    0.527E+01
DAV:   6    -0.875590837883E+03    0.17907E+02   -0.21088E+01  5710   0.107E+01    0.340E+01
DAV:   7    -0.855208501417E+03    0.20382E+02   -0.37601E+01  5500   0.101E+01    0.207E+01
DAV:   8    -0.850394165642E+03    0.48143E+01   -0.19129E+01  5590   0.673E+00    0.910E+00
DAV:   9    -0.850614260887E+03   -0.22010E+00   -0.12678E+00  5640   0.212E+00    0.424E+00
DAV:  10    -0.850407151295E+03    0.20711E+00   -0.64654E-01  5360   0.139E+00    0.126E+00
DAV:  11    -0.850390802182E+03    0.16349E-01   -0.11814E-01  5330   0.664E-01    0.287E-01
DAV:  12    -0.850390716905E+03    0.85277E-04   -0.13254E-02  5550   0.247E-01    0.132E-01
DAV:  13    -0.850390894353E+03   -0.17745E-03   -0.18609E-03  5790   0.900E-02    0.100E-01
DAV:  14    -0.850390923306E+03   -0.28953E-04   -0.33695E-04  5380   0.368E-02    0.630E-02
DAV:  15    -0.850390983938E+03   -0.60632E-04   -0.23530E-04  5300   0.323E-02    0.245E-02
DAV:  16    -0.850390979510E+03    0.44280E-05   -0.50400E-05  5370   0.183E-02    0.129E-02
DAV:  17    -0.850390980324E+03   -0.81364E-06   -0.11780E-05  5620   0.701E-03    0.834E-03
DAV:  18    -0.850390979319E+03    0.10046E-05   -0.45854E-06  4990   0.775E-03    0.395E-03
DAV:  19    -0.850390979358E+03   -0.39043E-07   -0.15357E-06  3220   0.267E-03
   1 F= -.85833985E+03 E0= -.85833985E+03  d E =-.858340E+03  mag=    -0.0000
quench:  g(F)=  0.000E+00 g(S)=  0.000E+00 dE (1.order)= 0.000E+00
 bond charge predicted
       N       E                     dE             d eps       ncg     rms          rms(c)
DAV:   1    -0.850391629167E+03   -0.64985E-03   -0.46437E-02  4880   0.344E-01    0.413E-02
DAV:   2    -0.850391688375E+03   -0.59208E-04   -0.84961E-04  4930   0.459E-02    0.280E-02
DAV:   3    -0.850391685882E+03    0.24933E-05   -0.15680E-05  5360   0.697E-03    0.208E-02
DAV:   4    -0.850391690638E+03   -0.47563E-05   -0.11485E-05  4650   0.690E-03    0.802E-03
DAV:   5    -0.850391693014E+03   -0.23762E-05   -0.57910E-06  4390   0.349E-03    0.352E-03
DAV:   6    -0.850391692853E+03    0.16142E-06   -0.90046E-07  3650   0.231E-03
   2 F= -.85834055E+03 E0= -.85834055E+03  d E =-.695709E-03  mag=     0.0000
quench:  g(F)=  0.000E+00 g(S)=  0.000E+00 dE (1.order)= 0.000E+00
 bond charge predicted
       N       E                     dE             d eps       ncg     rms          rms(c)
DAV:   1    -0.850392792292E+03   -0.10993E-02   -0.16862E-01  4880   0.666E-01    0.747E-02
DAV:   2    -0.850393013851E+03   -0.22156E-03   -0.30318E-03  4860   0.881E-02    0.510E-02
DAV:   3    -0.850393007135E+03    0.67157E-05   -0.42271E-05  5510   0.119E-02    0.393E-02
DAV:   4    -0.850393031423E+03   -0.24288E-04   -0.54105E-05  4760   0.147E-02    0.113E-02
DAV:   5    -0.850393037776E+03   -0.63537E-05   -0.18830E-05  5380   0.607E-03    0.636E-03
DAV:   6    -0.850393037119E+03    0.65770E-06   -0.19882E-06  4200   0.391E-03
   3 F= -.85834186E+03 E0= -.85834186E+03  d E =-.131522E-02  mag=    -0.0000
quench:  g(F)=  0.000E+00 g(S)=  0.000E+00 dE (1.order)= 0.000E+00
 bond charge predicted
       N       E                     dE             d eps       ncg     rms          rms(c)
DAV:   1    -0.850394594841E+03   -0.15571E-02   -0.34610E-01  4800   0.975E-01    0.102E-01
DAV:   2    -0.850395055905E+03   -0.46106E-03   -0.61937E-03  4860   0.129E-01    0.716E-02
DAV:   3    -0.850395044709E+03    0.11196E-04   -0.71718E-05  5560   0.160E-02    0.570E-02
DAV:   4    -0.850395111564E+03   -0.66854E-04   -0.16842E-04  5080   0.247E-02    0.127E-02
DAV:   5    -0.850395117477E+03   -0.59131E-05   -0.37379E-05  5420   0.905E-03    0.102E-02
DAV:   6    -0.850395116066E+03    0.14104E-05   -0.55296E-06  4680   0.641E-03    0.548E-03
DAV:   7    -0.850395116177E+03   -0.11079E-06   -0.27285E-06  3880   0.352E-03
   4 F= -.85834391E+03 E0= -.85834391E+03  d E =-.204612E-02  mag=    -0.0000
quench:  g(F)=  0.000E+00 g(S)=  0.000E+00 dE (1.order)= 0.000E+00
 bond charge predicted
       N       E                     dE             d eps       ncg     rms          rms(c)
DAV:   1    -0.850396939376E+03   -0.18233E-02   -0.58473E-01  4760   0.127E+00    0.129E-01
DAV:   2    -0.850397710566E+03   -0.77119E-03   -0.10389E-02  4910   0.167E-01    0.930E-02
DAV:   3    -0.850397677007E+03    0.33560E-04   -0.12030E-04  5560   0.202E-02    0.745E-02
DAV:   4    -0.850397803041E+03   -0.12603E-03   -0.32804E-04  5310   0.324E-02    0.181E-02
DAV:   5    -0.850397811723E+03   -0.86810E-05   -0.65157E-05  5350   0.118E-02    0.145E-02
DAV:   6    -0.850397810558E+03    0.11649E-05   -0.14263E-05  4750   0.877E-03    0.655E-03
DAV:   7    -0.850397810920E+03   -0.36275E-06   -0.30864E-06  4270   0.340E-03
   5 F= -.85834656E+03 E0= -.85834656E+03  d E =-.265530E-02  mag=    -0.0000
quench:  g(F)=  0.000E+00 g(S)=  0.000E+00 dE (1.order)= 0.000E+00
 bond charge predicted
       N       E                     dE             d eps       ncg     rms          rms(c)
DAV:   1    -0.850399743294E+03   -0.19327E-02   -0.89345E-01  4720   0.152E+00    0.156E-01
DAV:   2    -0.850400924219E+03   -0.11809E-02   -0.15707E-02  4940   0.199E-01    0.111E-01
DAV:   3    -0.850400869204E+03    0.55015E-04   -0.17628E-04  5550   0.237E-02    0.894E-02
DAV:   4    -0.850401048872E+03   -0.17967E-03   -0.48539E-04  5320   0.391E-02    0.206E-02
DAV:   5    -0.850401063315E+03   -0.14443E-04   -0.99114E-05  5360   0.140E-02    0.171E-02
DAV:   6    -0.850401061421E+03    0.18949E-05   -0.17135E-05  4780   0.101E-02    0.817E-03
DAV:   7    -0.850401061724E+03   -0.30348E-06   -0.49678E-06  4690   0.440E-03
   6 F= -.85834974E+03 E0= -.85834974E+03  d E =-.318169E-02  mag=    -0.0000
quench:  g(F)=  0.000E+00 g(S)=  0.000E+00 dE (1.order)= 0.000E+00
 bond charge predicted
       N       E                     dE             d eps       ncg     rms          rms(c)
DAV:   1    -0.850403052656E+03   -0.19912E-02   -0.12844E+00  4740   0.174E+00    0.184E-01
DAV:   2    -0.850404755440E+03   -0.17028E-02   -0.22279E-02  4940   0.224E-01    0.128E-01
DAV:   3    -0.850404672906E+03    0.82533E-04   -0.24349E-04  5540   0.265E-02    0.103E-01
DAV:   4    -0.850404894215E+03   -0.22131E-03   -0.61357E-04  5300   0.436E-02    0.212E-02
DAV:   5    -0.850404919807E+03   -0.25592E-04   -0.14135E-04  5420   0.154E-02    0.179E-02
DAV:   6    -0.850404916373E+03    0.34340E-05   -0.11751E-05  4860   0.964E-03    0.105E-02
DAV:   7    -0.850404916646E+03   -0.27308E-06   -0.91162E-06  4600   0.659E-03
   7 F= -.85835348E+03 E0= -.85835348E+03  d E =-.373147E-02  mag=     0.0000
quench:  g(F)=  0.000E+00 g(S)=  0.000E+00 dE (1.order)= 0.000E+00
 bond charge predicted
       N       E                     dE             d eps       ncg     rms          rms(c)
DAV:   1    -0.850406693381E+03   -0.17770E-02   -0.21395E+00  4740   0.211E+00    0.234E-01
DAV:   2    -0.850409581908E+03   -0.28885E-02   -0.36578E-02  4960   0.268E-01    0.161E-01
DAV:   3    -0.850409430874E+03    0.15103E-03   -0.39243E-04  5660   0.316E-02    0.129E-01
DAV:   4    -0.850409683530E+03   -0.25266E-03   -0.96697E-04  5380   0.526E-02    0.257E-02
DAV:   5    -0.850409738300E+03   -0.54770E-04   -0.23540E-04  5360   0.183E-02    0.220E-02
DAV:   6    -0.850409735642E+03    0.26575E-05   -0.13658E-05  4820   0.106E-02    0.137E-02
DAV:   7    -0.850409736715E+03   -0.10725E-05   -0.13477E-05  4660   0.808E-03    0.591E-03
DAV:   8    -0.850409736281E+03    0.43376E-06   -0.42656E-06  4580   0.636E-03
   8 F= -.85835809E+03 E0= -.85835809E+03  d E =-.461580E-02  mag=     0.0000
quench:  g(F)=  0.000E+00 g(S)=  0.000E+00 dE (1.order)= 0.000E+00
 bond charge predicted
       N       E                     dE             d eps       ncg     rms          rms(c)
DAV:   1    -0.850410612031E+03   -0.87532E-03   -0.34097E+00  4740   0.251E+00    0.290E-01
DAV:   2    -0.850415322827E+03   -0.47108E-02   -0.57812E-02  5020   0.314E-01    0.196E-01
DAV:   3    -0.850415069680E+03    0.25315E-03   -0.59790E-04  5600   0.365E-02    0.157E-01
DAV:   4    -0.850415345752E+03   -0.27607E-03   -0.16312E-03  5340   0.650E-02    0.299E-02
DAV:   5    -0.850415413524E+03   -0.67773E-04   -0.37719E-04  5340   0.217E-02    0.281E-02
DAV:   6    -0.850415418679E+03   -0.51542E-05   -0.20018E-05  4600   0.132E-02    0.170E-02
DAV:   7    -0.850415421322E+03   -0.26437E-05   -0.23296E-05  5100   0.107E-02    0.730E-03
DAV:   8    -0.850415420722E+03    0.60060E-06   -0.82442E-06  5320   0.883E-03
   9 F= -.85836348E+03 E0= -.85836348E+03  d E =-.539202E-02  mag=     0.0000
quench:  g(F)=  0.000E+00 g(S)=  0.000E+00 dE (1.order)= 0.000E+00
 bond charge predicted
       N       E                     dE             d eps       ncg     rms          rms(c)
DAV:   1    -0.850414011142E+03    0.14102E-02   -0.53299E+00  4720   0.292E+00    0.365E-01
DAV:   2    -0.850421599971E+03   -0.75888E-02   -0.91312E-02  4980   0.359E-01    0.239E-01
DAV:   3    -0.850421209011E+03    0.39096E-03   -0.93204E-04  5560   0.423E-02    0.191E-01
DAV:   4    -0.850421508215E+03   -0.29920E-03   -0.24594E-03  5420   0.755E-02    0.366E-02
DAV:   5    -0.850421615980E+03   -0.10777E-03   -0.57067E-04  5340   0.247E-02    0.350E-02
DAV:   6    -0.850421614070E+03    0.19103E-05   -0.30481E-05  4700   0.153E-02    0.209E-02
DAV:   7    -0.850421619597E+03   -0.55265E-05   -0.36021E-05  5040   0.127E-02    0.856E-03
DAV:   8    -0.850421618858E+03    0.73834E-06   -0.13656E-05  5700   0.108E-02    0.225E-03
DAV:   9    -0.850421619165E+03   -0.30709E-06   -0.20565E-06  3940   0.298E-03
  10 F= -.85836928E+03 E0= -.85836928E+03  d E =-.579523E-02  mag=     0.0000
quench:  g(F)=  0.000E+00 g(S)=  0.000E+00 dE (1.order)= 0.000E+00
 bond charge predicted
       N       E                     dE             d eps       ncg     rms          rms(c)
DAV:   1    -0.850416820656E+03    0.47982E-02   -0.79628E+00  4740   0.333E+00    0.452E-01
DAV:   2    -0.850428537309E+03   -0.11717E-01   -0.13951E-01  4980   0.397E-01    0.288E-01
DAV:   3    -0.850427973516E+03    0.56379E-03   -0.13695E-03  5600   0.492E-02    0.230E-01
DAV:   4    -0.850428374903E+03   -0.40139E-03   -0.39749E-03  5440   0.936E-02    0.466E-02
DAV:   5    -0.850428507877E+03   -0.13297E-03   -0.87114E-04  5320   0.296E-02    0.495E-02
DAV:   6    -0.850428507853E+03    0.23545E-07   -0.79982E-05  4820   0.188E-02    0.274E-02
DAV:   7    -0.850428512473E+03   -0.46193E-05   -0.66808E-05  4980   0.162E-02    0.150E-02
DAV:   8    -0.850428508608E+03    0.38643E-05   -0.27266E-05  5930   0.108E-02    0.346E-03
DAV:   9    -0.850428508870E+03   -0.26213E-06   -0.41154E-06  4180   0.329E-03
  11 F= -.85837560E+03 E0= -.85837560E+03  d E =-.631920E-02  mag=     0.0000
quench:  g(F)=  0.000E+00 g(S)=  0.000E+00 dE (1.order)= 0.000E+00
 bond charge predicted
       N       E                     dE             d eps       ncg     rms          rms(c)
DAV:   1    -0.850417959631E+03    0.10549E-01   -0.11472E+01  4760   0.387E+00    0.554E-01
DAV:   2    -0.850435751096E+03   -0.17791E-01   -0.20889E-01  4980   0.458E-01    0.345E-01
DAV:   3    -0.850434913082E+03    0.83801E-03   -0.20301E-03  5640   0.586E-02    0.275E-01
DAV:   4    -0.850435370409E+03   -0.45733E-03   -0.59303E-03  5460   0.112E-01    0.614E-02
DAV:   5    -0.850435569351E+03   -0.19894E-03   -0.12716E-03  5360   0.355E-02    0.661E-02
DAV:   6    -0.850435548381E+03    0.20970E-04   -0.18601E-04  5020   0.242E-02    0.332E-02
DAV:   7    -0.850435558393E+03   -0.10012E-04   -0.12632E-04  4980   0.200E-02    0.218E-02
DAV:   8    -0.850435549156E+03    0.92365E-05   -0.55541E-05  6100   0.134E-02    0.480E-03
DAV:   9    -0.850435549595E+03   -0.43838E-06   -0.71982E-06  4180   0.409E-03
  12 F= -.85838188E+03 E0= -.85838188E+03  d E =-.628131E-02  mag=     0.0000
quench:  g(F)=  0.000E+00 g(S)=  0.000E+00 dE (1.order)= 0.000E+00
 bond charge predicted
       N       E                     dE             d eps       ncg     rms          rms(c)
DAV:   1    -0.850417019062E+03    0.18530E-01   -0.14979E+01  4720   0.450E+00    0.652E-01
DAV:   2    -0.850441306604E+03   -0.24288E-01   -0.28434E-01  5000   0.540E-01    0.397E-01
DAV:   3    -0.850440197670E+03    0.11089E-02   -0.29294E-03  5700   0.734E-02    0.315E-01
DAV:   4    -0.850440585345E+03   -0.38768E-03   -0.71458E-03  5120   0.128E-01    0.737E-02
DAV:   5    -0.850440904341E+03   -0.31900E-03   -0.16469E-03  5280   0.427E-02    0.744E-02
DAV:   6    -0.850440893744E+03    0.10597E-04   -0.31733E-04  5080   0.314E-02    0.343E-02
DAV:   7    -0.850440910508E+03   -0.16764E-04   -0.12794E-04  5180   0.195E-02    0.252E-02
DAV:   8    -0.850440897559E+03    0.12949E-04   -0.73312E-05  5980   0.155E-02    0.697E-03
DAV:   9    -0.850440899116E+03   -0.15564E-05   -0.89275E-06  4240   0.461E-03    0.329E-03
DAV:  10    -0.850440898998E+03    0.11751E-06   -0.60640E-07  3820   0.162E-03
  13 F= -.85838638E+03 E0= -.85838638E+03  d E =-.449689E-02  mag=     0.0000
quench:  g(F)=  0.000E+00 g(S)=  0.000E+00 dE (1.order)= 0.000E+00
 bond charge predicted
       N       E                     dE             d eps       ncg     rms          rms(c)
DAV:   1    -0.850409048621E+03    0.31850E-01   -0.17924E+01  4720   0.538E+00    0.724E-01
DAV:   2    -0.850439600824E+03   -0.30552E-01   -0.35424E-01  5100   0.672E-01    0.469E-01
DAV:   3    -0.850437926035E+03    0.16748E-02   -0.42717E-03  5900   0.102E-01    0.373E-01
DAV:   4    -0.850437792017E+03    0.13402E-03   -0.99241E-03  5340   0.168E-01    0.108E-01
DAV:   5    -0.850438134837E+03   -0.34282E-03   -0.21742E-03  5220   0.581E-02    0.970E-02
DAV:   6    -0.850438144813E+03   -0.99762E-05   -0.12481E-03  5120   0.551E-02    0.381E-02
DAV:   7    -0.850438142254E+03    0.25591E-05   -0.10352E-04  5140   0.167E-02    0.297E-02
DAV:   8    -0.850438135959E+03    0.62946E-05   -0.67573E-05  4660   0.137E-02    0.115E-02
DAV:   9    -0.850438141258E+03   -0.52988E-05   -0.23914E-05  4840   0.668E-03    0.960E-03
DAV:  10    -0.850438139800E+03    0.14583E-05   -0.72099E-06  4580   0.556E-03    0.261E-03
DAV:  11    -0.850438139933E+03   -0.13335E-06   -0.13869E-06  3720   0.208E-03
  14 F= -.85838250E+03 E0= -.85838250E+03  d E =0.387441E-02  mag=     0.0000
quench:  g(F)=  0.000E+00 g(S)=  0.000E+00 dE (1.order)= 0.000E+00
 bond charge predicted
       N       E                     dE             d eps       ncg     rms          rms(c)
DAV:   1    -0.850446531473E+03   -0.83917E-02   -0.47937E-01  4660   0.140E+00    0.159E-01
DAV:   2    -0.850447382435E+03   -0.85096E-03   -0.12193E-02  5660   0.202E-01    0.141E-01
DAV:   3    -0.850447138216E+03    0.24422E-03   -0.61114E-04  6200   0.459E-02    0.104E-01
DAV:   4    -0.850446952142E+03    0.18607E-03   -0.38429E-04  5080   0.418E-02    0.469E-02
DAV:   5    -0.850446939609E+03    0.12533E-04   -0.12473E-04  5080   0.202E-02    0.171E-02
DAV:   6    -0.850446941219E+03   -0.16096E-05   -0.12067E-05  5420   0.644E-03    0.768E-03
DAV:   7    -0.850446940448E+03    0.77127E-06   -0.15335E-06  3540   0.300E-03
  15 F= -.85839136E+03 E0= -.85839136E+03  d E =-.885886E-02  mag=     0.0000
quench:  g(F)=  0.000E+00 g(S)=  0.000E+00 dE (1.order)= 0.000E+00
 bond charge predicted
       N       E                     dE             d eps       ncg     rms          rms(c)
DAV:   1    -0.850446977868E+03   -0.36649E-04   -0.40439E-04  4780   0.417E-02    0.439E-03
DAV:   2    -0.850446978572E+03   -0.70390E-06   -0.98057E-06  5420   0.607E-03
  16 F= -.85839140E+03 E0= -.85839140E+03  d E =-.398434E-04  mag=     0.0000
quench:  g(F)=  0.000E+00 g(S)=  0.000E+00 dE (1.order)= 0.000E+00
 bond charge predicted
       N       E                     dE             d eps       ncg     rms          rms(c)
DAV:   1    -0.850447036338E+03   -0.58469E-04   -0.15070E-03  4760   0.803E-02    0.883E-03
DAV:   2    -0.850447038773E+03   -0.24357E-05   -0.35945E-05  5580   0.116E-02    0.717E-03
DAV:   3    -0.850447038384E+03    0.38879E-06   -0.74875E-07  3120   0.196E-03
  17 F= -.85839146E+03 E0= -.85839146E+03  d E =-.630479E-04  mag=    -0.0000
quench:  g(F)=  0.000E+00 g(S)=  0.000E+00 dE (1.order)= 0.000E+00
 bond charge predicted
       N       E                     dE             d eps       ncg     rms          rms(c)
DAV:   1    -0.850447099404E+03   -0.60631E-04   -0.29735E-03  4720   0.112E-01    0.105E-02
DAV:   2    -0.850447104782E+03   -0.53770E-05   -0.66751E-05  5400   0.155E-02    0.779E-03
DAV:   3    -0.850447104548E+03    0.23380E-06   -0.85862E-07  3600   0.212E-03
  18 F= -.85839153E+03 E0= -.85839153E+03  d E =-.701246E-04  mag=    -0.0000
quench:  g(F)=  0.000E+00 g(S)=  0.000E+00 dE (1.order)= 0.000E+00
 bond charge predicted
       N       E                     dE             d eps       ncg     rms          rms(c)
DAV:   1    -0.850447169455E+03   -0.64673E-04   -0.46510E-03  4720   0.138E-01    0.123E-02
DAV:   2    -0.850447177916E+03   -0.84611E-05   -0.10288E-04  5300   0.191E-02    0.851E-03
DAV:   3    -0.850447177736E+03    0.18027E-06   -0.11159E-06  3860   0.237E-03
  19 F= -.85839161E+03 E0= -.85839161E+03  d E =-.765793E-04  mag=    -0.0000
quench:  g(F)=  0.000E+00 g(S)=  0.000E+00 dE (1.order)= 0.000E+00
 bond charge predicted
       N       E                     dE             d eps       ncg     rms          rms(c)
DAV:   1    -0.850447261713E+03   -0.83797E-04   -0.64474E-03  4720   0.161E-01    0.141E-02
DAV:   2    -0.850447273211E+03   -0.11497E-04   -0.14014E-04  4940   0.220E-02    0.945E-03
DAV:   3    -0.850447273078E+03    0.13310E-06   -0.13252E-06  4280   0.256E-03
  20 F= -.85839171E+03 E0= -.85839171E+03  d E =-.969508E-04  mag=     0.0000
quench:  g(F)=  0.000E+00 g(S)=  0.000E+00 dE (1.order)= 0.000E+00
 bond charge predicted
       N       E                     dE             d eps       ncg     rms          rms(c)
DAV:   1    -0.850447383644E+03   -0.11043E-03   -0.85583E-03  4720   0.185E-01    0.162E-02
DAV:   2    -0.850447398700E+03   -0.15056E-04   -0.18506E-04  4780   0.252E-02    0.108E-02
DAV:   3    -0.850447398546E+03    0.15464E-06   -0.17928E-06  4560   0.289E-03
  21 F= -.85839183E+03 E0= -.85839183E+03  d E =-.124831E-03  mag=     0.0000
quench:  g(F)=  0.000E+00 g(S)=  0.000E+00 dE (1.order)= 0.000E+00
 bond charge predicted
       N       E                     dE             d eps       ncg     rms          rms(c)
DAV:   1    -0.850447540212E+03   -0.14151E-03   -0.14018E-02  4720   0.237E-01    0.208E-02
DAV:   2    -0.850447565011E+03   -0.24800E-04   -0.30566E-04  4700   0.324E-02    0.140E-02
DAV:   3    -0.850447564655E+03    0.35591E-06   -0.33045E-06  5160   0.377E-03
  22 F= -.85839199E+03 E0= -.85839199E+03  d E =-.162607E-03  mag=    -0.0000
quench:  g(F)=  0.000E+00 g(S)=  0.000E+00 dE (1.order)= 0.000E+00
 bond charge predicted
       N       E                     dE             d eps       ncg     rms          rms(c)
DAV:   1    -0.850447723404E+03   -0.15839E-03   -0.22587E-02  4720   0.300E-01    0.269E-02
DAV:   2    -0.850447763293E+03   -0.39889E-04   -0.49224E-04  4680   0.410E-02    0.181E-02
DAV:   3    -0.850447762839E+03    0.45382E-06   -0.54641E-06  5560   0.479E-03
  23 F= -.85839219E+03 E0= -.85839219E+03  d E =-.192698E-03  mag=     0.0000
quench:  g(F)=  0.000E+00 g(S)=  0.000E+00 dE (1.order)= 0.000E+00
 bond charge predicted
       N       E                     dE             d eps       ncg     rms          rms(c)
DAV:   1    -0.850447944328E+03   -0.18104E-03   -0.35431E-02  4720   0.372E-01    0.338E-02
DAV:   2    -0.850448006403E+03   -0.62075E-04   -0.76777E-04  4640   0.509E-02    0.225E-02
DAV:   3    -0.850448006160E+03    0.24366E-06   -0.80283E-06  5700   0.580E-03
  24 F= -.85839242E+03 E0= -.85839242E+03  d E =-.236747E-03  mag=     0.0000
quench:  g(F)=  0.000E+00 g(S)=  0.000E+00 dE (1.order)= 0.000E+00
 bond charge predicted
       N       E                     dE             d eps       ncg     rms          rms(c)
DAV:   1    -0.850448220511E+03   -0.21411E-03   -0.54440E-02  4720   0.458E-01    0.420E-02
DAV:   2    -0.850448315563E+03   -0.95052E-04   -0.11744E-03  4640   0.624E-02    0.277E-02
DAV:   3    -0.850448315357E+03    0.20579E-06   -0.12088E-05  5680   0.705E-03    0.217E-02
DAV:   4    -0.850448328862E+03   -0.13505E-04   -0.13683E-05  4420   0.867E-03    0.497E-03
DAV:   5    -0.850448330309E+03   -0.14476E-05   -0.38676E-06  4670   0.354E-03    0.342E-03
DAV:   6    -0.850448330205E+03    0.10457E-06   -0.75390E-07  3530   0.206E-03
  25 F= -.85839274E+03 E0= -.85839274E+03  d E =-.318803E-03  mag=     0.0000
quench:  g(F)=  0.000E+00 g(S)=  0.000E+00 dE (1.order)= 0.000E+00
 bond charge predicted
       N       E                     dE             d eps       ncg     rms          rms(c)
DAV:   1    -0.850448502085E+03   -0.17178E-03   -0.85237E-02  4740   0.570E-01    0.502E-02
DAV:   2    -0.850448664525E+03   -0.16244E-03   -0.19283E-03  4640   0.793E-02    0.320E-02
DAV:   3    -0.850448661989E+03    0.25356E-05   -0.19015E-05  5560   0.884E-03    0.252E-02
DAV:   4    -0.850448676079E+03   -0.14090E-04   -0.25986E-05  4480   0.115E-02    0.610E-03
DAV:   5    -0.850448677932E+03   -0.18527E-05   -0.64719E-06  5330   0.449E-03    0.453E-03
DAV:   6    -0.850448677851E+03    0.80719E-07   -0.14823E-06  3690   0.288E-03
  26 F= -.85839309E+03 E0= -.85839309E+03  d E =-.346672E-03  mag=    -0.0000
quench:  g(F)=  0.000E+00 g(S)=  0.000E+00 dE (1.order)= 0.000E+00
 bond charge predicted
       N       E                     dE             d eps       ncg     rms          rms(c)
DAV:   1    -0.850448816455E+03   -0.13852E-03   -0.11654E-01  4740   0.655E-01    0.605E-02
DAV:   2    -0.850449032903E+03   -0.21645E-03   -0.26109E-03  4640   0.909E-02    0.383E-02
DAV:   3    -0.850449029596E+03    0.33072E-05   -0.26000E-05  5440   0.103E-02    0.300E-02
DAV:   4    -0.850449051126E+03   -0.21530E-04   -0.38063E-05  4560   0.136E-02    0.699E-03
DAV:   5    -0.850449053432E+03   -0.23060E-05   -0.89768E-06  5440   0.522E-03    0.535E-03
DAV:   6    -0.850449053263E+03    0.16901E-06   -0.20639E-06  3820   0.341E-03
  27 F= -.85839346E+03 E0= -.85839346E+03  d E =-.372725E-03  mag=    -0.0000
quench:  g(F)=  0.000E+00 g(S)=  0.000E+00 dE (1.order)= 0.000E+00
 bond charge predicted
       N       E                     dE             d eps       ncg     rms          rms(c)
DAV:   1    -0.850449226318E+03   -0.17289E-03   -0.15688E-01  4740   0.744E-01    0.722E-02
DAV:   2    -0.850449508288E+03   -0.28197E-03   -0.34706E-03  4640   0.103E-01    0.460E-02
DAV:   3    -0.850449503932E+03    0.43554E-05   -0.36415E-05  5460   0.120E-02    0.359E-02
DAV:   4    -0.850449534664E+03   -0.30731E-04   -0.57442E-05  4600   0.162E-02    0.844E-03
DAV:   5    -0.850449537693E+03   -0.30292E-05   -0.12996E-05  5260   0.618E-03    0.661E-03
DAV:   6    -0.850449537425E+03    0.26774E-06   -0.33547E-06  4120   0.423E-03
  28 F= -.85839393E+03 E0= -.85839393E+03  d E =-.467743E-03  mag=     0.0000
quench:  g(F)=  0.000E+00 g(S)=  0.000E+00 dE (1.order)= 0.000E+00
 bond charge predicted
       N       E                     dE             d eps       ncg     rms          rms(c)
DAV:   1    -0.850449718452E+03   -0.18076E-03   -0.22145E-01  4740   0.866E-01    0.881E-02
DAV:   2    -0.850450111069E+03   -0.39262E-03   -0.48623E-03  4640   0.119E-01    0.560E-02
DAV:   3    -0.850450103551E+03    0.75178E-05   -0.51927E-05  5480   0.142E-02    0.435E-02
DAV:   4    -0.850450148540E+03   -0.44990E-04   -0.86982E-05  4680   0.194E-02    0.102E-02
DAV:   5    -0.850450152245E+03   -0.37041E-05   -0.18738E-05  5280   0.737E-03    0.820E-03
DAV:   6    -0.850450151878E+03    0.36627E-06   -0.54873E-06  4280   0.533E-03
  29 F= -.85839451E+03 E0= -.85839451E+03  d E =-.579471E-03  mag=    -0.0000
quench:  g(F)=  0.000E+00 g(S)=  0.000E+00 dE (1.order)= 0.000E+00
 bond charge predicted
       N       E                     dE             d eps       ncg     rms          rms(c)
DAV:   1    -0.850450293674E+03   -0.14143E-03   -0.31564E-01  4740   0.101E+00    0.108E-01
DAV:   2    -0.850450851813E+03   -0.55814E-03   -0.69106E-03  4660   0.139E-01    0.683E-02
DAV:   3    -0.850450840929E+03    0.10883E-04   -0.75833E-05  5600   0.169E-02    0.529E-02
DAV:   4    -0.850450901669E+03   -0.60739E-04   -0.13050E-04  4860   0.231E-02    0.125E-02
DAV:   5    -0.850450906695E+03   -0.50265E-05   -0.27216E-05  5300   0.872E-03    0.101E-02
DAV:   6    -0.850450906149E+03    0.54634E-06   -0.89727E-06  4440   0.653E-03
  30 F= -.85839521E+03 E0= -.85839521E+03  d E =-.701797E-03  mag=    -0.0000
quench:  g(F)=  0.000E+00 g(S)=  0.000E+00 dE (1.order)= 0.000E+00
 bond charge predicted
       N       E                     dE             d eps       ncg     rms          rms(c)
DAV:   1    -0.850450947655E+03   -0.40960E-04   -0.44548E-01  4780   0.117E+00    0.130E-01
DAV:   2    -0.850451726599E+03   -0.77894E-03   -0.96818E-03  4680   0.159E-01    0.827E-02
DAV:   3    -0.850451711380E+03    0.15220E-04   -0.10632E-04  5500   0.199E-02    0.639E-02
DAV:   4    -0.850451798886E+03   -0.87507E-04   -0.19980E-04  5140   0.274E-02    0.149E-02
DAV:   5    -0.850451804668E+03   -0.57822E-05   -0.38461E-05  5320   0.102E-02    0.123E-02
DAV:   6    -0.850451803703E+03    0.96572E-06   -0.14655E-05  4560   0.762E-03    0.509E-03
DAV:   7    -0.850451803986E+03   -0.28373E-06   -0.23466E-06  4080   0.283E-03
  31 F= -.85839604E+03 E0= -.85839604E+03  d E =-.832388E-03  mag=     0.0000
quench:  g(F)=  0.000E+00 g(S)=  0.000E+00 dE (1.order)= 0.000E+00
 bond charge predicted
       N       E                     dE             d eps       ncg     rms          rms(c)
DAV:   1    -0.850451774698E+03    0.29005E-04   -0.62900E-01  4780   0.137E+00    0.158E-01
DAV:   2    -0.850452870151E+03   -0.10955E-02   -0.13605E-02  4680   0.185E-01    0.100E-01
DAV:   3    -0.850452846673E+03    0.23478E-04   -0.15159E-04  5580   0.236E-02    0.770E-02
DAV:   4    -0.850452965000E+03   -0.11833E-03   -0.30489E-04  5240   0.326E-02    0.183E-02
DAV:   5    -0.850452971921E+03   -0.69208E-05   -0.56091E-05  5240   0.120E-02    0.153E-02
DAV:   6    -0.850452970140E+03    0.17809E-05   -0.25037E-05  4520   0.876E-03    0.608E-03
DAV:   7    -0.850452970461E+03   -0.32038E-06   -0.30480E-06  4440   0.305E-03
  32 F= -.85839712E+03 E0= -.85839712E+03  d E =-.107504E-02  mag=     0.0000
quench:  g(F)=  0.000E+00 g(S)=  0.000E+00 dE (1.order)= 0.000E+00
 bond charge predicted
       N       E                     dE             d eps       ncg     rms          rms(c)
DAV:   1    -0.850452680255E+03    0.28989E-03   -0.94497E-01  4780   0.165E+00    0.197E-01
DAV:   2    -0.850454350378E+03   -0.16701E-02   -0.20614E-02  4760   0.223E-01    0.124E-01
DAV:   3    -0.850454313290E+03    0.37088E-04   -0.23493E-04  5640   0.288E-02    0.950E-02
DAV:   4    -0.850454472691E+03   -0.15940E-03   -0.43683E-04  5320   0.387E-02    0.223E-02
DAV:   5    -0.850454486834E+03   -0.14143E-04   -0.84386E-05  5240   0.144E-02    0.180E-02
DAV:   6    -0.850454483675E+03    0.31594E-05   -0.32049E-05  4600   0.101E-02    0.745E-03
DAV:   7    -0.850454484047E+03   -0.37196E-06   -0.43421E-06  4840   0.361E-03
  33 F= -.85839849E+03 E0= -.85839849E+03  d E =-.137478E-02  mag=    -0.0000
quench:  g(F)=  0.000E+00 g(S)=  0.000E+00 dE (1.order)= 0.000E+00
 bond charge predicted
       N       E                     dE             d eps       ncg     rms          rms(c)
DAV:   1    -0.850453663102E+03    0.82057E-03   -0.13818E+00  4740   0.198E+00    0.241E-01
DAV:   2    -0.850456148024E+03   -0.24849E-02   -0.30237E-02  4820   0.267E-01    0.152E-01
DAV:   3    -0.850456085686E+03    0.62338E-04   -0.34688E-04  5660   0.349E-02    0.116E-01
DAV:   4    -0.850456301322E+03   -0.21564E-03   -0.67317E-04  5300   0.475E-02    0.280E-02
DAV:   5    -0.850456317917E+03   -0.16596E-04   -0.12517E-04  5240   0.176E-02    0.230E-02
DAV:   6    -0.850456313115E+03    0.48026E-05   -0.60228E-05  4660   0.132E-02    0.910E-03
DAV:   7    -0.850456313521E+03   -0.40663E-06   -0.65805E-06  5380   0.430E-03
  34 F= -.85840012E+03 E0= -.85840012E+03  d E =-.162842E-02  mag=    -0.0000
quench:  g(F)=  0.000E+00 g(S)=  0.000E+00 dE (1.order)= 0.000E+00
 bond charge predicted
       N       E                     dE             d eps       ncg     rms          rms(c)
DAV:   1    -0.850454084272E+03    0.22288E-02   -0.20211E+00  4720   0.240E+00    0.295E-01
DAV:   2    -0.850457801346E+03   -0.37171E-02   -0.44915E-02  4840   0.326E-01    0.189E-01
DAV:   3    -0.850457683108E+03    0.11824E-03   -0.57062E-04  5740   0.447E-02    0.145E-01
DAV:   4    -0.850457931546E+03   -0.24844E-03   -0.10283E-03  5140   0.600E-02    0.372E-02
DAV:   5    -0.850457961668E+03   -0.30121E-04   -0.20401E-04  5260   0.226E-02    0.288E-02
DAV:   6    -0.850457955775E+03    0.58930E-05   -0.88565E-05  4980   0.157E-02    0.114E-02
DAV:   7    -0.850457956445E+03   -0.67075E-06   -0.91291E-06  5500   0.507E-03
  35 F= -.85840149E+03 E0= -.85840149E+03  d E =-.136831E-02  mag=     0.0000
quench:  g(F)=  0.000E+00 g(S)=  0.000E+00 dE (1.order)= 0.000E+00
 bond charge predicted
       N       E                     dE             d eps       ncg     rms          rms(c)
DAV:   1    -0.850449823304E+03    0.81325E-02   -0.30885E+00  4720   0.312E+00    0.372E-01
DAV:   2    -0.850455680229E+03   -0.58569E-02   -0.71327E-02  5120   0.432E-01    0.255E-01
DAV:   3    -0.850455324938E+03    0.35529E-03   -0.12994E-03  5960   0.675E-02    0.195E-01
DAV:   4    -0.850455380022E+03   -0.55084E-04   -0.16632E-03  5060   0.827E-02    0.606E-02
DAV:   5    -0.850455467085E+03   -0.87063E-04   -0.38642E-04  5260   0.326E-02    0.373E-02
DAV:   6    -0.850455466232E+03    0.85271E-06   -0.13759E-04  5020   0.200E-02    0.151E-02
DAV:   7    -0.850455466132E+03    0.10006E-06   -0.13448E-05  5400   0.666E-03    0.113E-02
DAV:   8    -0.850455465608E+03    0.52420E-06   -0.92932E-06  4540   0.620E-03
  36 F= -.85839865E+03 E0= -.85839865E+03  d E =0.284368E-02  mag=    -0.0000
quench:  g(F)=  0.000E+00 g(S)=  0.000E+00 dE (1.order)= 0.000E+00
 bond charge predicted
       N       E                     dE             d eps       ncg     rms          rms(c)
DAV:   1    -0.850460694806E+03   -0.52287E-02   -0.37471E-01  4720   0.123E+00    0.139E-01
DAV:   2    -0.850461352190E+03   -0.65738E-03   -0.93589E-03  5640   0.174E-01    0.125E-01
DAV:   3    -0.850461159502E+03    0.19269E-03   -0.44408E-04  6240   0.382E-02    0.923E-02
DAV:   4    -0.850461003330E+03    0.15617E-03   -0.31667E-04  4940   0.379E-02    0.389E-02
DAV:   5    -0.850460995108E+03    0.82217E-05   -0.97968E-05  5180   0.172E-02    0.138E-02
DAV:   6    -0.850460996398E+03   -0.12900E-05   -0.76629E-06  5280   0.528E-03    0.649E-03
DAV:   7    -0.850460995921E+03    0.47746E-06   -0.11095E-06  3340   0.245E-03
  37 F= -.85840418E+03 E0= -.85840418E+03  d E =-.552996E-02  mag=     0.0000
quench:  g(F)=  0.000E+00 g(S)=  0.000E+00 dE (1.order)= 0.000E+00
 bond charge predicted
       N       E                     dE             d eps       ncg     rms          rms(c)
DAV:   1    -0.850461082269E+03   -0.85871E-04   -0.74745E-04  4720   0.561E-02    0.645E-03
DAV:   2    -0.850461083344E+03   -0.10743E-05   -0.17868E-05  5780   0.796E-03    0.585E-03
DAV:   3    -0.850461082912E+03    0.43115E-06   -0.73064E-07  2600   0.180E-03
  38 F= -.85840426E+03 E0= -.85840426E+03  d E =-.874461E-04  mag=    -0.0000
quench:  g(F)=  0.000E+00 g(S)=  0.000E+00 dE (1.order)= 0.000E+00
 bond charge predicted
       N       E                     dE             d eps       ncg     rms          rms(c)
DAV:   1    -0.850461174200E+03   -0.90856E-04   -0.23445E-03  4640   0.998E-02    0.116E-02
DAV:   2    -0.850461178114E+03   -0.39140E-05   -0.55580E-05  5800   0.140E-02    0.102E-02
DAV:   3    -0.850461177077E+03    0.10368E-05   -0.20352E-06  3640   0.286E-03    0.771E-03
DAV:   4    -0.850461176353E+03    0.72410E-06   -0.35277E-06  4460   0.387E-03
  39 F= -.85840436E+03 E0= -.85840436E+03  d E =-.937869E-04  mag=     0.0000
quench:  g(F)=  0.000E+00 g(S)=  0.000E+00 dE (1.order)= 0.000E+00
 bond charge predicted
       N       E                     dE             d eps       ncg     rms          rms(c)
DAV:   1    -0.850461207181E+03   -0.30104E-04   -0.34803E-03  4680   0.122E-01    0.131E-02
DAV:   2    -0.850461213528E+03   -0.63466E-05   -0.84302E-05  5640   0.174E-02    0.112E-02
DAV:   3    -0.850461212440E+03    0.10875E-05   -0.27210E-06  4200   0.324E-03    0.864E-03
DAV:   4    -0.850461211733E+03    0.70708E-06   -0.39703E-06  4380   0.413E-03
  40 F= -.85840439E+03 E0= -.85840439E+03  d E =-.341331E-04  mag=     0.0000
quench:  g(F)=  0.000E+00 g(S)=  0.000E+00 dE (1.order)= 0.000E+00
 bond charge predicted
       N       E                     dE             d eps       ncg     rms          rms(c)
DAV:   1    -0.850461218185E+03   -0.57447E-05   -0.12781E-05  4780   0.718E-03    0.219E-03
DAV:   2    -0.850461218197E+03   -0.12034E-07   -0.35079E-07  2640   0.117E-03
  41 F= -.85840440E+03 E0= -.85840440E+03  d E =-.603766E-05  mag=    -0.0000
quench:  g(F)=  0.000E+00 g(S)=  0.000E+00 dE (1.order)= 0.000E+00
 bond charge predicted
       N       E                     dE             d eps       ncg     rms          rms(c)
DAV:   1    -0.850461230680E+03   -0.12495E-04   -0.45857E-05  4720   0.134E-02    0.216E-03
DAV:   2    -0.850461230740E+03   -0.59757E-07   -0.10019E-06  2860   0.191E-03
  42 F= -.85840441E+03 E0= -.85840441E+03  d E =-.116199E-04  mag=     0.0000
quench:  g(F)=  0.000E+00 g(S)=  0.000E+00 dE (1.order)= 0.000E+00
 bond charge predicted
       N       E                     dE             d eps       ncg     rms          rms(c)
DAV:   1    -0.850461248178E+03   -0.17498E-04   -0.10048E-04  4640   0.196E-02    0.314E-03
DAV:   2    -0.850461248275E+03   -0.97345E-07   -0.21733E-06  3470   0.278E-03
  43 F= -.85840443E+03 E0= -.85840443E+03  d E =-.160893E-04  mag=     0.0000
quench:  g(F)=  0.000E+00 g(S)=  0.000E+00 dE (1.order)= 0.000E+00
 bond charge predicted
       N       E                     dE             d eps       ncg     rms          rms(c)
DAV:   1    -0.850461269697E+03   -0.21519E-04   -0.16965E-04  4640   0.252E-02    0.420E-03
DAV:   2    -0.850461269865E+03   -0.16789E-06   -0.37898E-06  4270   0.354E-03
  44 F= -.85840445E+03 E0= -.85840445E+03  d E =-.195167E-04  mag=    -0.0000
quench:  g(F)=  0.000E+00 g(S)=  0.000E+00 dE (1.order)= 0.000E+00
 bond charge predicted
       N       E                     dE             d eps       ncg     rms          rms(c)
DAV:   1    -0.850461294316E+03   -0.24619E-04   -0.25057E-04  4720   0.300E-02    0.526E-03
DAV:   2    -0.850461294527E+03   -0.21111E-06   -0.52754E-06  4700   0.409E-03
  45 F= -.85840447E+03 E0= -.85840447E+03  d E =-.219783E-04  mag=    -0.0000
quench:  g(F)=  0.000E+00 g(S)=  0.000E+00 dE (1.order)= 0.000E+00
 bond charge predicted
       N       E                     dE             d eps       ncg     rms          rms(c)
DAV:   1    -0.850461321366E+03   -0.27050E-04   -0.33379E-04  4720   0.341E-02    0.614E-03
DAV:   2    -0.850461321639E+03   -0.27334E-06   -0.69146E-06  5020   0.459E-03
  46 F= -.85840449E+03 E0= -.85840449E+03  d E =-.238005E-04  mag=     0.0000
quench:  g(F)=  0.000E+00 g(S)=  0.000E+00 dE (1.order)= 0.000E+00
 bond charge predicted
       N       E                     dE             d eps       ncg     rms          rms(c)
DAV:   1    -0.850461355140E+03   -0.33774E-04   -0.52407E-04  4720   0.420E-02    0.739E-03
DAV:   2    -0.850461355596E+03   -0.45652E-06   -0.10719E-05  4960   0.562E-03    0.576E-03
DAV:   3    -0.850461355652E+03   -0.55319E-07   -0.31336E-07  2960   0.124E-03
  47 F= -.85840452E+03 E0= -.85840452E+03  d E =-.296324E-04  mag=     0.0000
quench:  g(F)=  0.000E+00 g(S)=  0.000E+00 dE (1.order)= 0.000E+00
 bond charge predicted
       N       E                     dE             d eps       ncg     rms          rms(c)
DAV:   1    -0.850461398213E+03   -0.42617E-04   -0.80193E-04  4720   0.509E-02    0.641E-03
DAV:   2    -0.850461399339E+03   -0.11258E-05   -0.16035E-05  4700   0.666E-03    0.443E-03
DAV:   3    -0.850461399370E+03   -0.30646E-07   -0.21161E-07  2980   0.990E-04
  48 F= -.85840456E+03 E0= -.85840456E+03  d E =-.378603E-04  mag=     0.0000
quench:  g(F)=  0.000E+00 g(S)=  0.000E+00 dE (1.order)= 0.000E+00
 bond charge predicted
       N       E                     dE             d eps       ncg     rms          rms(c)
DAV:   1    -0.850461455832E+03   -0.56493E-04   -0.12740E-03  4720   0.621E-02    0.801E-03
DAV:   2    -0.850461457646E+03   -0.18143E-05   -0.25832E-05  4680   0.815E-03    0.540E-03
DAV:   3    -0.850461457683E+03   -0.36307E-07   -0.35415E-07  3450   0.122E-03
  49 F= -.85840461E+03 E0= -.85840461E+03  d E =-.503732E-04  mag=     0.0000
quench:  g(F)=  0.000E+00 g(S)=  0.000E+00 dE (1.order)= 0.000E+00
 bond charge predicted
       N       E                     dE             d eps       ncg     rms          rms(c)
DAV:   1    -0.850461532336E+03   -0.74690E-04   -0.20289E-03  4720   0.767E-02    0.103E-02
DAV:   2    -0.850461535147E+03   -0.28109E-05   -0.40862E-05  4700   0.100E-02    0.686E-03
DAV:   3    -0.850461535238E+03   -0.90506E-07   -0.57049E-07  3600   0.153E-03
  50 F= -.85840468E+03 E0= -.85840468E+03  d E =-.669951E-04  mag=    -0.0000
quench:  g(F)=  0.000E+00 g(S)=  0.000E+00 dE (1.order)= 0.000E+00
 bond charge predicted
       N       E                     dE             d eps       ncg     rms          rms(c)
DAV:   1    -0.850461629827E+03   -0.94680E-04   -0.32247E-03  4720   0.953E-02    0.131E-02
DAV:   2    -0.850461634320E+03   -0.44935E-05   -0.64814E-05  4700   0.124E-02    0.869E-03
DAV:   3    -0.850461634438E+03   -0.11809E-06   -0.91742E-07  3860   0.192E-03
  51 F= -.85840476E+03 E0= -.85840476E+03  d E =-.853741E-04  mag=    -0.0000
quench:  g(F)=  0.000E+00 g(S)=  0.000E+00 dE (1.order)= 0.000E+00
 bond charge predicted
       N       E                     dE             d eps       ncg     rms          rms(c)
DAV:   1    -0.850461750486E+03   -0.11617E-03   -0.50596E-03  4720   0.118E-01    0.164E-02
DAV:   2    -0.850461757503E+03   -0.70165E-05   -0.10148E-04  4680   0.152E-02    0.109E-02
DAV:   3    -0.850461757770E+03   -0.26763E-06   -0.14294E-06  3720   0.238E-03
  52 F= -.85840487E+03 E0= -.85840487E+03  d E =-.104923E-03  mag=     0.0000
quench:  g(F)=  0.000E+00 g(S)=  0.000E+00 dE (1.order)= 0.000E+00
 bond charge predicted
       N       E                     dE             d eps       ncg     rms          rms(c)
DAV:   1    -0.850461899166E+03   -0.14166E-03   -0.77811E-03  4720   0.144E-01    0.205E-02
DAV:   2    -0.850461909917E+03   -0.10751E-04   -0.15526E-04  4680   0.185E-02    0.134E-02
DAV:   3    -0.850461910339E+03   -0.42205E-06   -0.21522E-06  4180   0.287E-03
  53 F= -.85840499E+03 E0= -.85840499E+03  d E =-.127752E-03  mag=     0.0000
quench:  g(F)=  0.000E+00 g(S)=  0.000E+00 dE (1.order)= 0.000E+00
 bond charge predicted
       N       E                     dE             d eps       ncg     rms          rms(c)
DAV:   1    -0.850462085134E+03   -0.17522E-03   -0.11817E-02  4720   0.174E-01    0.253E-02
DAV:   2    -0.850462101377E+03   -0.16243E-04   -0.23478E-04  4680   0.222E-02    0.165E-02
DAV:   3    -0.850462102134E+03   -0.75673E-06   -0.31676E-06  4280   0.344E-03
  54 F= -.85840515E+03 E0= -.85840515E+03  d E =-.159425E-03  mag=     0.0000
quench:  g(F)=  0.000E+00 g(S)=  0.000E+00 dE (1.order)= 0.000E+00
 bond charge predicted
       N       E                     dE             d eps       ncg     rms          rms(c)
DAV:   1    -0.850462314402E+03   -0.21303E-03   -0.17933E-02  4720   0.212E-01    0.312E-02
DAV:   2    -0.850462339373E+03   -0.24971E-04   -0.35650E-04  4680   0.271E-02    0.203E-02
DAV:   3    -0.850462340311E+03   -0.93836E-06   -0.48090E-06  4680   0.418E-03
  55 F= -.85840535E+03 E0= -.85840535E+03  d E =-.196762E-03  mag=    -0.0000
quench:  g(F)=  0.000E+00 g(S)=  0.000E+00 dE (1.order)= 0.000E+00
 bond charge predicted
       N       E                     dE             d eps       ncg     rms          rms(c)
DAV:   1    -0.850462594032E+03   -0.25466E-03   -0.27339E-02  4720   0.259E-01    0.387E-02
DAV:   2    -0.850462632375E+03   -0.38344E-04   -0.54315E-04  4660   0.329E-02    0.251E-02
DAV:   3    -0.850462633743E+03   -0.13674E-05   -0.76021E-06  4840   0.514E-03    0.186E-02
DAV:   4    -0.850462642399E+03   -0.86563E-05   -0.11344E-05  4400   0.624E-03    0.409E-03
DAV:   5    -0.850462642813E+03   -0.41389E-06   -0.23045E-06  4200   0.235E-03
  56 F= -.85840560E+03 E0= -.85840560E+03  d E =-.250899E-03  mag=    -0.0000
quench:  g(F)=  0.000E+00 g(S)=  0.000E+00 dE (1.order)= 0.000E+00
 bond charge predicted
       N       E                     dE             d eps       ncg     rms          rms(c)
DAV:   1    -0.850462922215E+03   -0.27982E-03   -0.42412E-02  4780   0.317E-01    0.462E-02
DAV:   2    -0.850462989288E+03   -0.67073E-04   -0.89095E-04  4640   0.413E-02    0.294E-02
DAV:   3    -0.850462988816E+03    0.47170E-06   -0.11660E-05  5070   0.640E-03    0.221E-02
DAV:   4    -0.850462999218E+03   -0.10403E-04   -0.22307E-05  4440   0.849E-03    0.542E-03
DAV:   5    -0.850462999699E+03   -0.48102E-06   -0.40563E-06  4330   0.315E-03
  57 F= -.85840589E+03 E0= -.85840589E+03  d E =-.293238E-03  mag=     0.0000
quench:  g(F)=  0.000E+00 g(S)=  0.000E+00 dE (1.order)= 0.000E+00
 bond charge predicted
       N       E                     dE             d eps       ncg     rms          rms(c)
DAV:   1    -0.850463317676E+03   -0.31846E-03   -0.63169E-02  4780   0.381E-01    0.567E-02
DAV:   2    -0.850463418305E+03   -0.10063E-03   -0.13291E-03  4660   0.494E-02    0.359E-02
DAV:   3    -0.850463417630E+03    0.67521E-06   -0.17166E-05  5350   0.769E-03    0.270E-02
DAV:   4    -0.850463432831E+03   -0.15201E-04   -0.33271E-05  4420   0.103E-02    0.651E-03
DAV:   5    -0.850463433541E+03   -0.70987E-06   -0.60653E-06  4630   0.381E-03
  58 F= -.85840625E+03 E0= -.85840625E+03  d E =-.356034E-03  mag=     0.0000
quench:  g(F)=  0.000E+00 g(S)=  0.000E+00 dE (1.order)= 0.000E+00
 bond charge predicted
       N       E                     dE             d eps       ncg     rms          rms(c)
DAV:   1    -0.850463771836E+03   -0.33901E-03   -0.93405E-02  4800   0.459E-01    0.692E-02
DAV:   2    -0.850463922298E+03   -0.15046E-03   -0.19728E-03  4660   0.596E-02    0.437E-02
DAV:   3    -0.850463920917E+03    0.13808E-05   -0.25307E-05  5400   0.930E-03    0.329E-02
DAV:   4    -0.850463943296E+03   -0.22379E-04   -0.49330E-05  4580   0.125E-02    0.787E-03
DAV:   5    -0.850463944356E+03   -0.10598E-05   -0.89258E-06  4890   0.464E-03    0.626E-03
DAV:   6    -0.850463944017E+03    0.33912E-06   -0.45063E-06  4020   0.380E-03
  59 F= -.85840667E+03 E0= -.85840667E+03  d E =-.414927E-03  mag=    -0.0000
quench:  g(F)=  0.000E+00 g(S)=  0.000E+00 dE (1.order)= 0.000E+00
 bond charge predicted
       N       E                     dE             d eps       ncg     rms          rms(c)
DAV:   1    -0.850464313955E+03   -0.36960E-03   -0.13435E-01  4820   0.552E-01    0.824E-02
DAV:   2    -0.850464529477E+03   -0.21552E-03   -0.28148E-03  4660   0.716E-02    0.523E-02
DAV:   3    -0.850464527537E+03    0.19401E-05   -0.35455E-05  5380   0.111E-02    0.392E-02
DAV:   4    -0.850464559149E+03   -0.31611E-04   -0.73210E-05  4700   0.150E-02    0.942E-03
DAV:   5    -0.850464560285E+03   -0.11364E-05   -0.12917E-05  5200   0.562E-03    0.749E-03
DAV:   6    -0.850464559870E+03    0.41490E-06   -0.66841E-06  4200   0.445E-03
  60 F= -.85840716E+03 E0= -.85840716E+03  d E =-.499162E-03  mag=    -0.0000
quench:  g(F)=  0.000E+00 g(S)=  0.000E+00 dE (1.order)= 0.000E+00
 bond charge predicted
       N       E                     dE             d eps       ncg     rms          rms(c)
DAV:   1    -0.850464934516E+03   -0.37423E-03   -0.19527E-01  4820   0.666E-01    0.995E-02
DAV:   2    -0.850465249411E+03   -0.31490E-03   -0.41053E-03  4680   0.865E-02    0.631E-02
DAV:   3    -0.850465247838E+03    0.15730E-05   -0.51348E-05  5380   0.133E-02    0.473E-02
DAV:   4    -0.850465293353E+03   -0.45515E-04   -0.10862E-04  5000   0.182E-02    0.115E-02
DAV:   5    -0.850465294623E+03   -0.12698E-05   -0.18580E-05  5320   0.678E-03    0.913E-03
DAV:   6    -0.850465294105E+03    0.51791E-06   -0.10160E-05  4320   0.535E-03    0.374E-03
DAV:   7    -0.850465294137E+03   -0.31716E-07   -0.89230E-07  3840   0.163E-03
  61 F= -.85840776E+03 E0= -.85840776E+03  d E =-.593962E-03  mag=    -0.0000
quench:  g(F)=  0.000E+00 g(S)=  0.000E+00 dE (1.order)= 0.000E+00
 bond charge predicted
       N       E                     dE             d eps       ncg     rms          rms(c)
DAV:   1    -0.850465648477E+03   -0.35437E-03   -0.27916E-01  4820   0.801E-01    0.119E-01
DAV:   2    -0.850466092749E+03   -0.44427E-03   -0.58861E-03  4700   0.104E-01    0.753E-02
DAV:   3    -0.850466098419E+03   -0.56702E-05   -0.74769E-05  5380   0.160E-02    0.564E-02
DAV:   4    -0.850466157295E+03   -0.58876E-04   -0.15040E-04  5200   0.214E-02    0.133E-02
DAV:   5    -0.850466159840E+03   -0.25447E-05   -0.26147E-05  5320   0.802E-03    0.104E-02
DAV:   6    -0.850466159055E+03    0.78510E-06   -0.12559E-05  4420   0.601E-03    0.434E-03
DAV:   7    -0.850466159125E+03   -0.69682E-07   -0.11982E-06  3960   0.190E-03
  62 F= -.85840846E+03 E0= -.85840846E+03  d E =-.702487E-03  mag=     0.0000
quench:  g(F)=  0.000E+00 g(S)=  0.000E+00 dE (1.order)= 0.000E+00
 bond charge predicted
       N       E                     dE             d eps       ncg     rms          rms(c)
DAV:   1    -0.850466446156E+03   -0.28710E-03   -0.39739E-01  4800   0.962E-01    0.143E-01
DAV:   2    -0.850467079103E+03   -0.63295E-03   -0.84325E-03  4720   0.126E-01    0.902E-02
DAV:   3    -0.850467084693E+03   -0.55905E-05   -0.10974E-04  5480   0.195E-02    0.674E-02
DAV:   4    -0.850467170065E+03   -0.85372E-04   -0.21029E-04  5320   0.257E-02    0.158E-02
DAV:   5    -0.850467174534E+03   -0.44682E-05   -0.37373E-05  5320   0.967E-03    0.120E-02
DAV:   6    -0.850467173566E+03    0.96805E-06   -0.15872E-05  4440   0.700E-03    0.511E-03
DAV:   7    -0.850467173721E+03   -0.15572E-06   -0.17167E-06  4070   0.232E-03
  63 F= -.85840928E+03 E0= -.85840928E+03  d E =-.822315E-03  mag=     0.0000
quench:  g(F)=  0.000E+00 g(S)=  0.000E+00 dE (1.order)= 0.000E+00
 bond charge predicted
       N       E                     dE             d eps       ncg     rms          rms(c)
DAV:   1    -0.850467386006E+03   -0.21244E-03   -0.55817E-01  4800   0.116E+00    0.169E-01
DAV:   2    -0.850468289227E+03   -0.90322E-03   -0.11888E-02  4760   0.152E-01    0.107E-01
DAV:   3    -0.850468279598E+03    0.96289E-05   -0.15459E-04  5440   0.234E-02    0.803E-02
DAV:   4    -0.850468407906E+03   -0.12831E-03   -0.30990E-04  5440   0.315E-02    0.193E-02
DAV:   5    -0.850468413149E+03   -0.52427E-05   -0.54284E-05  5280   0.119E-02    0.148E-02
DAV:   6    -0.850468412056E+03    0.10933E-05   -0.24948E-05  4460   0.886E-03    0.610E-03
DAV:   7    -0.850468412257E+03   -0.20148E-06   -0.26167E-06  4380   0.286E-03
  64 F= -.85841028E+03 E0= -.85841028E+03  d E =-.995239E-03  mag=     0.0000
quench:  g(F)=  0.000E+00 g(S)=  0.000E+00 dE (1.order)= 0.000E+00
 bond charge predicted
       N       E                     dE             d eps       ncg     rms          rms(c)
DAV:   1    -0.850468369579E+03    0.42476E-04   -0.79167E-01  4800   0.141E+00    0.200E-01
DAV:   2    -0.850469690166E+03   -0.13206E-02   -0.17059E-02  4780   0.188E-01    0.127E-01
DAV:   3    -0.850469670198E+03    0.19968E-04   -0.21983E-04  5480   0.282E-02    0.954E-02
DAV:   4    -0.850469844452E+03   -0.17425E-03   -0.43560E-04  5360   0.376E-02    0.233E-02
DAV:   5    -0.850469851661E+03   -0.72091E-05   -0.76914E-05  5320   0.141E-02    0.179E-02
DAV:   6    -0.850469849603E+03    0.20580E-05   -0.37325E-05  4600   0.104E-02    0.721E-03
DAV:   7    -0.850469849865E+03   -0.26161E-06   -0.36509E-06  4700   0.331E-03
  65 F= -.85841143E+03 E0= -.85841143E+03  d E =-.114734E-02  mag=    -0.0000
quench:  g(F)=  0.000E+00 g(S)=  0.000E+00 dE (1.order)= 0.000E+00
 bond charge predicted
       N       E                     dE             d eps       ncg     rms          rms(c)
DAV:   1    -0.850469288617E+03    0.56099E-03   -0.10989E+00  4760   0.170E+00    0.233E-01
DAV:   2    -0.850471189639E+03   -0.19010E-02   -0.24116E-02  4840   0.229E-01    0.149E-01
DAV:   3    -0.850471140723E+03    0.48916E-04   -0.32398E-04  5600   0.345E-02    0.113E-01
DAV:   4    -0.850471350022E+03   -0.20930E-03   -0.60591E-04  5320   0.454E-02    0.283E-02
DAV:   5    -0.850471363145E+03   -0.13123E-04   -0.11654E-04  5280   0.173E-02    0.214E-02
DAV:   6    -0.850471360515E+03    0.26299E-05   -0.47532E-05  4700   0.120E-02    0.874E-03
DAV:   7    -0.850471361098E+03   -0.58278E-06   -0.55244E-06  5300   0.403E-03
  66 F= -.85841260E+03 E0= -.85841260E+03  d E =-.117824E-02  mag=    -0.0000
quench:  g(F)=  0.000E+00 g(S)=  0.000E+00 dE (1.order)= 0.000E+00
 bond charge predicted
       N       E                     dE             d eps       ncg     rms          rms(c)
DAV:   1    -0.850469267388E+03    0.20931E-02   -0.16142E+00  4720   0.209E+00    0.282E-01
DAV:   2    -0.850472211924E+03   -0.29445E-02   -0.36582E-02  4920   0.285E-01    0.185E-01
DAV:   3    -0.850472090992E+03    0.12093E-03   -0.56294E-04  5740   0.445E-02    0.140E-01
DAV:   4    -0.850472289439E+03   -0.19845E-03   -0.86031E-04  5140   0.552E-02    0.390E-02
DAV:   5    -0.850472326538E+03   -0.37099E-04   -0.18643E-04  5380   0.216E-02    0.265E-02
DAV:   6    -0.850472323204E+03    0.33340E-05   -0.73877E-05  5020   0.146E-02    0.107E-02
DAV:   7    -0.850472323597E+03   -0.39315E-06   -0.73826E-06  5300   0.476E-03
  67 F= -.85841318E+03 E0= -.85841318E+03  d E =-.577259E-03  mag=    -0.0000
quench:  g(F)=  0.000E+00 g(S)=  0.000E+00 dE (1.order)= 0.000E+00
 bond charge predicted
       N       E                     dE             d eps       ncg     rms          rms(c)
DAV:   1    -0.850473523419E+03   -0.12002E-02   -0.65710E-02  4740   0.487E-01    0.561E-02
DAV:   2    -0.850473646405E+03   -0.12299E-03   -0.16999E-03  5620   0.706E-02    0.515E-02
DAV:   3    -0.850473620812E+03    0.25593E-04   -0.54276E-05  6100   0.137E-02    0.416E-02
DAV:   4    -0.850473591714E+03    0.29098E-04   -0.66661E-05  5100   0.162E-02    0.172E-02
DAV:   5    -0.850473591811E+03   -0.96363E-07   -0.22723E-05  5120   0.786E-03    0.692E-03
DAV:   6    -0.850473592035E+03   -0.22462E-06   -0.17549E-06  3580   0.247E-03
  68 F= -.85841445E+03 E0= -.85841445E+03  d E =-.126414E-02  mag=    -0.0000
quench:  g(F)=  0.000E+00 g(S)=  0.000E+00 dE (1.order)= 0.000E+00
 bond charge predicted
       N       E                     dE             d eps       ncg     rms          rms(c)
DAV:   1    -0.850472701851E+03    0.88996E-03   -0.69241E-02  4720   0.492E-01    0.580E-02
DAV:   2    -0.850472841507E+03   -0.13966E-03   -0.18373E-03  5620   0.721E-02    0.502E-02
DAV:   3    -0.850472819887E+03    0.21620E-04   -0.54604E-05  6020   0.137E-02    0.402E-02
DAV:   4    -0.850472799502E+03    0.20385E-04   -0.61028E-05  4980   0.156E-02    0.164E-02
DAV:   5    -0.850472801066E+03   -0.15642E-05   -0.20989E-05  5120   0.763E-03    0.716E-03
DAV:   6    -0.850472801228E+03   -0.16152E-06   -0.23545E-06  4000   0.280E-03
  69 F= -.85841362E+03 E0= -.85841362E+03  d E =0.825457E-03  mag=     0.0000
quench:  g(F)=  0.000E+00 g(S)=  0.000E+00 dE (1.order)= 0.000E+00
 bond charge predicted
       N       E                     dE             d eps       ncg     rms          rms(c)
DAV:   1    -0.850473238781E+03   -0.43771E-03   -0.37256E-03  4700   0.111E-01    0.136E-02
DAV:   2    -0.850473245427E+03   -0.66460E-05   -0.95483E-05  5580   0.161E-02    0.122E-02
DAV:   3    -0.850473243970E+03    0.14565E-05   -0.27490E-06  4380   0.316E-03    0.982E-03
DAV:   4    -0.850473242417E+03    0.15537E-05   -0.51471E-06  4600   0.433E-03    0.383E-03
DAV:   5    -0.850473242488E+03   -0.71726E-07   -0.11419E-06  3260   0.175E-03
  70 F= -.85841405E+03 E0= -.85841405E+03  d E =-.433949E-03  mag=     0.0000
quench:  g(F)=  0.000E+00 g(S)=  0.000E+00 dE (1.order)= 0.000E+00
 bond charge predicted
       N       E                     dE             d eps       ncg     rms          rms(c)
DAV:   1    -0.850473740665E+03   -0.49825E-03   -0.11971E-02  4700   0.198E-01    0.243E-02
DAV:   2    -0.850473763994E+03   -0.23329E-04   -0.30944E-04  5580   0.286E-02    0.208E-02
DAV:   3    -0.850473760200E+03    0.37935E-05   -0.91663E-06  5900   0.556E-03    0.165E-02
DAV:   4    -0.850473756863E+03    0.33369E-05   -0.98832E-06  4780   0.619E-03    0.686E-03
DAV:   5    -0.850473757180E+03   -0.31620E-06   -0.35601E-06  4200   0.310E-03
  71 F= -.85841455E+03 E0= -.85841455E+03  d E =-.499683E-03  mag=    -0.0000
quench:  g(F)=  0.000E+00 g(S)=  0.000E+00 dE (1.order)= 0.000E+00
 bond charge predicted
       N       E                     dE             d eps       ncg     rms          rms(c)
DAV:   1    -0.850473922650E+03   -0.16579E-03   -0.18214E-02  4660   0.240E-01    0.301E-02
DAV:   2    -0.850473958381E+03   -0.35731E-04   -0.46932E-04  5560   0.347E-02    0.250E-02
DAV:   3    -0.850473953376E+03    0.50046E-05   -0.12919E-05  5840   0.661E-03    0.197E-02
DAV:   4    -0.850473949481E+03    0.38954E-05   -0.14478E-05  4790   0.748E-03    0.792E-03
DAV:   5    -0.850473950118E+03   -0.63659E-06   -0.49246E-06  4420   0.361E-03
  72 F= -.85841472E+03 E0= -.85841472E+03  d E =-.169537E-03  mag=     0.0000
quench:  g(F)=  0.000E+00 g(S)=  0.000E+00 dE (1.order)= 0.000E+00
 bond charge predicted
       N       E                     dE             d eps       ncg     rms          rms(c)
DAV:   1    -0.850473814632E+03    0.13485E-03   -0.16567E-02  4660   0.217E-01    0.292E-02
DAV:   2    -0.850473846244E+03   -0.31613E-04   -0.41359E-04  5400   0.309E-02    0.223E-02
DAV:   3    -0.850473843362E+03    0.28829E-05   -0.98210E-06  5720   0.573E-03    0.173E-02
DAV:   4    -0.850473842592E+03    0.76904E-06   -0.11538E-05  4660   0.661E-03    0.645E-03
DAV:   5    -0.850473843375E+03   -0.78223E-06   -0.33589E-06  4260   0.293E-03
  73 F= -.85841458E+03 E0= -.85841458E+03  d E =0.138197E-03  mag=    -0.0000
quench:  g(F)=  0.000E+00 g(S)=  0.000E+00 dE (1.order)= 0.000E+00
 bond charge predicted
       N       E                     dE             d eps       ncg     rms          rms(c)
DAV:   1    -0.850473882069E+03   -0.39477E-04   -0.69307E-05  4840   0.153E-02    0.281E-03
DAV:   2    -0.850473882136E+03   -0.66982E-07   -0.17650E-06  3340   0.230E-03
  74 F= -.85841462E+03 E0= -.85841462E+03  d E =-.373413E-04  mag=    -0.0000
quench:  g(F)=  0.000E+00 g(S)=  0.000E+00 dE (1.order)= 0.000E+00
 bond charge predicted
       N       E                     dE             d eps       ncg     rms          rms(c)
DAV:   1    -0.850473951613E+03   -0.69544E-04   -0.26367E-04  4720   0.299E-02    0.495E-03
DAV:   2    -0.850473951956E+03   -0.34241E-06   -0.67269E-06  5140   0.436E-03
  75 F= -.85841469E+03 E0= -.85841469E+03  d E =-.669540E-04  mag=    -0.0000
quench:  g(F)=  0.000E+00 g(S)=  0.000E+00 dE (1.order)= 0.000E+00
 bond charge predicted
       N       E                     dE             d eps       ncg     rms          rms(c)
DAV:   1    -0.850474037584E+03   -0.85971E-04   -0.54481E-04  4690   0.428E-02    0.793E-03
DAV:   2    -0.850474038126E+03   -0.54203E-06   -0.13426E-05  5680   0.612E-03    0.686E-03
DAV:   3    -0.850474037697E+03    0.42887E-06   -0.72573E-07  3080   0.176E-03
  76 F= -.85841477E+03 E0= -.85841477E+03  d E =-.813649E-04  mag=    -0.0000
quench:  g(F)=  0.000E+00 g(S)=  0.000E+00 dE (1.order)= 0.000E+00
 bond charge predicted
       N       E                     dE             d eps       ncg     rms          rms(c)
DAV:   1    -0.850474122721E+03   -0.84595E-04   -0.83849E-04  4660   0.527E-02    0.745E-03
DAV:   2    -0.850474124144E+03   -0.14229E-05   -0.19671E-05  5640   0.724E-03    0.632E-03
DAV:   3    -0.850474123934E+03    0.20984E-06   -0.46752E-07  2900   0.142E-03
  77 F= -.85841485E+03 E0= -.85841485E+03  d E =-.803173E-04  mag=    -0.0000
quench:  g(F)=  0.000E+00 g(S)=  0.000E+00 dE (1.order)= 0.000E+00
 bond charge predicted
       N       E                     dE             d eps       ncg     rms          rms(c)
DAV:   1    -0.850474194450E+03   -0.70306E-04   -0.11272E-03  4660   0.603E-02    0.822E-03
DAV:   2    -0.850474196428E+03   -0.19783E-05   -0.26654E-05  5660   0.832E-03    0.680E-03
DAV:   3    -0.850474196201E+03    0.22772E-06   -0.59522E-07  3280   0.157E-03
  78 F= -.85841492E+03 E0= -.85841492E+03  d E =-.646331E-04  mag=    -0.0000
quench:  g(F)=  0.000E+00 g(S)=  0.000E+00 dE (1.order)= 0.000E+00
 bond charge predicted
       N       E                     dE             d eps       ncg     rms          rms(c)
DAV:   1    -0.850474245227E+03   -0.48799E-04   -0.13516E-03  4660   0.646E-02    0.919E-03
DAV:   2    -0.850474247480E+03   -0.22521E-05   -0.31275E-05  5540   0.884E-03    0.736E-03
DAV:   3    -0.850474247269E+03    0.21031E-06   -0.70257E-07  3430   0.169E-03
  79 F= -.85841496E+03 E0= -.85841496E+03  d E =-.416174E-04  mag=     0.0000
quench:  g(F)=  0.000E+00 g(S)=  0.000E+00 dE (1.order)= 0.000E+00
 bond charge predicted
       N       E                     dE             d eps       ncg     rms          rms(c)
DAV:   1    -0.850474281097E+03   -0.33617E-04   -0.18328E-03  4680   0.723E-02    0.107E-02
DAV:   2    -0.850474284070E+03   -0.29730E-05   -0.41445E-05  5320   0.980E-03    0.809E-03
DAV:   3    -0.850474283901E+03    0.16930E-06   -0.82409E-07  3700   0.182E-03
  80 F= -.85841498E+03 E0= -.85841498E+03  d E =-.240878E-04  mag=    -0.0000
quench:  g(F)=  0.000E+00 g(S)=  0.000E+00 dE (1.order)= 0.000E+00
 bond charge predicted
       N       E                     dE             d eps       ncg     rms          rms(c)
DAV:   1    -0.850474314986E+03   -0.30916E-04   -0.24224E-03  4720   0.782E-02    0.123E-02
DAV:   2    -0.850474318638E+03   -0.36521E-05   -0.52040E-05  4960   0.103E-02    0.866E-03
DAV:   3    -0.850474318664E+03   -0.25451E-07   -0.87484E-07  3960   0.182E-03
  81 F= -.85841500E+03 E0= -.85841500E+03  d E =-.185974E-04  mag=     0.0000
quench:  g(F)=  0.000E+00 g(S)=  0.000E+00 dE (1.order)= 0.000E+00
 bond charge predicted
       N       E                     dE             d eps       ncg     rms          rms(c)
DAV:   1    -0.850474372952E+03   -0.54314E-04   -0.33364E-03  4720   0.858E-02    0.143E-02
DAV:   2    -0.850474377718E+03   -0.47660E-05   -0.68750E-05  4780   0.110E-02    0.940E-03
DAV:   3    -0.850474377979E+03   -0.26065E-06   -0.90150E-07  3880   0.177E-03
  82 F= -.85841504E+03 E0= -.85841504E+03  d E =-.390176E-04  mag=    -0.0000
quench:  g(F)=  0.000E+00 g(S)=  0.000E+00 dE (1.order)= 0.000E+00
 bond charge predicted
       N       E                     dE             d eps       ncg     rms          rms(c)
DAV:   1    -0.850474480575E+03   -0.10286E-03   -0.49872E-03  4740   0.101E-01    0.173E-02
DAV:   2    -0.850474487492E+03   -0.69178E-05   -0.10159E-04  4640   0.129E-02    0.109E-02
DAV:   3    -0.850474488119E+03   -0.62671E-06   -0.12069E-06  3540   0.197E-03
  83 F= -.85841512E+03 E0= -.85841512E+03  d E =-.850206E-04  mag=     0.0000
quench:  g(F)=  0.000E+00 g(S)=  0.000E+00 dE (1.order)= 0.000E+00
 bond charge predicted
       N       E                     dE             d eps       ncg     rms          rms(c)
DAV:   1    -0.850474647751E+03   -0.16026E-03   -0.79214E-03  4720   0.129E-01    0.215E-02
DAV:   2    -0.850474659028E+03   -0.11277E-04   -0.16447E-04  4660   0.167E-02    0.138E-02
DAV:   3    -0.850474659793E+03   -0.76473E-06   -0.21488E-06  3960   0.261E-03
  84 F= -.85841526E+03 E0= -.85841526E+03  d E =-.140896E-03  mag=     0.0000
quench:  g(F)=  0.000E+00 g(S)=  0.000E+00 dE (1.order)= 0.000E+00
 bond charge predicted
       N       E                     dE             d eps       ncg     rms          rms(c)
DAV:   1    -0.850474849633E+03   -0.19060E-03   -0.12662E-02  4720   0.166E-01    0.272E-02
DAV:   2    -0.850474868014E+03   -0.18382E-04   -0.26737E-04  4720   0.217E-02    0.179E-02
DAV:   3    -0.850474868875E+03   -0.86087E-06   -0.39458E-06  4500   0.353E-03
  85 F= -.85841544E+03 E0= -.85841544E+03  d E =-.171512E-03  mag=     0.0000
quench:  g(F)=  0.000E+00 g(S)=  0.000E+00 dE (1.order)= 0.000E+00
 bond charge predicted
       N       E                     dE             d eps       ncg     rms          rms(c)
DAV:   1    -0.850475044402E+03   -0.17639E-03   -0.19238E-02  4720   0.205E-01    0.338E-02
DAV:   2    -0.850475071987E+03   -0.27584E-04   -0.40482E-04  4760   0.266E-02    0.224E-02
DAV:   3    -0.850475073289E+03   -0.13016E-05   -0.60881E-06  4740   0.436E-03    0.167E-02
DAV:   4    -0.850475079898E+03   -0.66092E-05   -0.98195E-06  4380   0.563E-03    0.394E-03
DAV:   5    -0.850475080298E+03   -0.40022E-06   -0.19532E-06  4020   0.217E-03
  86 F= -.85841560E+03 E0= -.85841560E+03  d E =-.164573E-03  mag=     0.0000
quench:  g(F)=  0.000E+00 g(S)=  0.000E+00 dE (1.order)= 0.000E+00
 bond charge predicted
       N       E                     dE             d eps       ncg     rms          rms(c)
DAV:   1    -0.850475246794E+03   -0.16690E-03   -0.27032E-02  4760   0.238E-01    0.381E-02
DAV:   2    -0.850475289989E+03   -0.43194E-04   -0.59345E-04  4640   0.316E-02    0.242E-02
DAV:   3    -0.850475291064E+03   -0.10751E-05   -0.74337E-06  4800   0.488E-03    0.183E-02
DAV:   4    -0.850475299244E+03   -0.81799E-05   -0.15665E-05  4400   0.680E-03    0.460E-03
DAV:   5    -0.850475299530E+03   -0.28685E-06   -0.27699E-06  4380   0.262E-03
  87 F= -.85841576E+03 E0= -.85841576E+03  d E =-.161865E-03  mag=    -0.0000
quench:  g(F)=  0.000E+00 g(S)=  0.000E+00 dE (1.order)= 0.000E+00
 bond charge predicted
       N       E                     dE             d eps       ncg     rms          rms(c)
DAV:   1    -0.850475534458E+03   -0.23521E-03   -0.35715E-02  4800   0.271E-01    0.439E-02
DAV:   2    -0.850475591319E+03   -0.56860E-04   -0.77189E-04  4640   0.356E-02    0.274E-02
DAV:   3    -0.850475592149E+03   -0.82977E-06   -0.87571E-06  4860   0.537E-03
  88 F= -.85841599E+03 E0= -.85841599E+03  d E =-.225127E-03  mag=     0.0000
quench:  g(F)=  0.000E+00 g(S)=  0.000E+00 dE (1.order)= 0.000E+00
 bond charge predicted
       N       E                     dE             d eps       ncg     rms          rms(c)
DAV:   1    -0.850475905707E+03   -0.31439E-03   -0.48170E-02  4720   0.321E-01    0.536E-02
DAV:   2    -0.850475974037E+03   -0.68330E-04   -0.98852E-04  4640   0.410E-02    0.340E-02
DAV:   3    -0.850475978436E+03   -0.43993E-05   -0.13534E-05  5380   0.646E-03    0.252E-02
DAV:   4    -0.850475995746E+03   -0.17310E-04   -0.18805E-05  4440   0.775E-03    0.536E-03
DAV:   5    -0.850475996544E+03   -0.79851E-06   -0.37865E-06  4280   0.299E-03
  89 F= -.85841631E+03 E0= -.85841631E+03  d E =-.326021E-03  mag=     0.0000
quench:  g(F)=  0.000E+00 g(S)=  0.000E+00 dE (1.order)= 0.000E+00
 bond charge predicted
       N       E                     dE             d eps       ncg     rms          rms(c)
DAV:   1    -0.850476262237E+03   -0.26649E-03   -0.70117E-02  4780   0.390E-01    0.610E-02
DAV:   2    -0.850476373568E+03   -0.11133E-03   -0.15328E-03  4660   0.518E-02    0.388E-02
DAV:   3    -0.850476376975E+03   -0.34070E-05   -0.19067E-05  5520   0.802E-03    0.294E-02
DAV:   4    -0.850476398760E+03   -0.21785E-04   -0.41455E-05  4500   0.112E-02    0.764E-03
DAV:   5    -0.850476399242E+03   -0.48173E-06   -0.73262E-06  4940   0.432E-03
  90 F= -.85841663E+03 E0= -.85841663E+03  d E =-.312264E-03  mag=    -0.0000
quench:  g(F)=  0.000E+00 g(S)=  0.000E+00 dE (1.order)= 0.000E+00
 bond charge predicted
       N       E                     dE             d eps       ncg     rms          rms(c)
DAV:   1    -0.850476705802E+03   -0.30704E-03   -0.94861E-02  4800   0.450E-01    0.708E-02
DAV:   2    -0.850476853996E+03   -0.14819E-03   -0.20533E-03  4640   0.592E-02    0.443E-02
DAV:   3    -0.850476857715E+03   -0.37189E-05   -0.23265E-05  5340   0.884E-03    0.335E-02
DAV:   4    -0.850476891801E+03   -0.34086E-04   -0.55543E-05  4400   0.125E-02    0.829E-03
DAV:   5    -0.850476892153E+03   -0.35253E-06   -0.90183E-06  5180   0.467E-03
  91 F= -.85841702E+03 E0= -.85841702E+03  d E =-.389403E-03  mag=     0.0000
quench:  g(F)=  0.000E+00 g(S)=  0.000E+00 dE (1.order)= 0.000E+00
 bond charge predicted
       N       E                     dE             d eps       ncg     rms          rms(c)
DAV:   1    -0.850477241268E+03   -0.34947E-03   -0.13186E-01  4760   0.539E-01    0.827E-02
DAV:   2    -0.850477456882E+03   -0.21561E-03   -0.28934E-03  4640   0.715E-02    0.521E-02
DAV:   3    -0.850477456810E+03    0.72207E-07   -0.34583E-05  5500   0.107E-02    0.395E-02
DAV:   4    -0.850477499057E+03   -0.42248E-04   -0.74870E-05  4560   0.148E-02    0.970E-03
DAV:   5    -0.850477500574E+03   -0.15171E-05   -0.13146E-05  5340   0.564E-03    0.790E-03
DAV:   6    -0.850477500243E+03    0.33102E-06   -0.73639E-06  4220   0.459E-03
  92 F= -.85841751E+03 E0= -.85841751E+03  d E =-.491853E-03  mag=     0.0000
quench:  g(F)=  0.000E+00 g(S)=  0.000E+00 dE (1.order)= 0.000E+00
 bond charge predicted
       N       E                     dE             d eps       ncg     rms          rms(c)
DAV:   1    -0.850477807195E+03   -0.30662E-03   -0.17666E-01  4780   0.631E-01    0.945E-02
DAV:   2    -0.850478092966E+03   -0.28577E-03   -0.38126E-03  4640   0.835E-02    0.592E-02
DAV:   3    -0.850478094010E+03   -0.10430E-05   -0.44417E-05  5420   0.123E-02    0.448E-02
DAV:   4    -0.850478147132E+03   -0.53123E-04   -0.94972E-05  4640   0.169E-02    0.106E-02
DAV:   5    -0.850478149097E+03   -0.19647E-05   -0.17025E-05  5400   0.647E-03    0.854E-03
DAV:   6    -0.850478148726E+03    0.37118E-06   -0.82686E-06  4300   0.492E-03
  93 F= -.85841802E+03 E0= -.85841802E+03  d E =-.514792E-03  mag=    -0.0000
quench:  g(F)=  0.000E+00 g(S)=  0.000E+00 dE (1.order)= 0.000E+00
 bond charge predicted
       N       E                     dE             d eps       ncg     rms          rms(c)
DAV:   1    -0.850478512354E+03   -0.36326E-03   -0.22266E-01  4780   0.723E-01    0.105E-01
DAV:   2    -0.850478879937E+03   -0.36758E-03   -0.47964E-03  4640   0.960E-02    0.656E-02
DAV:   3    -0.850478875731E+03    0.42062E-05   -0.55618E-05  5340   0.139E-02    0.495E-02
DAV:   4    -0.850478940155E+03   -0.64424E-04   -0.11623E-04  4800   0.191E-02    0.118E-02
DAV:   5    -0.850478942352E+03   -0.21963E-05   -0.21156E-05  5320   0.730E-03    0.947E-03
DAV:   6    -0.850478941913E+03    0.43882E-06   -0.10239E-05  4340   0.548E-03    0.383E-03
DAV:   7    -0.850478941960E+03   -0.47199E-07   -0.92483E-07  3860   0.171E-03
  94 F= -.85841866E+03 E0= -.85841866E+03  d E =-.639786E-03  mag=    -0.0000
quench:  g(F)=  0.000E+00 g(S)=  0.000E+00 dE (1.order)= 0.000E+00
 bond charge predicted
       N       E                     dE             d eps       ncg     rms          rms(c)
DAV:   1    -0.850479215473E+03   -0.27356E-03   -0.30476E-01  4800   0.862E-01    0.121E-01
DAV:   2    -0.850479727677E+03   -0.51220E-03   -0.65620E-03  4760   0.115E-01    0.748E-02
DAV:   3    -0.850479721643E+03    0.60343E-05   -0.77145E-05  5380   0.165E-02    0.565E-02
DAV:   4    -0.850479792680E+03   -0.71038E-04   -0.14902E-04  5160   0.220E-02    0.133E-02
DAV:   5    -0.850479797349E+03   -0.46685E-05   -0.28121E-05  5280   0.835E-03    0.104E-02
DAV:   6    -0.850479796670E+03    0.67891E-06   -0.11469E-05  4440   0.594E-03    0.437E-03
DAV:   7    -0.850479796713E+03   -0.42834E-07   -0.11549E-06  3900   0.190E-03
  95 F= -.85841934E+03 E0= -.85841934E+03  d E =-.681811E-03  mag=     0.0000
quench:  g(F)=  0.000E+00 g(S)=  0.000E+00 dE (1.order)= 0.000E+00
 bond charge predicted
       N       E                     dE             d eps       ncg     rms          rms(c)
DAV:   1    -0.850479958672E+03   -0.16200E-03   -0.41856E-01  4780   0.103E+00    0.139E-01
DAV:   2    -0.850480681226E+03   -0.72255E-03   -0.91142E-03  4820   0.138E-01    0.866E-02
DAV:   3    -0.850480670829E+03    0.10396E-04   -0.10892E-04  5460   0.194E-02    0.656E-02
DAV:   4    -0.850480749737E+03   -0.78908E-04   -0.19555E-04  5340   0.254E-02    0.154E-02
DAV:   5    -0.850480759540E+03   -0.98038E-05   -0.39163E-05  5160   0.974E-03    0.117E-02
DAV:   6    -0.850480758886E+03    0.65475E-06   -0.13341E-05  4460   0.661E-03    0.511E-03
DAV:   7    -0.850480759025E+03   -0.13903E-06   -0.15946E-06  4000   0.223E-03
  96 F= -.85842012E+03 E0= -.85842012E+03  d E =-.774020E-03  mag=     0.0000
quench:  g(F)=  0.000E+00 g(S)=  0.000E+00 dE (1.order)= 0.000E+00
 bond charge predicted
       N       E                     dE             d eps       ncg     rms          rms(c)
DAV:   1    -0.850480810806E+03   -0.51920E-04   -0.52162E-01  4820   0.119E+00    0.154E-01
DAV:   2    -0.850481713264E+03   -0.90246E-03   -0.11296E-02  4840   0.160E-01    0.961E-02
DAV:   3    -0.850481701934E+03    0.11330E-04   -0.13083E-04  5440   0.219E-02    0.728E-02
DAV:   4    -0.850481803295E+03   -0.10136E-03   -0.25107E-04  5380   0.293E-02    0.171E-02
DAV:   5    -0.850481811222E+03   -0.79270E-05   -0.46649E-05  5200   0.111E-02    0.134E-02
DAV:   6    -0.850481811187E+03    0.35856E-07   -0.20056E-05  4380   0.784E-03    0.552E-03
DAV:   7    -0.850481811420E+03   -0.23366E-06   -0.20274E-06  4340   0.250E-03
  97 F= -.85842097E+03 E0= -.85842097E+03  d E =-.854706E-03  mag=     0.0000
quench:  g(F)=  0.000E+00 g(S)=  0.000E+00 dE (1.order)= 0.000E+00
 bond charge predicted
       N       E                     dE             d eps       ncg     rms          rms(c)
DAV:   1    -0.850481582864E+03    0.22832E-03   -0.73234E-01  4820   0.143E+00    0.182E-01
DAV:   2    -0.850482869723E+03   -0.12869E-02   -0.15946E-02  4840   0.193E-01    0.114E-01
DAV:   3    -0.850482850849E+03    0.18874E-04   -0.18749E-04  5420   0.262E-02    0.860E-02
DAV:   4    -0.850482982985E+03   -0.13214E-03   -0.33949E-04  5440   0.344E-02    0.201E-02
DAV:   5    -0.850482992902E+03   -0.99167E-05   -0.64756E-05  5240   0.130E-02    0.154E-02
DAV:   6    -0.850482992631E+03    0.27083E-06   -0.25659E-05  4480   0.877E-03    0.644E-03
DAV:   7    -0.850482993105E+03   -0.47431E-06   -0.27799E-06  4460   0.290E-03
  98 F= -.85842195E+03 E0= -.85842195E+03  d E =-.973232E-03  mag=    -0.0000
quench:  g(F)=  0.000E+00 g(S)=  0.000E+00 dE (1.order)= 0.000E+00
 bond charge predicted
       N       E                     dE             d eps       ncg     rms          rms(c)
DAV:   1    -0.850482253338E+03    0.73929E-03   -0.10475E+00  4820   0.171E+00    0.218E-01
DAV:   2    -0.850484122153E+03   -0.18688E-02   -0.23007E-02  4880   0.231E-01    0.137E-01
DAV:   3    -0.850484089879E+03    0.32274E-04   -0.27874E-04  5540   0.317E-02    0.104E-01
DAV:   4    -0.850484260502E+03   -0.17062E-03   -0.49241E-04  5400   0.412E-02    0.249E-02
DAV:   5    -0.850484278671E+03   -0.18168E-04   -0.96119E-05  5280   0.157E-02    0.189E-02
DAV:   6    -0.850484276764E+03    0.19061E-05   -0.37768E-05  4600   0.104E-02    0.780E-03
DAV:   7    -0.850484277195E+03   -0.43084E-06   -0.40875E-06  4780   0.345E-03
  99 F= -.85842299E+03 E0= -.85842299E+03  d E =-.104592E-02  mag=    -0.0000
quench:  g(F)=  0.000E+00 g(S)=  0.000E+00 dE (1.order)= 0.000E+00
 bond charge predicted
       N       E                     dE             d eps       ncg     rms          rms(c)
DAV:   1    -0.850482799001E+03    0.14778E-02   -0.13843E+00  4820   0.199E+00    0.255E-01
DAV:   2    -0.850485294292E+03   -0.24953E-02   -0.30611E-02  4880   0.269E-01    0.163E-01
DAV:   3    -0.850485238956E+03    0.55336E-04   -0.39278E-04  5720   0.381E-02    0.124E-01
DAV:   4    -0.850485459784E+03   -0.22083E-03   -0.69432E-04  5360   0.500E-02    0.315E-02
DAV:   5    -0.850485480099E+03   -0.20315E-04   -0.13534E-04  5300   0.192E-02    0.230E-02
DAV:   6    -0.850485477808E+03    0.22909E-05   -0.62705E-05  4720   0.132E-02    0.920E-03
DAV:   7    -0.850485478226E+03   -0.41805E-06   -0.60469E-06  5220   0.417E-03
 100 F= -.85842393E+03 E0= -.85842393E+03  d E =-.943296E-03  mag=    -0.0000
quench:  g(F)=  0.000E+00 g(S)=  0.000E+00 dE (1.order)= 0.000E+00
 bond charge predicted
       N       E                     dE             d eps       ncg     rms          rms(c)
DAV:   1    -0.850481765609E+03    0.37122E-02   -0.21981E+00  4720   0.245E+00    0.328E-01
DAV:   2    -0.850485904882E+03   -0.41393E-02   -0.50408E-02  4900   0.335E-01    0.216E-01
DAV:   3    -0.850485731453E+03    0.17343E-03   -0.78153E-04  5760   0.516E-02    0.164E-01
DAV:   4    -0.850485906499E+03   -0.17505E-03   -0.11387E-03  5220   0.634E-02    0.462E-02
DAV:   5    -0.850485975002E+03   -0.68503E-04   -0.26219E-04  5280   0.252E-02    0.304E-02
DAV:   6    -0.850485969707E+03    0.52952E-05   -0.89016E-05  5200   0.159E-02    0.124E-02
DAV:   7    -0.850485970575E+03   -0.86827E-06   -0.90427E-06  5420   0.525E-03
 101 F= -.85842407E+03 E0= -.85842407E+03  d E =-.134851E-03  mag=     0.0000
quench:  g(F)=  0.000E+00 g(S)=  0.000E+00 dE (1.order)= 0.000E+00
 bond charge predicted
       N       E                     dE             d eps       ncg     rms          rms(c)
DAV:   1    -0.850487656544E+03   -0.16868E-02   -0.96576E-02  4720   0.601E-01    0.684E-02
DAV:   2    -0.850487835205E+03   -0.17866E-03   -0.24808E-03  5720   0.868E-02    0.625E-02
DAV:   3    -0.850487795846E+03    0.39359E-04   -0.84999E-05  6140   0.169E-02    0.498E-02
DAV:   4    -0.850487753745E+03    0.42101E-04   -0.92758E-05  5100   0.194E-02    0.207E-02
DAV:   5    -0.850487753290E+03    0.45525E-06   -0.31152E-05  5180   0.942E-03    0.796E-03
DAV:   6    -0.850487753609E+03   -0.31868E-06   -0.24753E-06  3880   0.302E-03
 102 F= -.85842584E+03 E0= -.85842584E+03  d E =-.177534E-02  mag=    -0.0000
quench:  g(F)=  0.000E+00 g(S)=  0.000E+00 dE (1.order)= 0.000E+00
 bond charge predicted
       N       E                     dE             d eps       ncg     rms          rms(c)
DAV:   1    -0.850486392309E+03    0.13610E-02   -0.84352E-02  4680   0.558E-01    0.641E-02
DAV:   2    -0.850486560122E+03   -0.16781E-03   -0.22142E-03  5660   0.811E-02    0.568E-02
DAV:   3    -0.850486530925E+03    0.29197E-04   -0.71511E-05  6040   0.156E-02    0.453E-02
DAV:   4    -0.850486502105E+03    0.28820E-04   -0.78819E-05  4960   0.179E-02    0.185E-02
DAV:   5    -0.850486503302E+03   -0.11971E-05   -0.24452E-05  5180   0.837E-03    0.797E-03
DAV:   6    -0.850486503583E+03   -0.28082E-06   -0.28806E-06  4040   0.312E-03
 103 F= -.85842456E+03 E0= -.85842456E+03  d E =0.128822E-02  mag=    -0.0000
quench:  g(F)=  0.000E+00 g(S)=  0.000E+00 dE (1.order)= 0.000E+00
 bond charge predicted
       N       E                     dE             d eps       ncg     rms          rms(c)
DAV:   1    -0.850487158442E+03   -0.65514E-03   -0.52669E-03  4700   0.138E-01    0.161E-02
DAV:   2    -0.850487167556E+03   -0.91144E-05   -0.13417E-04  5640   0.199E-02    0.147E-02
DAV:   3    -0.850487165281E+03    0.22751E-05   -0.45280E-06  4980   0.397E-03    0.117E-02
DAV:   4    -0.850487162772E+03    0.25089E-05   -0.60703E-06  4760   0.484E-03    0.486E-03
DAV:   5    -0.850487162758E+03    0.14435E-07   -0.17177E-06  3480   0.222E-03
 104 F= -.85842521E+03 E0= -.85842521E+03  d E =-.653317E-03  mag=    -0.0000
quench:  g(F)=  0.000E+00 g(S)=  0.000E+00 dE (1.order)= 0.000E+00
 bond charge predicted
       N       E                     dE             d eps       ncg     rms          rms(c)
DAV:   1    -0.850487853608E+03   -0.69084E-03   -0.16208E-02  4700   0.241E-01    0.281E-02
DAV:   2    -0.850487884466E+03   -0.30858E-04   -0.41650E-04  5640   0.348E-02    0.249E-02
DAV:   3    -0.850487878579E+03    0.58867E-05   -0.13868E-05  6040   0.684E-03    0.197E-02
DAV:   4    -0.850487872893E+03    0.56859E-05   -0.13676E-05  4980   0.744E-03    0.839E-03
DAV:   5    -0.850487873008E+03   -0.11484E-06   -0.48522E-06  4320   0.376E-03
 105 F= -.85842591E+03 E0= -.85842591E+03  d E =-.698322E-03  mag=     0.0000
quench:  g(F)=  0.000E+00 g(S)=  0.000E+00 dE (1.order)= 0.000E+00
 bond charge predicted
       N       E                     dE             d eps       ncg     rms          rms(c)
DAV:   1    -0.850487988034E+03   -0.11514E-03   -0.22547E-02  4660   0.283E-01    0.333E-02
[...]
DAV:   2    -0.850518106182E+03   -0.81225E-05   -0.10509E-04  5140   0.189E-02    0.936E-03
DAV:   3    -0.850518105956E+03    0.22606E-06   -0.13930E-06  4240   0.264E-03
 226 F= -.85844438E+03 E0= -.85844438E+03  d E =-.343627E-04  mag=    -0.0000
quench:  g(F)=  0.000E+00 g(S)=  0.000E+00 dE (1.order)= 0.000E+00
 bond charge predicted
       N       E                     dE             d eps       ncg     rms          rms(c)
DAV:   1    -0.850518136868E+03   -0.30686E-04   -0.61944E-03  4720   0.148E-01    0.167E-02
DAV:   2    -0.850518146610E+03   -0.97427E-05   -0.13165E-04  5120   0.202E-02    0.113E-02
DAV:   3    -0.850518146507E+03    0.10312E-06   -0.20507E-06  4320   0.309E-03
 227 F= -.85844440E+03 E0= -.85844440E+03  d E =-.215625E-04  mag=     0.0000
quench:  g(F)=  0.000E+00 g(S)=  0.000E+00 dE (1.order)= 0.000E+00
 bond charge predicted
       N       E                     dE             d eps       ncg     rms          rms(c)
DAV:   1    -0.850518189119E+03   -0.42508E-04   -0.97836E-03  4720   0.171E-01    0.220E-02
DAV:   2    -0.850518203432E+03   -0.14313E-04   -0.20232E-04  4920   0.229E-02    0.143E-02
DAV:   3    -0.850518203822E+03   -0.38952E-06   -0.27711E-06  4460   0.341E-03
 228 F= -.85844442E+03 E0= -.85844442E+03  d E =-.205813E-04  mag=    -0.0000
quench:  g(F)=  0.000E+00 g(S)=  0.000E+00 dE (1.order)= 0.000E+00
 bond charge predicted
       N       E                     dE             d eps       ncg     rms          rms(c)
DAV:   1    -0.850518277802E+03   -0.74370E-04   -0.17110E-02  4720   0.208E-01    0.295E-02
DAV:   2    -0.850518302056E+03   -0.24254E-04   -0.34602E-04  4700   0.271E-02    0.188E-02
DAV:   3    -0.850518303063E+03   -0.10075E-05   -0.43105E-06  4520   0.408E-03    0.140E-02
DAV:   4    -0.850518309061E+03   -0.59981E-05   -0.70238E-06  4300   0.517E-03    0.318E-03
DAV:   5    -0.850518309354E+03   -0.29235E-06   -0.16269E-06  3900   0.208E-03
 229 F= -.85844447E+03 E0= -.85844447E+03  d E =-.438366E-04  mag=     0.0000
quench:  g(F)=  0.000E+00 g(S)=  0.000E+00 dE (1.order)= 0.000E+00
 bond charge predicted
       N       E                     dE             d eps       ncg     rms          rms(c)
DAV:   1    -0.850518388004E+03   -0.78943E-04   -0.31795E-02  4780   0.267E-01    0.391E-02
DAV:   2    -0.850518438436E+03   -0.50432E-04   -0.66737E-04  4640   0.349E-02    0.244E-02
DAV:   3    -0.850518438446E+03   -0.97061E-08   -0.80271E-06  5220   0.537E-03
 230 F= -.85844451E+03 E0= -.85844451E+03  d E =-.385037E-04  mag=     0.0000
quench:  g(F)=  0.000E+00 g(S)=  0.000E+00 dE (1.order)= 0.000E+00
 bond charge predicted
       N       E                     dE             d eps       ncg     rms          rms(c)
DAV:   1    -0.850518509640E+03   -0.71204E-04   -0.54641E-02  4720   0.335E-01    0.547E-02
DAV:   2    -0.850518587001E+03   -0.77361E-04   -0.10765E-03  4640   0.421E-02    0.342E-02
DAV:   3    -0.850518591363E+03   -0.43615E-05   -0.12496E-05  5440   0.644E-03    0.252E-02
DAV:   4    -0.850518610664E+03   -0.19301E-04   -0.21908E-05  4460   0.848E-03    0.513E-03
DAV:   5    -0.850518611091E+03   -0.42699E-06   -0.45642E-06  4460   0.339E-03
 231 F= -.85844456E+03 E0= -.85844456E+03  d E =-.509712E-04  mag=    -0.0000
quench:  g(F)=  0.000E+00 g(S)=  0.000E+00 dE (1.order)= 0.000E+00
 bond charge predicted
       N       E                     dE             d eps       ncg     rms          rms(c)
DAV:   1    -0.850518615928E+03   -0.52646E-05   -0.95048E-02  4760   0.437E-01    0.700E-02
DAV:   2    -0.850518767563E+03   -0.15163E-03   -0.20080E-03  4660   0.568E-02    0.425E-02
DAV:   3    -0.850518771518E+03   -0.39555E-05   -0.23458E-05  5760   0.884E-03    0.317E-02
DAV:   4    -0.850518797634E+03   -0.26116E-04   -0.41563E-05  4560   0.117E-02    0.726E-03
DAV:   5    -0.850518798581E+03   -0.94742E-06   -0.87512E-06  5000   0.473E-03
 232 F= -.85844459E+03 E0= -.85844459E+03  d E =-.375065E-04  mag=    -0.0000
quench:  g(F)=  0.000E+00 g(S)=  0.000E+00 dE (1.order)= 0.000E+00
 bond charge predicted
       N       E                     dE             d eps       ncg     rms          rms(c)
DAV:   1    -0.850518741002E+03    0.56632E-04   -0.15006E-01  4780   0.545E-01    0.885E-02
DAV:   2    -0.850518981376E+03   -0.24037E-03   -0.31968E-03  4680   0.710E-02    0.537E-02
DAV:   3    -0.850518987381E+03   -0.60045E-05   -0.37594E-05  5680   0.111E-02    0.399E-02
DAV:   4    -0.850519028509E+03   -0.41128E-04   -0.63137E-05  4660   0.144E-02    0.868E-03
DAV:   5    -0.850519030423E+03   -0.19141E-05   -0.13766E-05  5240   0.579E-03    0.661E-03
DAV:   6    -0.850519030347E+03    0.76034E-07   -0.38814E-06  3980   0.362E-03
 233 F= -.85844464E+03 E0= -.85844464E+03  d E =-.437873E-04  mag=     0.0000
quench:  g(F)=  0.000E+00 g(S)=  0.000E+00 dE (1.order)= 0.000E+00
 bond charge predicted
       N       E                     dE             d eps       ncg     rms          rms(c)
DAV:   1    -0.850518916113E+03    0.11431E-03   -0.19873E-01  4800   0.644E-01    0.992E-02
DAV:   2    -0.850519228968E+03   -0.31286E-03   -0.41598E-03  4760   0.835E-02    0.606E-02
DAV:   3    -0.850519236751E+03   -0.77823E-05   -0.47341E-05  5700   0.129E-02    0.452E-02
DAV:   4    -0.850519293242E+03   -0.56491E-04   -0.92310E-05  4800   0.173E-02    0.108E-02
DAV:   5    -0.850519294532E+03   -0.12896E-05   -0.18622E-05  5300   0.698E-03    0.829E-03
DAV:   6    -0.850519294744E+03   -0.21289E-06   -0.75034E-06  4340   0.452E-03
 234 F= -.85844469E+03 E0= -.85844469E+03  d E =-.560472E-04  mag=    -0.0000
quench:  g(F)=  0.000E+00 g(S)=  0.000E+00 dE (1.order)= 0.000E+00
 bond charge predicted
       N       E                     dE             d eps       ncg     rms          rms(c)
DAV:   1    -0.850519314029E+03   -0.19497E-04   -0.36751E-04  4720   0.391E-02    0.507E-03
DAV:   2    -0.850519314758E+03   -0.72941E-06   -0.10456E-05  5520   0.625E-03    0.413E-03
DAV:   3    -0.850519314648E+03    0.10990E-06   -0.31367E-07  2840   0.128E-03
 235 F= -.85844471E+03 E0= -.85844471E+03  d E =-.165454E-04  mag=     0.0000
quench:  g(F)=  0.000E+00 g(S)=  0.000E+00 dE (1.order)= 0.000E+00
 bond charge predicted
       N       E                     dE             d eps       ncg     rms          rms(c)
DAV:   1    -0.850519332385E+03   -0.17627E-04   -0.10758E-03  4720   0.667E-02    0.753E-03
DAV:   2    -0.850519334517E+03   -0.21327E-05   -0.27558E-05  5680   0.101E-02    0.617E-03
DAV:   3    -0.850519334334E+03    0.18293E-06   -0.60180E-07  3260   0.181E-03
 236 F= -.85844472E+03 E0= -.85844472E+03  d E =-.138156E-04  mag=    -0.0000
quench:  g(F)=  0.000E+00 g(S)=  0.000E+00 dE (1.order)= 0.000E+00
 bond charge predicted
       N       E                     dE             d eps       ncg     rms          rms(c)
DAV:   1    -0.850519345667E+03   -0.11149E-04   -0.12948E-03  4720   0.720E-02    0.787E-03
DAV:   2    -0.850519347923E+03   -0.22563E-05   -0.28454E-05  5460   0.101E-02    0.624E-03
DAV:   3    -0.850519347801E+03    0.12170E-06   -0.46726E-07  3180   0.158E-03
 237 F= -.85844473E+03 E0= -.85844473E+03  d E =-.786859E-05  mag=    -0.0000
quench:  g(F)=  0.000E+00 g(S)=  0.000E+00 dE (1.order)= 0.000E+00
 bond charge predicted
       N       E                     dE             d eps       ncg     rms          rms(c)
DAV:   1    -0.850519367277E+03   -0.19354E-04   -0.14893E-03  4720   0.762E-02    0.762E-03
DAV:   2    -0.850519369708E+03   -0.24316E-05   -0.30295E-05  4900   0.102E-02    0.557E-03
DAV:   3    -0.850519369676E+03    0.32465E-07   -0.35052E-07  3320   0.137E-03
 238 F= -.85844475E+03 E0= -.85844475E+03  d E =-.171741E-04  mag=     0.0000
quench:  g(F)=  0.000E+00 g(S)=  0.000E+00 dE (1.order)= 0.000E+00
 bond charge predicted
       N       E                     dE             d eps       ncg     rms          rms(c)
DAV:   1    -0.850519395981E+03   -0.26272E-04   -0.21516E-03  4720   0.922E-02    0.918E-03
DAV:   2    -0.850519399645E+03   -0.36646E-05   -0.46335E-05  5260   0.128E-02    0.668E-03
DAV:   3    -0.850519399544E+03    0.10173E-06   -0.65716E-07  3500   0.186E-03
 239 F= -.85844478E+03 E0= -.85844478E+03  d E =-.258212E-04  mag=    -0.0000
quench:  g(F)=  0.000E+00 g(S)=  0.000E+00 dE (1.order)= 0.000E+00
 bond charge predicted
       N       E                     dE             d eps       ncg     rms          rms(c)
DAV:   1    -0.850519422632E+03   -0.22987E-04   -0.28802E-03  4720   0.106E-01    0.111E-02
DAV:   2    -0.850519427378E+03   -0.47459E-05   -0.61969E-05  5240   0.147E-02    0.823E-03
DAV:   3    -0.850519427179E+03    0.19914E-06   -0.94917E-07  3860   0.219E-03
 240 F= -.85844480E+03 E0= -.85844480E+03  d E =-.221668E-04  mag=    -0.0000
quench:  g(F)=  0.000E+00 g(S)=  0.000E+00 dE (1.order)= 0.000E+00
 bond charge predicted
       N       E                     dE             d eps       ncg     rms          rms(c)
DAV:   1    -0.850519453226E+03   -0.25848E-04   -0.42367E-03  4720   0.124E-01    0.133E-02
DAV:   2    -0.850519459842E+03   -0.66162E-05   -0.87202E-05  5040   0.169E-02    0.962E-03
DAV:   3    -0.850519459709E+03    0.13370E-06   -0.11591E-06  4140   0.238E-03
 241 F= -.85844482E+03 E0= -.85844482E+03  d E =-.217507E-04  mag=    -0.0000
quench:  g(F)=  0.000E+00 g(S)=  0.000E+00 dE (1.order)= 0.000E+00
 bond charge predicted
       N       E                     dE             d eps       ncg     rms          rms(c)
DAV:   1    -0.850519501728E+03   -0.41886E-04   -0.63991E-03  4720   0.148E-01    0.159E-02
DAV:   2    -0.850519511348E+03   -0.96201E-05   -0.12799E-04  4780   0.198E-02    0.113E-02
DAV:   3    -0.850519511167E+03    0.18159E-06   -0.16577E-06  4380   0.276E-03
 242 F= -.85844485E+03 E0= -.85844485E+03  d E =-.329040E-04  mag=     0.0000
quench:  g(F)=  0.000E+00 g(S)=  0.000E+00 dE (1.order)= 0.000E+00
 bond charge predicted
       N       E                     dE             d eps       ncg     rms          rms(c)
DAV:   1    -0.850519556732E+03   -0.45384E-04   -0.10018E-02  4720   0.186E-01    0.203E-02
DAV:   2    -0.850519572305E+03   -0.15573E-04   -0.20623E-04  5040   0.253E-02    0.143E-02
DAV:   3    -0.850519571975E+03    0.32992E-06   -0.28116E-06  4720   0.356E-03
 243 F= -.85844488E+03 E0= -.85844488E+03  d E =-.313906E-04  mag=     0.0000
quench:  g(F)=  0.000E+00 g(S)=  0.000E+00 dE (1.order)= 0.000E+00
 bond charge predicted
       N       E                     dE             d eps       ncg     rms          rms(c)
DAV:   1    -0.850519620771E+03   -0.48467E-04   -0.14035E-02  4720   0.212E-01    0.248E-02
DAV:   2    -0.850519640492E+03   -0.19721E-04   -0.27423E-04  4660   0.279E-02    0.168E-02
DAV:   3    -0.850519640621E+03   -0.12836E-06   -0.40282E-06  5180   0.412E-03
 244 F= -.85844491E+03 E0= -.85844491E+03  d E =-.285331E-04  mag=    -0.0000
quench:  g(F)=  0.000E+00 g(S)=  0.000E+00 dE (1.order)= 0.000E+00
 bond charge predicted
       N       E                     dE             d eps       ncg     rms          rms(c)
DAV:   1    -0.850519696901E+03   -0.56409E-04   -0.21660E-02  4720   0.253E-01    0.319E-02
DAV:   2    -0.850519726651E+03   -0.29750E-04   -0.42393E-04  4700   0.331E-02    0.213E-02
DAV:   3    -0.850519727373E+03   -0.72205E-06   -0.65245E-06  5360   0.522E-03
 245 F= -.85844495E+03 E0= -.85844495E+03  d E =-.338702E-04  mag=     0.0000
quench:  g(F)=  0.000E+00 g(S)=  0.000E+00 dE (1.order)= 0.000E+00
 bond charge predicted
       N       E                     dE             d eps       ncg     rms          rms(c)
DAV:   1    -0.850519780903E+03   -0.54252E-04   -0.34385E-02  4720   0.303E-01    0.418E-02
DAV:   2    -0.850519828193E+03   -0.47290E-04   -0.66842E-04  4740   0.390E-02    0.275E-02
DAV:   3    -0.850519829254E+03   -0.10607E-05   -0.97147E-06  5640   0.622E-03    0.200E-02
DAV:   4    -0.850519840593E+03   -0.11339E-04   -0.13189E-05  4420   0.760E-03    0.470E-03
DAV:   5    -0.850519841225E+03   -0.63284E-06   -0.36147E-06  4360   0.311E-03
 246 F= -.85844499E+03 E0= -.85844499E+03  d E =-.399470E-04  mag=     0.0000
quench:  g(F)=  0.000E+00 g(S)=  0.000E+00 dE (1.order)= 0.000E+00
 bond charge predicted
       N       E                     dE             d eps       ncg     rms          rms(c)
DAV:   1    -0.850519881618E+03   -0.41025E-04   -0.58920E-02  4800   0.384E-01    0.532E-02
DAV:   2    -0.850519975065E+03   -0.93447E-04   -0.12332E-03  4820   0.512E-02    0.333E-02
DAV:   3    -0.850519974980E+03    0.84918E-07   -0.16262E-05  5820   0.788E-03    0.246E-02
DAV:   4    -0.850519989543E+03   -0.14563E-04   -0.23476E-05  4540   0.997E-03    0.595E-03
DAV:   5    -0.850519990548E+03   -0.10055E-05   -0.61764E-06  4800   0.409E-03    0.414E-03
DAV:   6    -0.850519990580E+03   -0.32029E-07   -0.13425E-06  3520   0.223E-03
 247 F= -.85844502E+03 E0= -.85844502E+03  d E =-.369813E-04  mag=     0.0000
quench:  g(F)=  0.000E+00 g(S)=  0.000E+00 dE (1.order)= 0.000E+00
 bond charge predicted
       N       E                     dE             d eps       ncg     rms          rms(c)
DAV:   1    -0.850520000545E+03   -0.99963E-05   -0.96891E-02  4800   0.463E-01    0.694E-02
DAV:   2    -0.850520152009E+03   -0.15146E-03   -0.20000E-03  4700   0.596E-02    0.427E-02
DAV:   3    -0.850520152261E+03   -0.25256E-06   -0.26681E-05  5800   0.997E-03    0.313E-02
DAV:   4    -0.850520175390E+03   -0.23129E-04   -0.36393E-05  4660   0.120E-02    0.749E-03
DAV:   5    -0.850520177172E+03   -0.17817E-05   -0.98537E-06  5190   0.510E-03    0.494E-03
DAV:   6    -0.850520177221E+03   -0.49193E-07   -0.16730E-06  3660   0.257E-03
 248 F= -.85844506E+03 E0= -.85844506E+03  d E =-.347653E-04  mag=    -0.0000
quench:  g(F)=  0.000E+00 g(S)=  0.000E+00 dE (1.order)= 0.000E+00
 bond charge predicted
       N       E                     dE             d eps       ncg     rms          rms(c)
DAV:   1    -0.850520110576E+03    0.66596E-04   -0.15007E-01  4800   0.563E-01    0.874E-02
DAV:   2    -0.850520344996E+03   -0.23442E-03   -0.31075E-03  4740   0.725E-02    0.540E-02
DAV:   3    -0.850520349390E+03   -0.43949E-05   -0.40926E-05  5820   0.121E-02    0.397E-02
DAV:   4    -0.850520384791E+03   -0.35401E-04   -0.63767E-05  4880   0.155E-02    0.957E-03
DAV:   5    -0.850520386956E+03   -0.21645E-05   -0.15166E-05  5200   0.635E-03    0.675E-03
DAV:   6    -0.850520386965E+03   -0.91677E-08   -0.37507E-06  4040   0.359E-03
 249 F= -.85844508E+03 E0= -.85844508E+03  d E =-.189360E-04  mag=     0.0000
quench:  g(F)=  0.000E+00 g(S)=  0.000E+00 dE (1.order)= 0.000E+00
 bond charge predicted
       N       E                     dE             d eps       ncg     rms          rms(c)
DAV:   1    -0.850520177159E+03    0.20980E-03   -0.23204E-01  4760   0.708E-01    0.109E-01
DAV:   2    -0.850520543886E+03   -0.36673E-03   -0.49108E-03  4980   0.930E-02    0.690E-02
DAV:   3    -0.850520545141E+03   -0.12546E-05   -0.69237E-05  5840   0.159E-02    0.508E-02
DAV:   4    -0.850520602275E+03   -0.57134E-04   -0.10593E-04  5100   0.202E-02    0.128E-02
DAV:   5    -0.850520606266E+03   -0.39906E-05   -0.25270E-05  5240   0.834E-03    0.864E-03
DAV:   6    -0.850520606678E+03   -0.41218E-06   -0.67677E-06  4420   0.451E-03
 250 F= -.85844504E+03 E0= -.85844504E+03  d E =0.318170E-04  mag=     0.0000
quench:  g(F)=  0.000E+00 g(S)=  0.000E+00 dE (1.order)= 0.000E+00
 bond charge predicted
       N       E                     dE             d eps       ncg     rms          rms(c)
DAV:   1    -0.850519842694E+03    0.76357E-03   -0.34408E-01  4720   0.919E-01    0.133E-01
DAV:   2    -0.850520413579E+03   -0.57088E-03   -0.75894E-03  5220   0.125E-01    0.888E-02
DAV:   3    -0.850520381906E+03    0.31674E-04   -0.15893E-04  5840   0.243E-02    0.654E-02
DAV:   4    -0.850520427953E+03   -0.46048E-04   -0.15668E-04  4880   0.258E-02    0.222E-02
DAV:   5    -0.850520443304E+03   -0.15351E-04   -0.42943E-05  5080   0.108E-02    0.123E-02
DAV:   6    -0.850520444507E+03   -0.12032E-05   -0.97576E-06  4920   0.583E-03    0.530E-03
DAV:   7    -0.850520444716E+03   -0.20869E-06   -0.10032E-06  3940   0.204E-03
 251 F= -.85844462E+03 E0= -.85844462E+03  d E =0.420382E-03  mag=    -0.0000
quench:  g(F)=  0.000E+00 g(S)=  0.000E+00 dE (1.order)= 0.000E+00
 bond charge predicted
       N       E                     dE             d eps       ncg     rms          rms(c)
DAV:   1    -0.850520956714E+03   -0.51221E-03   -0.32263E-02  4700   0.362E-01    0.410E-02
DAV:   2    -0.850521016598E+03   -0.59883E-04   -0.86604E-04  5680   0.549E-02    0.364E-02
DAV:   3    -0.850521002002E+03    0.14596E-04   -0.36560E-05  6100   0.114E-02    0.281E-02
DAV:   4    -0.850520989379E+03    0.12623E-04   -0.26692E-05  5020   0.109E-02    0.129E-02
DAV:   5    -0.850520988799E+03    0.57986E-06   -0.95176E-06  5000   0.582E-03
 252 F= -.85844515E+03 E0= -.85844515E+03  d E =-.524502E-03  mag=    -0.0000
quench:  g(F)=  0.000E+00 g(S)=  0.000E+00 dE (1.order)= 0.000E+00
 bond charge predicted
       N       E                     dE             d eps       ncg     rms          rms(c)
DAV:   1    -0.850520994731E+03   -0.53515E-05   -0.62357E-05  4800   0.142E-02    0.305E-03
DAV:   2    -0.850520994808E+03   -0.77518E-07   -0.17469E-06  3500   0.227E-03
 253 F= -.85844515E+03 E0= -.85844515E+03  d E =-.281858E-05  mag=     0.0000
quench:  g(F)=  0.000E+00 g(S)=  0.000E+00 dE (1.order)= 0.000E+00
 bond charge predicted
       N       E                     dE             d eps       ncg     rms          rms(c)
DAV:   1    -0.850521003436E+03   -0.87059E-05   -0.21416E-04  4680   0.255E-02    0.443E-03
DAV:   2    -0.850521003702E+03   -0.26554E-06   -0.48856E-06  4420   0.358E-03
 254 F= -.85844515E+03 E0= -.85844515E+03  d E =-.247224E-05  mag=     0.0000
quench:  g(F)=  0.000E+00 g(S)=  0.000E+00 dE (1.order)= 0.000E+00
 bond charge predicted
       N       E                     dE             d eps       ncg     rms          rms(c)
DAV:   1    -0.850521013068E+03   -0.96316E-05   -0.40870E-04  4720   0.343E-02    0.664E-03
DAV:   2    -0.850521013461E+03   -0.39309E-06   -0.88084E-06  5060   0.462E-03
 255 F= -.85844515E+03 E0= -.85844515E+03  d E =-.921651E-07  mag=    -0.0000
quench:  g(F)=  0.000E+00 g(S)=  0.000E+00 dE (1.order)= 0.000E+00
 bond charge predicted
       N       E                     dE             d eps       ncg     rms          rms(c)
DAV:   1    -0.850521024127E+03   -0.11059E-04   -0.61792E-04  4720   0.407E-02    0.859E-03
DAV:   2    -0.850521024615E+03   -0.48775E-06   -0.12633E-05  5020   0.531E-03    0.642E-03
DAV:   3    -0.850521024857E+03   -0.24178E-06   -0.38989E-07  3140   0.137E-03
 256 F= -.85844515E+03 E0= -.85844515E+03  d E =0.140994E-05  mag=     0.0000
quench:  g(F)=  0.000E+00 g(S)=  0.000E+00 dE (1.order)= 0.000E+00
 bond charge predicted
       N       E                     dE             d eps       ncg     rms          rms(c)
DAV:   1    -0.850521039577E+03   -0.14962E-04   -0.84705E-04  4720   0.462E-02    0.734E-03
DAV:   2    -0.850521040717E+03   -0.11404E-05   -0.16822E-05  4820   0.589E-03    0.495E-03
DAV:   3    -0.850521040848E+03   -0.13051E-06   -0.21680E-07  3120   0.989E-04
 257 F= -.85844515E+03 E0= -.85844515E+03  d E =-.353336E-06  mag=    -0.0000
quench:  g(F)=  0.000E+00 g(S)=  0.000E+00 dE (1.order)= 0.000E+00
 bond charge predicted
       N       E                     dE             d eps       ncg     rms          rms(c)
DAV:   1    -0.850521059898E+03   -0.19181E-04   -0.11484E-03  4720   0.534E-02    0.821E-03
DAV:   2    -0.850521061504E+03   -0.16065E-05   -0.23209E-05  4840   0.686E-03    0.553E-03
DAV:   3    -0.850521061636E+03   -0.13228E-06   -0.30182E-07  3380   0.112E-03
 258 F= -.85844516E+03 E0= -.85844516E+03  d E =-.276761E-05  mag=     0.0000
quench:  g(F)=  0.000E+00 g(S)=  0.000E+00 dE (1.order)= 0.000E+00
 reached required accuracy - stopping structural energy minimisation
