unknown system                          
           1
    17.271038    0.000000    0.000000
    -8.635519   14.957158    0.000000
     0.000000    0.000000   15.000000
   C    F    H    O 
    88     8     2     1
Direct configuration=     1
   0.00283155  0.00152786  0.50518498
   0.00196177  0.14372935  0.50288132
   0.00100875  0.28600449  0.50004258
   0.00074387  0.42896358  0.49544614
   0.00098948  0.57215515  0.49473240
   0.00255701  0.71546369  0.49641524
   0.00347632  0.85903016  0.50223686
   0.14557595  0.00171599  0.51523505
   0.14510214  0.14448505  0.51988630
   0.14273174  0.28558374  0.52373324
   0.14175317  0.42814573  0.51782133
   0.14305005  0.57146669  0.51042702
   0.14419072  0.71480305  0.50993967
   0.14512992  0.85826197  0.51049105
   0.28773445  0.00099882  0.51663322
   0.28797468  0.14427316  0.52959922
   0.28471976  0.28588085  0.55728254
   0.27688999  0.42557187  0.56613708
   0.28350776  0.56986811  0.53692579
   0.28611716  0.71472610  0.52263300
   0.28733225  0.85790568  0.51512539
   0.43048233  0.00042523  0.51142021
   0.43034319  0.14330590  0.51407945
   0.42941622  0.28010869  0.54415633
   0.42475035  0.71513191  0.50873728
   0.43004087  0.85720104  0.51712411
   0.57293075  0.00002303  0.50296730
   0.57306014  0.14296254  0.50135642
   0.57293215  0.28582657  0.49518070
   0.57395140  0.85744988  0.51240099
   0.71608169  0.00058740  0.49611091
   0.71581848  0.14332752  0.49294993
   0.71554021  0.28628513  0.48546297
   0.71499625  0.42836933  0.46234453
   0.73026250  0.58158489  0.43024146
   0.72518911  0.72180242  0.45950822
   0.71746379  0.85873096  0.50002942
   0.85978036  0.00127887  0.49370688
   0.85872994  0.14342509  0.49249591
   0.85838977  0.28610824  0.48820114
   0.85836423  0.42917724  0.48139919
   0.85927550  0.57300231  0.47577127
   0.86258793  0.71754939  0.48011013
   0.86102811  0.85890107  0.49390375
   0.05025525  0.09684980  0.50861061
   0.04867525  0.23850072  0.50751679
   0.04767599  0.38101240  0.50307830
   0.04835719  0.52421927  0.49949234
   0.04923979  0.66739126  0.50039102
   0.05016552  0.81068318  0.50351950
   0.05052881  0.95399049  0.50831358
   0.19278802  0.09661883  0.52258651
   0.19144436  0.23912778  0.53159868
   0.18744975  0.37995738  0.53318289
   0.18927423  0.52301363  0.52009071
   0.19092626  0.66692978  0.51594544
   0.19224582  0.81031415  0.51240468
   0.19272717  0.95349069  0.51492166
   0.33540063  0.09647554  0.52078772
   0.33548374  0.23873320  0.54724464
   0.31727172  0.37373728  0.58809545
   0.32073661  0.52020942  0.57059051
   0.33294266  0.66629197  0.52555271
   0.33471037  0.80992713  0.51825782
   0.33509745  0.95313069  0.51445435
   0.47799652  0.09557063  0.50758585
   0.47797824  0.23855842  0.51621961
   0.47736351  0.80891482  0.51494004
   0.47801647  0.95264018  0.51125586
   0.62050690  0.09528127  0.49839040
   0.62068207  0.23825584  0.49455433
   0.62141024  0.37589216  0.46822839
   0.62723488  0.81750905  0.52385393
   0.62089909  0.95249668  0.50149034
   0.76357029  0.09590012  0.49311979
   0.76329019  0.23850463  0.48823474
   0.76304137  0.38148049  0.47660152
   0.76493448  0.52623436  0.45395608
   0.77053475  0.67270357  0.45545092
   0.76549632  0.81070315  0.48705314
   0.76439916  0.95376449  0.49364954
   0.90684179  0.09606431  0.49513544
   0.90604928  0.23852821  0.49257139
   0.90569305  0.38152530  0.48763572
   0.90601316  0.52480936  0.48423305
   0.90800400  0.66822023  0.48367522
   0.90874484  0.81172377  0.49299771
   0.90778041  0.95385140  0.49856899
   0.47843202  0.36589650  0.57043279
   0.38772816  0.41209821  0.64368824
   0.40255578  0.56513559  0.60817415
   0.63761336  0.67956210  0.43610477
   0.65697217  0.55161324  0.37763606
   0.57177488  0.41328762  0.44515213
   0.59249555  0.73802978  0.56667981
   0.46299488  0.66898591  0.47567745
   0.47997374  0.55510429  0.45373866
   0.50052955  0.47825992  0.45127827
   0.45356013  0.49153232  0.46497274
Direct configuration=     2
   0.00282423  0.00152330  0.50518018
   0.00195619  0.14372592  0.50288439
   0.00099836  0.28599746  0.50005104
   0.00073638  0.42895620  0.49545045
   0.00098655  0.57215587  0.49473714
   0.00255243  0.71546451  0.49641631
   0.00347047  0.85902743  0.50222967
   0.14557001  0.00171255  0.51523968
   0.14509986  0.14448313  0.51988951
   0.14272693  0.28558146  0.52373938
   0.14175079  0.42814480  0.51782074
   0.14305074  0.57146717  0.51042871
   0.14418967  0.71480343  0.50994532
   0.14512839  0.85826045  0.51049561
   0.28772779  0.00099259  0.51663653
   0.28797103  0.14426976  0.52960009
   0.28471692  0.28588068  0.55728086
   0.27689156  0.42557638  0.56611630
   0.28350737  0.56986809  0.53689721
   0.28611667  0.71472490  0.52261344
   0.28732914  0.85790349  0.51512451
   0.43047411  0.00042066  0.51141288
   0.43033519  0.14329907  0.51407660
   0.42940944  0.28010049  0.54416950
   0.42474232  0.71512710  0.50869544
   0.43003285  0.85719756  0.51710435
   0.57292582  0.00001893  0.50295142
   0.57305427  0.14295568  0.50135409
   0.57292908  0.28582376  0.49518482
   0.57394564  0.85744416  0.51235898
   0.71608130  0.00058813  0.49609122
   0.71581370  0.14332357  0.49294913
   0.71553339  0.28627595  0.48546561
   0.71499266  0.42836745  0.46234567
   0.73026047  0.58158127  0.43021228
   0.72519640  0.72180763  0.45944528
   0.71746065  0.85872529  0.49997890
   0.85977431  0.00127568  0.49368888
   0.85872498  0.14342295  0.49249739
   0.85838282  0.28610081  0.48820829
   0.85835807  0.42917116  0.48139837
   0.85927108  0.57300287  0.47576861
   0.86258001  0.71754965  0.48008834
   0.86102597  0.85889943  0.49387333
   0.05025247  0.09684838  0.50861533
   0.04866805  0.23849967  0.50752101
   0.04766974  0.38101046  0.50308686
   0.04834746  0.52421631  0.49949923
   0.04923100  0.66738214  0.50039756
   0.05016026  0.81067641  0.50352103
   0.05052494  0.95398764  0.50831008
   0.19278432  0.09661738  0.52259054
   0.19143885  0.23912588  0.53160292
   0.18744396  0.37995320  0.53317706
   0.18926512  0.52301019  0.52007978
   0.19091517  0.66692339  0.51594223
   0.19223862  0.81030610  0.51240568
   0.19272090  0.95348595  0.51491989
   0.33539557  0.09647252  0.52079028
   0.33547844  0.23872894  0.54724782
   0.31727075  0.37373775  0.58807690
   0.32073939  0.52021024  0.57055847
   0.33293974  0.66628924  0.52552287
   0.33470513  0.80992329  0.51824524
   0.33509295  0.95312819  0.51445282
   0.47798915  0.09556605  0.50758437
   0.47797146  0.23855345  0.51622244
   0.47735841  0.80891087  0.51490238
   0.47801320  0.95263399  0.51124507
   0.62050033  0.09527688  0.49838623
   0.62067644  0.23825252  0.49455457
   0.62141075  0.37589775  0.46824492
   0.62722943  0.81750190  0.52379335
   0.62089519  0.95249337  0.50146494
   0.76356383  0.09589662  0.49310936
   0.76328591  0.23850211  0.48823862
   0.76303734  0.38148054  0.47660118
   0.76493639  0.52622884  0.45395260
   0.77053746  0.67269971  0.45540949
   0.76549617  0.81070474  0.48700250
   0.76439088  0.95375971  0.49361593
   0.90683654  0.09606225  0.49513247
   0.90604356  0.23852755  0.49257834
   0.90569029  0.38152514  0.48764139
   0.90600914  0.52480518  0.48423616
   0.90800236  0.66821078  0.48366730
   0.90873938  0.81171783  0.49297423
   0.90777566  0.95385019  0.49855463
   0.47843234  0.36587878  0.57047320
   0.38773477  0.41211133  0.64366610
   0.40256875  0.56513965  0.60813367
   0.63762915  0.67958204  0.43600419
   0.65698062  0.55159374  0.37759939
   0.57178200  0.41330202  0.44519364
   0.59249606  0.73801325  0.56661113
   0.46298476  0.66897998  0.47562467
   0.48012615  0.55522712  0.45387688
   0.50064888  0.47833029  0.45147334
   0.45363999  0.49162005  0.46470570
Direct configuration=     3
   0.00281668  0.00151982  0.50517343
   0.00194929  0.14372281  0.50288928
   0.00098754  0.28599355  0.50006401
   0.00072913  0.42895360  0.49545885
   0.00097686  0.57215062  0.49474426
   0.00254480  0.71545689  0.49641773
   0.00346324  0.85902079  0.50221855
   0.14556261  0.00170766  0.51524483
   0.14509531  0.14448108  0.51989491
   0.14271705  0.28557677  0.52374750
   0.14173926  0.42813923  0.51781855
   0.14303689  0.57146250  0.51042939
   0.14417814  0.71479552  0.50995274
   0.14512127  0.85825321  0.51050148
   0.28771849  0.00098636  0.51664105
   0.28796471  0.14426531  0.52960181
   0.28471130  0.28587772  0.55727738
   0.27689226  0.42557783  0.56608493
   0.28350260  0.56986542  0.53685521
   0.28610956  0.71471911  0.52258522
   0.28732119  0.85789774  0.51512264
   0.43046648  0.00041463  0.51140374
   0.43032542  0.14329254  0.51407396
   0.42939998  0.28008684  0.54418861
   0.42473409  0.71512417  0.50863507
   0.43002462  0.85719117  0.51707442
   0.57291860  0.00001144  0.50292813
   0.57304434  0.14294781  0.50135081
   0.57292385  0.28582216  0.49519104
   0.57393970  0.85743832  0.51229547
   0.71607517  0.00058445  0.49606067
   0.71580505  0.14331798  0.49294748
   0.71552629  0.28627065  0.48546748
   0.71499125  0.42836615  0.46234868
   0.73026137  0.58156851  0.43016987
   0.72520679  0.72181545  0.45935158
   0.71745385  0.85871890  0.49990220
   0.85976495  0.00127200  0.49366291
   0.85871752  0.14341979  0.49249828
   0.85837526  0.28609745  0.48821877
   0.85835139  0.42916710  0.48139771
   0.85926650  0.57299637  0.47576505
   0.86257618  0.71754179  0.48005900
   0.86102254  0.85889780  0.49382747
   0.05024604  0.09684406  0.50862157
   0.04865757  0.23849514  0.50752824
   0.04766283  0.38100498  0.50309872
   0.04834177  0.52421115  0.49951037
   0.04922518  0.66737985  0.50040760
   0.05015436  0.81067377  0.50352349
   0.05051645  0.95398250  0.50830490
   0.19277839  0.09661322  0.52259625
   0.19143223  0.23912315  0.53160801
   0.18743869  0.37995077  0.53316923
   0.18926040  0.52300796  0.52006622
   0.19091024  0.66692008  0.51593938
   0.19223752  0.81030373  0.51240876
   0.19271277  0.95348044  0.51491874
   0.33538607  0.09646462  0.52079363
   0.33547038  0.23872327  0.54725282
   0.31727080  0.37374325  0.58804961
   0.32074551  0.52021298  0.57051152
   0.33293469  0.66628491  0.52547870
   0.33469719  0.80991895  0.51822663
   0.33508435  0.95312252  0.51445069
   0.47797883  0.09555804  0.50758134
   0.47796202  0.23854555  0.51622666
   0.47734832  0.80890378  0.51484567
   0.47800505  0.95262735  0.51122809
   0.62049185  0.09527162  0.49838005
   0.62066879  0.23824450  0.49455425
   0.62140911  0.37590103  0.46827089
   0.62722066  0.81748846  0.52370351
   0.62089044  0.95248962  0.50142648
   0.76355664  0.09589234  0.49309593
   0.76327790  0.23849459  0.48824469
   0.76302913  0.38147179  0.47660251
   0.76493155  0.52622590  0.45394273
   0.77053655  0.67269655  0.45534828
   0.76549740  0.81070559  0.48692613
   0.76438217  0.95375443  0.49356610
   0.90682782  0.09605814  0.49512792
   0.90603220  0.23852234  0.49258843
   0.90568091  0.38151664  0.48764940
   0.90600309  0.52480017  0.48424035
   0.90799659  0.66821011  0.48365603
   0.90873327  0.81171263  0.49294132
   0.90776750  0.95384601  0.49853264
   0.47843329  0.36585334  0.57053510
   0.38774571  0.41213259  0.64363338
   0.40258638  0.56514350  0.60807279
   0.63765100  0.67960892  0.43584984
   0.65699435  0.55156638  0.37754681
   0.57179133  0.41332577  0.44525732
   0.59249463  0.73798632  0.56650667
   0.46297096  0.66897304  0.47554554
   0.48037341  0.55544157  0.45407432
   0.50085428  0.47843691  0.45175433
   0.45370565  0.49171449  0.46432521
Direct configuration=     4
   0.00280827  0.00151658  0.50516548
   0.00193953  0.14371845  0.50289655
   0.00097801  0.28599262  0.50007999
   0.00072123  0.42895262  0.49547277
   0.00096452  0.57214136  0.49475406
   0.00253476  0.71544495  0.49642020
   0.00345421  0.85901171  0.50220389
   0.14555424  0.00170193  0.51524955
   0.14508704  0.14447751  0.51990336
   0.14270408  0.28556973  0.52375826
   0.14173069  0.42813468  0.51781692
   0.14301722  0.57145329  0.51043111
   0.14416147  0.71478335  0.50996323
   0.14510960  0.85824211  0.51050892
   0.28770809  0.00097937  0.51664611
   0.28795510  0.14425933  0.52960390
   0.28470456  0.28587541  0.55727283
   0.27689312  0.42557791  0.56604460
   0.28349533  0.56985905  0.53680502
   0.28609723  0.71470994  0.52255101
   0.28731423  0.85789190  0.51512017
   0.43045794  0.00040621  0.51139469
   0.43031361  0.14328514  0.51407235
   0.42939020  0.28006795  0.54421290
   0.42472750  0.71512234  0.50855881
   0.43001673  0.85718330  0.51703833
   0.57290835  0.00000160  0.50289954
   0.57303026  0.14293927  0.50134752
   0.57291521  0.28581942  0.49520059
   0.57393152  0.85742990  0.51221280
   0.71606305  0.00057600  0.49601951
   0.71579250  0.14331034  0.49294564
   0.71551766  0.28626675  0.48546946
   0.71498971  0.42836322  0.46235435
   0.73026580  0.58155082  0.43011486
   0.72521492  0.72182112  0.45923329
   0.71744461  0.85871267  0.49980147
   0.85975306  0.00126748  0.49362968
   0.85870657  0.14341478  0.49249878
   0.85836495  0.28609535  0.48823297
   0.85834350  0.42916324  0.48139950
   0.85926103  0.57298558  0.47576051
   0.86257253  0.71752717  0.48002212
   0.86101772  0.85889631  0.49376848
   0.05023592  0.09683780  0.50862922
   0.04864410  0.23848747  0.50754007
   0.04765258  0.38099781  0.50311324
   0.04833520  0.52420389  0.49952565
   0.04921883  0.66738030  0.50042128
   0.05014666  0.81067149  0.50352688
   0.05050357  0.95397509  0.50829868
   0.19276951  0.09660630  0.52260383
   0.19142349  0.23911897  0.53161440
   0.18743141  0.37994902  0.53316017
   0.18925544  0.52300510  0.52005093
   0.19090727  0.66691788  0.51593754
   0.19223631  0.81030297  0.51241519
   0.19270200  0.95347328  0.51492009
   0.33537269  0.09645318  0.52079826
   0.33545971  0.23871632  0.54726019
   0.31727317  0.37375339  0.58801557
   0.32075403  0.52021717  0.57045130
   0.33292691  0.66627860  0.52542412
   0.33468678  0.80991295  0.51820340
   0.33507201  0.95311389  0.51444927
   0.47796606  0.09554773  0.50757715
   0.47795092  0.23853565  0.51623286
   0.47733824  0.80889770  0.51477240
   0.47799277  0.95262044  0.51120576
   0.62048077  0.09526402  0.49837257
   0.62065823  0.23823352  0.49455372
   0.62140706  0.37590248  0.46830629
   0.62721066  0.81747018  0.52359018
   0.62088640  0.95248946  0.50137773
   0.76354828  0.09588714  0.49308127
   0.76326619  0.23848394  0.48825336
   0.76301873  0.38145756  0.47660506
   0.76492559  0.52622378  0.45392958
   0.77053354  0.67269294  0.45526879
   0.76549684  0.81070550  0.48682600
   0.76437490  0.95374964  0.49350215
   0.90681647  0.09605237  0.49512244
   0.90601706  0.23851373  0.49260266
   0.90566651  0.38150464  0.48765855
   0.90599552  0.52479441  0.48424431
   0.90798737  0.66821281  0.48364217
   0.90872689  0.81170784  0.49289973
   0.90775671  0.95384019  0.49850290
   0.47843471  0.36581895  0.57061666
   0.38776004  0.41216179  0.64359040
   0.40260579  0.56514765  0.60799352
   0.63768619  0.67964584  0.43565212
   0.65701665  0.55153394  0.37748214
   0.57180263  0.41335932  0.44534172
   0.59249131  0.73794960  0.56636503
   0.46295204  0.66896663  0.47544220
   0.48070959  0.55573225  0.45432166
   0.50113935  0.47858420  0.45210578
   0.45374250  0.49180777  0.46382569
Direct configuration=     5
   0.00279665  0.00151103  0.50515676
   0.00192485  0.14371049  0.50290663
   0.00096601  0.28598889  0.50009951
   0.00070958  0.42894606  0.49549310
   0.00095475  0.57213287  0.49476807
   0.00252356  0.71543841  0.49642444
   0.00344639  0.85901042  0.50218977
   0.14554350  0.00169427  0.51525477
   0.14507435  0.14447062  0.51991549
   0.14268945  0.28556205  0.52377223
   0.14172623  0.42813232  0.51781809
   0.14300449  0.57144463  0.51043732
   0.14415103  0.71477673  0.50997891
   0.14510046  0.85823495  0.51051904
   0.28769602  0.00096982  0.51665079
   0.28794187  0.14425092  0.52960735
   0.28469787  0.28587496  0.55726887
   0.27689492  0.42558167  0.56600078
   0.28349152  0.56985285  0.53675215
   0.28608586  0.71470111  0.52251528
   0.28730868  0.85788700  0.51511879
   0.43044472  0.00039752  0.51138910
   0.43029899  0.14327407  0.51407245
   0.42937883  0.28004499  0.54424290
   0.42471869  0.71511636  0.50847240
   0.43000676  0.85717500  0.51700028
   0.57289504 -0.00000732  0.50286894
   0.57301395  0.14292951  0.50134522
   0.57290315  0.28581214  0.49521458
   0.57392089  0.85741817  0.51211728
   0.71605092  0.00056845  0.49597017
   0.71577804  0.14330051  0.49294329
   0.71550502  0.28625716  0.48547284
   0.71498378  0.42835569  0.46236164
   0.73027787  0.58153982  0.43004985
   0.72522336  0.72182651  0.45909745
   0.71743646  0.85870641  0.49968066
   0.85974137  0.00126359  0.49359551
   0.85869248  0.14340741  0.49249951
   0.85835024  0.28608908  0.48824973
   0.85833266  0.42915330  0.48140247
   0.85925430  0.57297836  0.47575442
   0.86256116  0.71751726  0.47997964
   0.86101233  0.85889271  0.49369925
   0.05022377  0.09683219  0.50863822
   0.04862933  0.23847950  0.50755803
   0.04763923  0.38099320  0.50313137
   0.04832100  0.52419543  0.49954494
   0.04920519  0.66737329  0.50043676
   0.05013529  0.81066200  0.50353071
   0.05049107  0.95396829  0.50829079
   0.19275737  0.09659826  0.52261313
   0.19141205  0.23911338  0.53162281
   0.18742028  0.37994473  0.53315139
   0.18924380  0.52299915  0.52003556
   0.19089571  0.66691026  0.51593745
   0.19222664  0.81029589  0.51242621
   0.19268952  0.95346369  0.51492698
   0.33535822  0.09644240  0.52080469
   0.33544894  0.23870938  0.54726858
   0.31727993  0.37376560  0.58797873
   0.32076036  0.52021777  0.57038211
   0.33291717  0.66627168  0.52536688
   0.33467639  0.80990418  0.51817833
   0.33506213  0.95310722  0.51445309
   0.47795131  0.09553732  0.50757292
   0.47793975  0.23852467  0.51624146
   0.47733272  0.80889335  0.51468839
   0.47798011  0.95261289  0.51118183
   0.62046558  0.09525317  0.49836509
   0.62064425  0.23822395  0.49455314
   0.62140826  0.37590653  0.46834665
   0.62720162  0.81745167  0.52345980
   0.62087834  0.95248661  0.50132178
   0.76353621  0.09587943  0.49306742
   0.76325178  0.23847460  0.48826484
   0.76300898  0.38144772  0.47660581
   0.76492442  0.52621615  0.45391616
   0.77053329  0.67268613  0.45517470
   0.76549298  0.81070497  0.48670938
   0.76436605  0.95374512  0.49342838
   0.90680602  0.09604815  0.49511779
   0.90600495  0.23850856  0.49262131
   0.90565518  0.38149983  0.48767031
   0.90598821  0.52478843  0.48424686
   0.90797753  0.66820482  0.48362797
   0.90871840  0.81169791  0.49285153
   0.90774685  0.95383742  0.49846679
   0.47843890  0.36577835  0.57071434
   0.38777780  0.41219933  0.64353848
   0.40263101  0.56514864  0.60790332
   0.63772807  0.67968352  0.43542114
   0.65704115  0.55149411  0.37740372
   0.57181459  0.41340102  0.44544671
   0.59249001  0.73790320  0.56618808
   0.46292792  0.66896282  0.47532984
   0.48110768  0.55604631  0.45460812
   0.50146407  0.47878064  0.45250760
   0.45376514  0.49190470  0.46318432
Direct configuration=     6
   0.00278377  0.00150462  0.50514944
   0.00190739  0.14370284  0.50291956
   0.00095117  0.28598111  0.50012399
   0.00069508  0.42893700  0.49551575
   0.00094669  0.57212698  0.49478694
   0.00251046  0.71543605  0.49643074
   0.00343869  0.85901005  0.50218074
   0.14552974  0.00168442  0.51525920
   0.14505822  0.14446101  0.51993205
   0.14267564  0.28555375  0.52378979
   0.14171886  0.42812923  0.51782334
   0.14300069  0.57143978  0.51044924
   0.14414504  0.71477502  0.51000088
   0.14509174  0.85822945  0.51053273
   0.28768212  0.00095808  0.51665727
   0.28792618  0.14424108  0.52961360
   0.28469240  0.28587598  0.55726724
   0.27689840  0.42558778  0.56595879
   0.28349357  0.56985037  0.53670345
   0.28607710  0.71469305  0.52248352
   0.28730127  0.85788089  0.51512125
   0.43042892  0.00039221  0.51139001
   0.43028221  0.14325951  0.51407505
   0.42936534  0.28002050  0.54427758
   0.42470634  0.71510915  0.50838633
   0.42999511  0.85716839  0.51696608
   0.57287933 -0.00001503  0.50284021
   0.57299763  0.14291863  0.50134494
   0.57289041  0.28580278  0.49523258
   0.57390987  0.85740617  0.51201677
   0.71604040  0.00056120  0.49591861
   0.71576217  0.14328879  0.49294261
   0.71548803  0.28624221  0.48547832
   0.71497604  0.42834547  0.46237050
   0.73029437  0.58153426  0.42997620
   0.72522784  0.72183076  0.45895583
   0.71742992  0.85870016  0.49954477
   0.85973205  0.00126091  0.49356103
   0.85867823  0.14340021  0.49250200
   0.85833322  0.28607867  0.48826965
   0.85832073  0.42914203  0.48140798
   0.85925041  0.57297780  0.47574586
   0.86254408  0.71751222  0.47993136
   0.86100462  0.85888692  0.49362414
   0.05020973  0.09682660  0.50864876
   0.04861379  0.23847205  0.50758328
   0.04762885  0.38099258  0.50315503
   0.04830275  0.52418811  0.49956855
   0.04918749  0.66735895  0.50045518
   0.05012248  0.81064988  0.50353552
   0.05048144  0.95396457  0.50828233
   0.19274179  0.09658935  0.52262402
   0.19139979  0.23910818  0.53163336
   0.18740760  0.37993700  0.53314598
   0.18922913  0.52298929  0.52002569
   0.19087569  0.66689658  0.51594133
   0.19221105  0.81028372  0.51244342
   0.19267836  0.95345557  0.51494007
   0.33534497  0.09643529  0.52081229
   0.33543858  0.23870180  0.54727836
   0.31728799  0.37377785  0.58793958
   0.32076619  0.52021471  0.57031150
   0.33290972  0.66626563  0.52531085
   0.33466785  0.80989363  0.51815509
   0.33505520  0.95310313  0.51446221
   0.47793497  0.09552778  0.50757067
   0.47792972  0.23851249  0.51625224
   0.47732847  0.80888844  0.51460477
   0.47796733  0.95260346  0.51115994
   0.62044687  0.09524196  0.49836062
   0.62062904  0.23821720  0.49455313
   0.62140767  0.37591157  0.46839047
   0.62719369  0.81743451  0.52331765
   0.62086197  0.95247519  0.50126416
   0.76352020  0.09586975  0.49305604
   0.76323562  0.23846679  0.48827929
   0.76300072  0.38144164  0.47660485
   0.76492904  0.52620228  0.45390303
   0.77054049  0.67268127  0.45507603
   0.76549381  0.81070476  0.48658456
   0.76435587  0.95374130  0.49335302
   0.90679447  0.09604422  0.49511487
   0.90599467  0.23850625  0.49264485
   0.90564690  0.38149931  0.48768584
   0.90598027  0.52477994  0.48424866
   0.90796773  0.66818724  0.48361444
   0.90870940  0.81168695  0.49280077
   0.90773882  0.95383653  0.49842705
   0.47844852  0.36573555  0.57082469
   0.38780254  0.41224186  0.64348641
   0.40265427  0.56514135  0.60781250
   0.63777123  0.67972264  0.43516708
   0.65706710  0.55144969  0.37731154
   0.57182450  0.41344441  0.44557253
   0.59249165  0.73784832  0.56598306
   0.46290632  0.66896596  0.47522998
   0.48152955  0.55632515  0.45491708
   0.50177692  0.47902760  0.45293033
   0.45379929  0.49201802  0.46237253
Direct configuration=     7
   0.00277044  0.00149957  0.50514226
   0.00188977  0.14369755  0.50293894
   0.00093671  0.28597487  0.50015944
   0.00067925  0.42893082  0.49554530
   0.00093283  0.57211917  0.49481313
   0.00249325  0.71542565  0.49644013
   0.00342714  0.85900115  0.50217422
   0.14551415  0.00167446  0.51526468
   0.14504184  0.14445157  0.51995681
   0.14266057  0.28554432  0.52381405
   0.14170161  0.42812033  0.51783558
   0.14298977  0.57143100  0.51046932
   0.14412853  0.71476736  0.51003043
   0.14507730  0.85821924  0.51055333
   0.28766785  0.00094839  0.51666991
   0.28790818  0.14423409  0.52962576
   0.28468780  0.28587623  0.55726878
   0.27690104  0.42558989  0.56591483
   0.28349674  0.56984888  0.53665742
   0.28606858  0.71468156  0.52245836
   0.28728780  0.85786981  0.51513129
   0.43041503  0.00038785  0.51139961
   0.43026418  0.14324513  0.51408106
   0.42935106  0.27999580  0.54432108
   0.42468986  0.71510556  0.50830009
   0.42998555  0.85716087  0.51693298
   0.57285951 -0.00002649  0.50281352
   0.57297999  0.14290823  0.50134757
   0.57288064  0.28579774  0.49525353
   0.57390195  0.85739464  0.51191190
   0.71602483  0.00055017  0.49586119
   0.71574184  0.14327570  0.49294621
   0.71547202  0.28623507  0.48548666
   0.71497074  0.42833537  0.46238168
   0.73031415  0.58151826  0.42988610
   0.72523615  0.72183323  0.45879410
   0.71743294  0.85870384  0.49938494
   0.85972427  0.00125981  0.49352382
   0.85866386  0.14339559  0.49250870
   0.85831717  0.28607071  0.48829635
   0.85831037  0.42913798  0.48141798
   0.85925032  0.57297150  0.47573435
   0.86253318  0.71750431  0.47987199
   0.86099908  0.85888025  0.49353690
   0.05019060  0.09681870  0.50866279
   0.04860055  0.23846499  0.50762155
   0.04761851  0.38098873  0.50318903
   0.04828981  0.52418160  0.49960203
   0.04917364  0.66734930  0.50048155
   0.05011090  0.81064550  0.50354363
   0.05047590  0.95396510  0.50827248
   0.19272238  0.09657929  0.52263609
   0.19138629  0.23910102  0.53164946
   0.18739776  0.37993286  0.53314661
   0.18922311  0.52298126  0.52002558
   0.19085914  0.66688466  0.51595345
   0.19220393  0.81027861  0.51247111
   0.19266503  0.95344735  0.51495910
   0.33532817  0.09642631  0.52082227
   0.33542612  0.23869197  0.54729189
   0.31729693  0.37379227  0.58789491
   0.32077564  0.52021401  0.57024012
   0.33290511  0.66626037  0.52525323
   0.33465841  0.80988262  0.51813482
   0.33504403  0.95309590  0.51447944
   0.47792079  0.09552140  0.50757369
   0.47791577  0.23849468  0.51626939
   0.47731664  0.80887944  0.51452354
   0.47795016  0.95259377  0.51114156
   0.62042639  0.09523222  0.49835953
   0.62060979  0.23820669  0.49455518
   0.62139803  0.37591385  0.46844321
   0.62719167  0.81741614  0.52315703
   0.62083940  0.95245639  0.50120161
   0.76350159  0.09585956  0.49304683
   0.76321617  0.23845474  0.48829883
   0.76299140  0.38142718  0.47660588
   0.76493486  0.52618950  0.45388669
   0.77054898  0.67268280  0.45496295
   0.76549106  0.81070162  0.48644529
   0.76434313  0.95373963  0.49327233
   0.90677757  0.09603884  0.49511421
   0.90597922  0.23850033  0.49267662
   0.90563829  0.38149396  0.48770863
   0.90597064  0.52476896  0.48425142
   0.90795512  0.66817651  0.48360028
   0.90870227  0.81168464  0.49274565
   0.90772824  0.95382855  0.49838783
   0.47846366  0.36568432  0.57096329
   0.38783944  0.41229573  0.64342768
   0.40268019  0.56512351  0.60770946
   0.63780803  0.67975724  0.43488125
   0.65709484  0.55139607  0.37719899
   0.57183457  0.41349357  0.44572396
   0.59249364  0.73778449  0.56573220
   0.46288139  0.66897301  0.47514771
   0.48200421  0.55658782  0.45526474
   0.50208974  0.47934475  0.45338952
   0.45383291  0.49213692  0.46127068
Direct configuration=     8
   0.00276041  0.00149285  0.50513684
   0.00187267  0.14369537  0.50296588
   0.00092378  0.28596946  0.50020925
   0.00067091  0.42893093  0.49558461
   0.00091508  0.57210733  0.49484894
   0.00247596  0.71540906  0.49645466
   0.00341330  0.85899099  0.50216771
   0.14550184  0.00166923  0.51527317
   0.14502194  0.14444323  0.51999046
   0.14264807  0.28553826  0.52384883
   0.14168345  0.42810943  0.51786145
   0.14296851  0.57141520  0.51050186
   0.14410796  0.71475432  0.51006952
   0.14506044  0.85820772  0.51058496
   0.28765282  0.00094244  0.51669402
   0.28788717  0.14422241  0.52964288
   0.28468284  0.28587309  0.55727481
   0.27690387  0.42558912  0.56586828
   0.28349546  0.56984865  0.53662573
   0.28605595  0.71466692  0.52244416
   0.28727784  0.85785981  0.51515384
   0.43040365  0.00037205  0.51141751
   0.43025123  0.14323867  0.51409026
   0.42934012  0.27996847  0.54437587
   0.42467371  0.71511211  0.50822474
   0.42997867  0.85715074  0.51690344
   0.57283562 -0.00004430  0.50279133
   0.57296606  0.14290763  0.50135423
   0.57287128  0.28580253  0.49527582
   0.57389091  0.85736770  0.51181133
   0.71600052  0.00053770  0.49580111
   0.71572072  0.14326766  0.49295788
   0.71545530  0.28622920  0.48549971
   0.71496687  0.42832639  0.46239463
   0.73032738  0.58148500  0.42977629
   0.72524622  0.72183546  0.45860552
   0.71744150  0.85870883  0.49921292
   0.85971342  0.00125422  0.49348509
   0.85864503  0.14338622  0.49252363
   0.85830396  0.28606791  0.48833120
   0.85830222  0.42912914  0.48142748
   0.85925009  0.57295684  0.47572222
   0.86253481  0.71749787  0.47980170
   0.86099388  0.85887382  0.49343916
   0.05017268  0.09681724  0.50868369
   0.04858226  0.23845529  0.50767246
   0.04760068  0.38098219  0.50323479
   0.04828574  0.52417644  0.49964853
   0.04916284  0.66735037  0.50051690
   0.05009692  0.81064199  0.50355725
   0.05046272  0.95395854  0.50826276
   0.19270337  0.09657282  0.52264925
   0.19137319  0.23909117  0.53167545
   0.18738729  0.37992527  0.53315517
   0.18922531  0.52298019  0.52003647
   0.19085233  0.66688205  0.51597582
   0.19219689  0.81027499  0.51250932
   0.19264637  0.95343554  0.51498426
   0.33530459  0.09641371  0.52083636
   0.33541197  0.23868382  0.54731296
   0.31730534  0.37380893  0.58784880
   0.32078481  0.52021284  0.57016735
   0.33289511  0.66625245  0.52520366
   0.33464622  0.80987167  0.51812716
   0.33502351  0.95308202  0.51450762
   0.47790597  0.09551394  0.50758568
   0.47789847  0.23847812  0.51629525
   0.47729449  0.80887228  0.51445131
   0.47792891  0.95258658  0.51113094
   0.62040844  0.09522168  0.49835845
   0.62059541  0.23819894  0.49455998
   0.62138942  0.37592255  0.46850505
   0.62719720  0.81740426  0.52297047
   0.62082070  0.95244342  0.50113578
   0.76348249  0.09585037  0.49304007
   0.76319691  0.23844078  0.48832193
   0.76297719  0.38141059  0.47660711
   0.76493842  0.52618041  0.45386328
   0.77055749  0.67268317  0.45483833
   0.76548840  0.81070176  0.48629112
   0.76434576  0.95375272  0.49318535
   0.90675835  0.09603425  0.49511758
   0.90596458  0.23849259  0.49271624
   0.90562065  0.38147979  0.48774144