  99  99   0   0
  0.3914025E+02  0.1727104E-08  0.1727104E-08  0.1500000E-08  0.0000000E+00
  1.000000000000000E-004
  CAR 
 unknown system                          
      6.05572617    -31.29439757  301     -2.39522566      1.00000000
    -31.294  0.0000E+00  0.0000E+00  0.0000E+00  0.0000E+00
    -31.170  0.0000E+00  0.0000E+00  0.0000E+00  0.0000E+00
    -31.045  0.0000E+00  0.0000E+00  0.0000E+00  0.0000E+00
    -30.921  0.0000E+00  0.0000E+00  0.0000E+00  0.0000E+00
    -30.796  0.0000E+00  0.0000E+00  0.0000E+00  0.0000E+00
    -30.672  0.0000E+00  0.0000E+00  0.0000E+00  0.0000E+00
    -30.547  0.0000E+00  0.0000E+00  0.0000E+00  0.0000E+00
    -30.423  0.0000E+00  0.0000E+00  0.0000E+00  0.0000E+00
    -30.298  0.0000E+00  0.0000E+00  0.0000E+00  0.0000E+00
    -30.174  0.0000E+00  0.0000E+00  0.0000E+00  0.0000E+00
    -30.049  0.0000E+00  0.0000E+00  0.0000E+00  0.0000E+00
    -29.925  0.0000E+00  0.0000E+00  0.0000E+00  0.0000E+00
    -29.800  0.3324E-10  0.3324E-10  0.4138E-11  0.4138E-11
    -29.676  0.1014E-03  0.1014E-03  0.1262E-04  0.1262E-04
    -29.551  0.1064E-01  0.1064E-01  0.1337E-02  0.1337E-02
    -29.427  0.9349E-02  0.9349E-02  0.2501E-02  0.2501E-02
    -29.302  0.9445E-02  0.9445E-02  0.3677E-02  0.3677E-02
    -29.178  0.1205E-01  0.1205E-01  0.5178E-02  0.5178E-02
    -29.053  0.1431E-01  0.1431E-01  0.6960E-02  0.6960E-02
    -28.929  0.7561E-02  0.7561E-02  0.7901E-02  0.7901E-02
    -28.804  0.7952E-03  0.7952E-03  0.8000E-02  0.8000E-02
    -28.680  0.6103E-08  0.6103E-08  0.8000E-02  0.8000E-02
    -28.555  0.0000E+00  0.0000E+00  0.8000E-02  0.8000E-02
    -28.431  0.0000E+00  0.0000E+00  0.8000E-02  0.8000E-02
    -28.306  0.0000E+00  0.0000E+00  0.8000E-02  0.8000E-02
    -28.182  0.0000E+00  0.0000E+00  0.8000E-02  0.8000E-02
    -28.057  0.0000E+00  0.0000E+00  0.8000E-02  0.8000E-02
    -27.933  0.0000E+00  0.0000E+00  0.8000E-02  0.8000E-02
    -27.808  0.0000E+00  0.0000E+00  0.8000E-02  0.8000E-02
    -27.684  0.0000E+00  0.0000E+00  0.8000E-02  0.8000E-02
    -27.559  0.0000E+00  0.0000E+00  0.8000E-02  0.8000E-02
    -27.435  0.0000E+00  0.0000E+00  0.8000E-02  0.8000E-02
    -27.310  0.0000E+00  0.0000E+00  0.8000E-02  0.8000E-02
    -27.186  0.0000E+00  0.0000E+00  0.8000E-02  0.8000E-02
    -27.061  0.0000E+00  0.0000E+00  0.8000E-02  0.8000E-02
    -26.937  0.0000E+00  0.0000E+00  0.8000E-02  0.8000E-02
    -26.812  0.0000E+00  0.0000E+00  0.8000E-02  0.8000E-02
    -26.688  0.0000E+00  0.0000E+00  0.8000E-02  0.8000E-02
    -26.563  0.0000E+00  0.0000E+00  0.8000E-02  0.8000E-02
    -26.439  0.0000E+00  0.0000E+00  0.8000E-02  0.8000E-02
    -26.314  0.0000E+00  0.0000E+00  0.8000E-02  0.8000E-02
    -26.190  0.0000E+00  0.0000E+00  0.8000E-02  0.8000E-02
    -26.065  0.0000E+00  0.0000E+00  0.8000E-02  0.8000E-02
    -25.941  0.0000E+00  0.0000E+00  0.8000E-02  0.8000E-02
    -25.816  0.0000E+00  0.0000E+00  0.8000E-02  0.8000E-02
    -25.692  0.0000E+00  0.0000E+00  0.8000E-02  0.8000E-02
    -25.567  0.0000E+00  0.0000E+00  0.8000E-02  0.8000E-02
    -25.443  0.0000E+00  0.0000E+00  0.8000E-02  0.8000E-02
    -25.318  0.0000E+00  0.0000E+00  0.8000E-02  0.8000E-02
    -25.194  0.0000E+00  0.0000E+00  0.8000E-02  0.8000E-02
    -25.069  0.0000E+00  0.0000E+00  0.8000E-02  0.8000E-02
    -24.945  0.0000E+00  0.0000E+00  0.8000E-02  0.8000E-02
    -24.820  0.0000E+00  0.0000E+00  0.8000E-02  0.8000E-02
    -24.696  0.0000E+00  0.0000E+00  0.8000E-02  0.8000E-02
    -24.571  0.0000E+00  0.0000E+00  0.8000E-02  0.8000E-02
    -24.447  0.0000E+00  0.0000E+00  0.8000E-02  0.8000E-02
    -24.322  0.0000E+00  0.0000E+00  0.8000E-02  0.8000E-02
    -24.198  0.0000E+00  0.0000E+00  0.8000E-02  0.8000E-02
    -24.073  0.0000E+00  0.0000E+00  0.8000E-02  0.8000E-02
    -23.949  0.0000E+00  0.0000E+00  0.8000E-02  0.8000E-02
    -23.824  0.0000E+00  0.0000E+00  0.8000E-02  0.8000E-02
    -23.700  0.0000E+00  0.0000E+00  0.8000E-02  0.8000E-02
    -23.575  0.0000E+00  0.0000E+00  0.8000E-02  0.8000E-02
    -23.451  0.0000E+00  0.0000E+00  0.8000E-02  0.8000E-02
    -23.326  0.0000E+00  0.0000E+00  0.8000E-02  0.8000E-02
    -23.202  0.0000E+00  0.0000E+00  0.8000E-02  0.8000E-02
    -23.077  0.0000E+00  0.0000E+00  0.8000E-02  0.8000E-02
    -22.953  0.0000E+00  0.0000E+00  0.8000E-02  0.8000E-02
    -22.828  0.0000E+00  0.0000E+00  0.8000E-02  0.8000E-02
    -22.704  0.4336E-16  0.4336E-16  0.8000E-02  0.8000E-02
    -22.579  0.1034E-06  0.1034E-06  0.8000E-02  0.8000E-02
    -22.455  0.1977E-02  0.1977E-02  0.8246E-02  0.8246E-02
    -22.330  0.6037E-02  0.6037E-02  0.8998E-02  0.8998E-02
    -22.206  0.1842E-04  0.1842E-04  0.9000E-02  0.9000E-02
    -22.081  0.9757E-12  0.9757E-12  0.9000E-02  0.9000E-02
    -21.957  0.3876E-05  0.3876E-05  0.9000E-02  0.9000E-02
    -21.832  0.2119E-02  0.2119E-02  0.9264E-02  0.9264E-02
    -21.708  0.8765E-02  0.8765E-02  0.1036E-01  0.1036E-01
    -21.583  0.3388E-02  0.3388E-02  0.1078E-01  0.1078E-01
    -21.459  0.8253E-02  0.8253E-02  0.1180E-01  0.1180E-01
    -21.334  0.9676E-02  0.9676E-02  0.1301E-01  0.1301E-01
    -21.210  0.3693E-02  0.3693E-02  0.1347E-01  0.1347E-01
    -21.085  0.3845E-02  0.3845E-02  0.1395E-01  0.1395E-01
    -20.961  0.1210E-01  0.1210E-01  0.1545E-01  0.1545E-01
    -20.836  0.8279E-02  0.8279E-02  0.1648E-01  0.1648E-01
    -20.712  0.2139E-02  0.2139E-02  0.1675E-01  0.1675E-01
    -20.587  0.4235E-02  0.4235E-02  0.1728E-01  0.1728E-01
    -20.463  0.8964E-02  0.8964E-02  0.1839E-01  0.1839E-01
    -20.338  0.9955E-02  0.9955E-02  0.1963E-01  0.1963E-01
    -20.214  0.1062E-01  0.1062E-01  0.2096E-01  0.2096E-01
    -20.089  0.2780E-02  0.2780E-02  0.2130E-01  0.2130E-01
    -19.965  0.3162E-02  0.3162E-02  0.2170E-01  0.2170E-01
    -19.840  0.7800E-02  0.7800E-02  0.2267E-01  0.2267E-01
    -19.716  0.4325E-02  0.4325E-02  0.2320E-01  0.2320E-01
    -19.591  0.1009E-01  0.1009E-01  0.2446E-01  0.2446E-01
    -19.467  0.1462E-01  0.1462E-01  0.2628E-01  0.2628E-01
    -19.342  0.3827E-02  0.3827E-02  0.2676E-01  0.2676E-01
    -19.218  0.3968E-02  0.3968E-02  0.2725E-01  0.2725E-01
    -19.093  0.7729E-02  0.7729E-02  0.2821E-01  0.2821E-01
    -18.969  0.6091E-02  0.6091E-02  0.2897E-01  0.2897E-01
    -18.844  0.2599E-02  0.2599E-02  0.2930E-01  0.2930E-01
    -18.720  0.9319E-02  0.9319E-02  0.3046E-01  0.3046E-01
    -18.595  0.1255E-01  0.1255E-01  0.3202E-01  0.3202E-01
    -18.471  0.8183E-02  0.8183E-02  0.3304E-01  0.3304E-01
    -18.346  0.6346E-02  0.6346E-02  0.3383E-01  0.3383E-01
    -18.222  0.6874E-02  0.6874E-02  0.3468E-01  0.3468E-01
    -18.097  0.7610E-02  0.7610E-02  0.3563E-01  0.3563E-01
    -17.973  0.7788E-02  0.7788E-02  0.3660E-01  0.3660E-01
    -17.848  0.4059E-02  0.4059E-02  0.3711E-01  0.3711E-01
    -17.724  0.3422E-02  0.3422E-02  0.3753E-01  0.3753E-01
    -17.599  0.7485E-02  0.7485E-02  0.3846E-01  0.3846E-01
    -17.475  0.1555E-01  0.1555E-01  0.4040E-01  0.4040E-01
    -17.350  0.1127E-01  0.1127E-01  0.4180E-01  0.4180E-01
    -17.226  0.9077E-02  0.9077E-02  0.4293E-01  0.4293E-01
    -17.101  0.6309E-02  0.6309E-02  0.4372E-01  0.4372E-01
    -16.977  0.7445E-02  0.7445E-02  0.4464E-01  0.4464E-01
    -16.852  0.6899E-02  0.6899E-02  0.4550E-01  0.4550E-01
    -16.728  0.8326E-02  0.8326E-02  0.4654E-01  0.4654E-01
    -16.603  0.3898E-02  0.3898E-02  0.4703E-01  0.4703E-01
    -16.479  0.1187E-01  0.1187E-01  0.4850E-01  0.4850E-01
    -16.354  0.1425E-01  0.1425E-01  0.5028E-01  0.5028E-01
    -16.230  0.5401E-02  0.5401E-02  0.5095E-01  0.5095E-01
    -16.105  0.2790E-02  0.2790E-02  0.5130E-01  0.5130E-01
    -15.981  0.2251E-02  0.2251E-02  0.5158E-01  0.5158E-01
    -15.856  0.2978E-02  0.2978E-02  0.5195E-01  0.5195E-01
    -15.732  0.2747E-02  0.2747E-02  0.5229E-01  0.5229E-01
    -15.607  0.3871E-02  0.3871E-02  0.5277E-01  0.5277E-01
    -15.483  0.5977E-02  0.5977E-02  0.5352E-01  0.5352E-01
    -15.358  0.7550E-02  0.7550E-02  0.5446E-01  0.5446E-01
    -15.234  0.7816E-02  0.7816E-02  0.5543E-01  0.5543E-01
    -15.109  0.9788E-02  0.9788E-02  0.5665E-01  0.5665E-01
    -14.985  0.1085E-01  0.1085E-01  0.5800E-01  0.5800E-01
    -14.860  0.8528E-02  0.8528E-02  0.5906E-01  0.5906E-01
    -14.736  0.6119E-02  0.6119E-02  0.5982E-01  0.5982E-01
    -14.611  0.9030E-02  0.9030E-02  0.6095E-01  0.6095E-01
    -14.487  0.1058E-01  0.1058E-01  0.6226E-01  0.6226E-01
    -14.362  0.1541E-01  0.1541E-01  0.6418E-01  0.6418E-01
    -14.238  0.8844E-02  0.8844E-02  0.6528E-01  0.6528E-01
    -14.113  0.5571E-02  0.5571E-02  0.6598E-01  0.6598E-01
    -13.989  0.4938E-02  0.4938E-02  0.6659E-01  0.6659E-01
    -13.864  0.4228E-02  0.4228E-02  0.6712E-01  0.6712E-01
    -13.740  0.7153E-02  0.7153E-02  0.6801E-01  0.6801E-01
    -13.615  0.1310E-01  0.1310E-01  0.6964E-01  0.6964E-01
    -13.491  0.1007E-01  0.1007E-01  0.7089E-01  0.7089E-01
    -13.366  0.7501E-02  0.7501E-02  0.7183E-01  0.7183E-01
    -13.242  0.5086E-02  0.5086E-02  0.7246E-01  0.7246E-01
    -13.117  0.2328E-02  0.2328E-02  0.7275E-01  0.7275E-01
    -12.993  0.7074E-02  0.7074E-02  0.7363E-01  0.7363E-01
    -12.868  0.7102E-02  0.7102E-02  0.7452E-01  0.7452E-01
    -12.744  0.1260E-01  0.1260E-01  0.7609E-01  0.7609E-01
    -12.619  0.1973E-01  0.1973E-01  0.7854E-01  0.7854E-01
    -12.495  0.3023E-02  0.3023E-02  0.7892E-01  0.7892E-01
    -12.370  0.1494E-01  0.1494E-01  0.8078E-01  0.8078E-01
    -12.246  0.1002E-01  0.1002E-01  0.8203E-01  0.8203E-01
    -12.121  0.5232E-02  0.5232E-02  0.8268E-01  0.8268E-01
    -11.997  0.8999E-02  0.8999E-02  0.8380E-01  0.8380E-01
    -11.872  0.1491E-01  0.1491E-01  0.8565E-01  0.8565E-01
    -11.748  0.1170E-01  0.1170E-01  0.8711E-01  0.8711E-01
    -11.623  0.1177E-01  0.1177E-01  0.8858E-01  0.8858E-01
    -11.499  0.1287E-01  0.1287E-01  0.9018E-01  0.9018E-01
    -11.374  0.8627E-02  0.8627E-02  0.9125E-01  0.9125E-01
    -11.250  0.1450E-01  0.1450E-01  0.9306E-01  0.9306E-01
    -11.125  0.1090E-01  0.1090E-01  0.9441E-01  0.9441E-01
    -11.001  0.1111E-01  0.1111E-01  0.9580E-01  0.9580E-01
    -10.876  0.1243E-01  0.1243E-01  0.9735E-01  0.9735E-01
    -10.752  0.1145E-01  0.1145E-01  0.9877E-01  0.9877E-01
    -10.627  0.9950E-02  0.9950E-02  0.1000E+00  0.1000E+00
    -10.503  0.1266E-01  0.1266E-01  0.1016E+00  0.1016E+00
    -10.378  0.1545E-01  0.1545E-01  0.1035E+00  0.1035E+00
    -10.254  0.1651E-01  0.1651E-01  0.1056E+00  0.1056E+00
    -10.129  0.1610E-01  0.1610E-01  0.1076E+00  0.1076E+00
    -10.005  0.2211E-01  0.2211E-01  0.1103E+00  0.1103E+00
     -9.880  0.2242E-01  0.2242E-01  0.1131E+00  0.1131E+00
     -9.756  0.1651E-01  0.1651E-01  0.1152E+00  0.1152E+00
     -9.631  0.2223E-01  0.2223E-01  0.1179E+00  0.1179E+00
     -9.507  0.2148E-01  0.2148E-01  0.1206E+00  0.1206E+00
     -9.382  0.2719E-01  0.2719E-01  0.1240E+00  0.1240E+00
     -9.258  0.2270E-01  0.2270E-01  0.1268E+00  0.1268E+00
     -9.133  0.2657E-01  0.2657E-01  0.1301E+00  0.1301E+00
     -9.009  0.1307E-01  0.1307E-01  0.1318E+00  0.1318E+00
     -8.884  0.2301E-01  0.2301E-01  0.1346E+00  0.1346E+00
     -8.760  0.2592E-01  0.2592E-01  0.1379E+00  0.1379E+00
     -8.635  0.2583E-01  0.2583E-01  0.1411E+00  0.1411E+00
     -8.511  0.1609E-01  0.1609E-01  0.1431E+00  0.1431E+00
     -8.386  0.1441E-01  0.1441E-01  0.1449E+00  0.1449E+00
     -8.262  0.1478E-01  0.1478E-01  0.1467E+00  0.1467E+00
     -8.137  0.1669E-01  0.1669E-01  0.1488E+00  0.1488E+00
     -8.013  0.2485E-01  0.2485E-01  0.1519E+00  0.1519E+00
     -7.888  0.2254E-01  0.2254E-01  0.1547E+00  0.1547E+00
     -7.764  0.1596E-01  0.1596E-01  0.1567E+00  0.1567E+00
     -7.639  0.1431E-01  0.1431E-01  0.1585E+00  0.1585E+00
     -7.515  0.1366E-01  0.1366E-01  0.1602E+00  0.1602E+00
     -7.390  0.1248E-01  0.1248E-01  0.1617E+00  0.1617E+00
     -7.266  0.2496E-01  0.2496E-01  0.1648E+00  0.1648E+00
     -7.141  0.1810E-01  0.1810E-01  0.1671E+00  0.1671E+00
     -7.017  0.1462E-01  0.1462E-01  0.1689E+00  0.1689E+00
     -6.892  0.1932E-01  0.1932E-01  0.1713E+00  0.1713E+00
     -6.768  0.1733E-01  0.1733E-01  0.1734E+00  0.1734E+00
     -6.643  0.8043E-02  0.8043E-02  0.1745E+00  0.1745E+00
     -6.519  0.1199E-01  0.1199E-01  0.1759E+00  0.1759E+00
     -6.394  0.1369E-01  0.1369E-01  0.1776E+00  0.1776E+00
     -6.270  0.1316E-01  0.1316E-01  0.1793E+00  0.1793E+00
     -6.145  0.2389E-01  0.2389E-01  0.1823E+00  0.1823E+00
     -6.021  0.2252E-01  0.2252E-01  0.1851E+00  0.1851E+00
     -5.896  0.6095E-02  0.6095E-02  0.1858E+00  0.1858E+00
     -5.772  0.1117E-01  0.1117E-01  0.1872E+00  0.1872E+00
     -5.647  0.1137E-01  0.1137E-01  0.1886E+00  0.1886E+00
     -5.523  0.8443E-02  0.8443E-02  0.1897E+00  0.1897E+00
     -5.398  0.7517E-02  0.7517E-02  0.1906E+00  0.1906E+00
     -5.274  0.5920E-02  0.5920E-02  0.1914E+00  0.1914E+00
     -5.149  0.3625E-02  0.3625E-02  0.1918E+00  0.1918E+00
     -5.025  0.1935E-01  0.1935E-01  0.1942E+00  0.1942E+00
     -4.900  0.1170E-01  0.1170E-01  0.1957E+00  0.1957E+00
     -4.776  0.1720E-01  0.1720E-01  0.1978E+00  0.1978E+00
     -4.651  0.3709E-02  0.3709E-02  0.1983E+00  0.1983E+00
     -4.527  0.5560E-02  0.5560E-02  0.1990E+00  0.1990E+00
     -4.402  0.1125E-01  0.1125E-01  0.2004E+00  0.2004E+00
     -4.278  0.9757E-02  0.9757E-02  0.2016E+00  0.2016E+00
     -4.153  0.9337E-02  0.9337E-02  0.2027E+00  0.2027E+00
     -4.029  0.6238E-02  0.6238E-02  0.2035E+00  0.2035E+00
     -3.904  0.5462E-02  0.5462E-02  0.2042E+00  0.2042E+00
     -3.780  0.5118E-02  0.5118E-02  0.2048E+00  0.2048E+00
     -3.655  0.6477E-02  0.6477E-02  0.2056E+00  0.2056E+00
     -3.531  0.2850E-02  0.2850E-02  0.2060E+00  0.2060E+00
     -3.406  0.4425E-05  0.4425E-05  0.2060E+00  0.2060E+00
     -3.282  0.1130E-02  0.1130E-02  0.2061E+00  0.2061E+00
     -3.157  0.6449E-02  0.6449E-02  0.2069E+00  0.2069E+00
     -3.033  0.3206E-02  0.3206E-02  0.2073E+00  0.2073E+00
     -2.908  0.1262E-02  0.1262E-02  0.2075E+00  0.2075E+00
     -2.784  0.8405E-06  0.8405E-06  0.2075E+00  0.2075E+00
     -2.659  0.3870E-03  0.3870E-03  0.2075E+00  0.2075E+00
     -2.535  0.3576E-02  0.3576E-02  0.2080E+00  0.2080E+00
     -2.410  0.5327E-04  0.5327E-04  0.2080E+00  0.2080E+00
     -2.286  0.4348E-05  0.4348E-05  0.2080E+00  0.2080E+00
     -2.161  0.2701E-02  0.2701E-02  0.2083E+00  0.2083E+00
     -2.037  0.1310E-02  0.1310E-02  0.2085E+00  0.2085E+00
     -1.912  0.2783E-03  0.2783E-03  0.2085E+00  0.2085E+00
     -1.788  0.1728E-02  0.1728E-02  0.2087E+00  0.2087E+00
     -1.663  0.4550E-02  0.4550E-02  0.2093E+00  0.2093E+00
     -1.539  0.3629E-02  0.3629E-02  0.2098E+00  0.2098E+00
     -1.414  0.1840E-02  0.1840E-02  0.2100E+00  0.2100E+00
     -1.290  0.1852E-03  0.1852E-03  0.2100E+00  0.2100E+00
     -1.165  0.4756E-02  0.4756E-02  0.2106E+00  0.2106E+00
     -1.041  0.4809E-02  0.4809E-02  0.2112E+00  0.2112E+00
     -0.916  0.2007E-01  0.2007E-01  0.2137E+00  0.2137E+00
     -0.792  0.8318E-02  0.8318E-02  0.2147E+00  0.2147E+00
     -0.667  0.2760E-02  0.2760E-02  0.2151E+00  0.2151E+00
     -0.543  0.1343E-01  0.1343E-01  0.2168E+00  0.2168E+00
     -0.418  0.1124E-01  0.1124E-01  0.2182E+00  0.2182E+00
     -0.294  0.5402E-02  0.5402E-02  0.2188E+00  0.2188E+00
     -0.169  0.2399E-02  0.2399E-02  0.2191E+00  0.2191E+00
     -0.045  0.7568E-02  0.7568E-02  0.2201E+00  0.2201E+00
      0.080  0.1254E-01  0.1254E-01  0.2216E+00  0.2216E+00
      0.204  0.1548E-01  0.1548E-01  0.2236E+00  0.2236E+00
      0.329  0.3803E-02  0.3803E-02  0.2240E+00  0.2240E+00
      0.453  0.5044E-02  0.5044E-02  0.2247E+00  0.2247E+00
      0.578  0.4127E-02  0.4127E-02  0.2252E+00  0.2252E+00
      0.702  0.5731E-02  0.5731E-02  0.2259E+00  0.2259E+00
      0.827  0.8019E-02  0.8019E-02  0.2269E+00  0.2269E+00
      0.951  0.6623E-02  0.6623E-02  0.2277E+00  0.2277E+00
      1.076  0.7840E-02  0.7840E-02  0.2287E+00  0.2287E+00
      1.200  0.8781E-02  0.8781E-02  0.2298E+00  0.2298E+00
      1.325  0.8008E-02  0.8008E-02  0.2308E+00  0.2308E+00
      1.449  0.2134E-01  0.2134E-01  0.2334E+00  0.2334E+00
      1.574  0.1668E-01  0.1668E-01  0.2355E+00  0.2355E+00
      1.698  0.1135E-01  0.1135E-01  0.2369E+00  0.2369E+00
      1.823  0.6941E-02  0.6941E-02  0.2378E+00  0.2378E+00
      1.947  0.1089E-01  0.1089E-01  0.2391E+00  0.2391E+00
      2.072  0.2195E-01  0.2195E-01  0.2419E+00  0.2419E+00
      2.196  0.1506E-01  0.1506E-01  0.2438E+00  0.2438E+00
      2.321  0.1415E-01  0.1415E-01  0.2455E+00  0.2455E+00
      2.445  0.1872E-01  0.1872E-01  0.2478E+00  0.2478E+00
      2.570  0.2557E-01  0.2557E-01  0.2510E+00  0.2510E+00
      2.694  0.1184E-01  0.1184E-01  0.2525E+00  0.2525E+00
      2.819  0.1768E-01  0.1768E-01  0.2547E+00  0.2547E+00
      2.943  0.2892E-01  0.2892E-01  0.2583E+00  0.2583E+00
      3.068  0.4293E-01  0.4293E-01  0.2637E+00  0.2637E+00
      3.192  0.1787E-01  0.1787E-01  0.2659E+00  0.2659E+00
      3.317  0.1498E-01  0.1498E-01  0.2677E+00  0.2677E+00
      3.441  0.1792E-01  0.1792E-01  0.2700E+00  0.2700E+00
      3.566  0.2784E-01  0.2784E-01  0.2734E+00  0.2734E+00
      3.690  0.1540E-01  0.1540E-01  0.2754E+00  0.2754E+00
      3.815  0.1900E-01  0.1900E-01  0.2777E+00  0.2777E+00
      3.939  0.3050E-01  0.3050E-01  0.2815E+00  0.2815E+00
      4.064  0.2320E-01  0.2320E-01  0.2844E+00  0.2844E+00
      4.188  0.2217E-01  0.2217E-01  0.2872E+00  0.2872E+00
      4.313  0.1749E-01  0.1749E-01  0.2893E+00  0.2893E+00
      4.437  0.5208E-02  0.5208E-02  0.2900E+00  0.2900E+00
      4.562  0.2569E-04  0.2569E-04  0.2900E+00  0.2900E+00
      4.686  0.8332E-11  0.8330E-11  0.2900E+00  0.2900E+00
      4.811  0.0000E+00  0.0000E+00  0.2900E+00  0.2900E+00
      4.935  0.0000E+00  0.0000E+00  0.2900E+00  0.2900E+00
      5.060  0.0000E+00  0.0000E+00  0.2900E+00  0.2900E+00
      5.184  0.0000E+00  0.0000E+00  0.2900E+00  0.2900E+00
      5.309  0.0000E+00  0.0000E+00  0.2900E+00  0.2900E+00
      5.433  0.0000E+00  0.0000E+00  0.2900E+00  0.2900E+00
      5.558  0.0000E+00  0.0000E+00  0.2900E+00  0.2900E+00
      5.682  0.0000E+00  0.0000E+00  0.2900E+00  0.2900E+00
      5.807  0.0000E+00  0.0000E+00  0.2900E+00  0.2900E+00
      5.931  0.0000E+00  0.0000E+00  0.2900E+00  0.2900E+00
      6.056  0.0000E+00  0.0000E+00  0.2900E+00  0.2900E+00
