 vasp.6.4.2 20Jul23 (build Aug 26 2025 15:10:52) complex                        
  
 POSCAR found type information on POSCAR C F H O 
 03/POSCAR found :  4 types and      99 ions
 Reading from existing POTCAR
 scaLAPACK will be used
 -----------------------------------------------------------------------------
|                                                                             |
|           W    W    AA    RRRRR   N    N  II  N    N   GGGG   !!!           |
|           W    W   A  A   R    R  NN   N  II  NN   N  G    G  !!!           |
|           W    W  A    A  R    R  N N  N  II  N N  N  G       !!!           |
|           W WW W  AAAAAA  RRRRR   N  N N  II  N  N N  G  GGG   !            |
|           WW  WW  A    A  R   R   N   NN  II  N   NN  G    G                |
|           W    W  A    A  R    R  N    N  II  N    N   GGGG   !!!           |
|                                                                             |
|     For optimal performance we recommend to set                             |
|       NCORE = 2 up to number-of-cores-per-socket                            |
|     NCORE specifies how many cores store one orbital (NPAR=cpu/NCORE).      |
|     This setting can greatly improve the performance of VASP for DFT.       |
|     The default, NCORE=1 might be grossly inefficient on modern             |
|     multi-core architectures or massively parallel machines. Do your        |
|     own testing! More info at https://www.vasp.at/wiki/index.php/NCORE      |
|     Unfortunately you need to use the default for GW and RPA                |
|     calculations (for HF NCORE is supported but not extensively tested      |
|     yet).                                                                   |
|                                                                             |
 -----------------------------------------------------------------------------

 Reading from existing POTCAR
 LDA part: xc-table for Pade appr. of Perdew
 POSCAR found type information on POSCAR C F H O 
 00/POSCAR found :  4 types and      99 ions
 POSCAR found type information on POSCAR C F H O 
 06/POSCAR found :  4 types and      99 ions
 Jacobian:    33.7825262909836     
 POSCAR found type information on POSCAR C F H O 
 00/POSCAR found :  4 types and      99 ions
 POSCAR found type information on POSCAR C F H O 
 06/POSCAR found :  4 types and      99 ions
 POSCAR, INCAR and KPOINTS ok, starting setup
 FFT: planning ... GRIDC
 FFT: planning ... GRID_SOFT
 FFT: planning ... GRID
 WAVECAR not read
 entering main loop
       N       E                     dE             d eps       ncg     rms          rms(c)
DAV:   1     0.386406718696E+04    0.38641E+04   -0.16150E+05  5030   0.110E+03
DAV:   2    -0.178830125615E+03   -0.40429E+04   -0.38250E+04  6920   0.275E+02
DAV:   3    -0.870765230972E+03   -0.69194E+03   -0.68861E+03  5660   0.119E+02
DAV:   4    -0.892867172703E+03   -0.22102E+02   -0.21994E+02  5760   0.263E+01
DAV:   5    -0.893522905868E+03   -0.65573E+00   -0.65469E+00  6660   0.383E+00    0.527E+01
DAV:   6    -0.875543618335E+03    0.17979E+02   -0.21245E+01  5710   0.107E+01    0.340E+01
DAV:   7    -0.855119094138E+03    0.20425E+02   -0.37606E+01  5500   0.102E+01    0.207E+01
DAV:   8    -0.850284455978E+03    0.48346E+01   -0.19223E+01  5590   0.675E+00    0.911E+00
DAV:   9    -0.850494787462E+03   -0.21033E+00   -0.12608E+00  5570   0.213E+00    0.424E+00
DAV:  10    -0.850293449813E+03    0.20134E+00   -0.64595E-01  5380   0.139E+00    0.130E+00
DAV:  11    -0.850275019235E+03    0.18431E-01   -0.12344E-01  5410   0.675E-01    0.298E-01
DAV:  12    -0.850274941474E+03    0.77761E-04   -0.14346E-02  5560   0.256E-01    0.133E-01
DAV:  13    -0.850275119485E+03   -0.17801E-03   -0.19348E-03  5680   0.935E-02    0.100E-01
DAV:  14    -0.850275146704E+03   -0.27219E-04   -0.36451E-04  5500   0.386E-02    0.640E-02
DAV:  15    -0.850275206915E+03   -0.60211E-04   -0.22972E-04  5280   0.326E-02    0.243E-02
DAV:  16    -0.850275204934E+03    0.19818E-05   -0.49586E-05  5340   0.171E-02    0.129E-02
DAV:  17    -0.850275205375E+03   -0.44102E-06   -0.12376E-05  5670   0.745E-03    0.825E-03
DAV:  18    -0.850275204421E+03    0.95365E-06   -0.51069E-06  5010   0.816E-03
   1 F= -.85823037E+03 E0= -.85823037E+03  d E =-.858230E+03  mag=    -0.0000
quench:  g(F)=  0.000E+00 g(S)=  0.000E+00 dE (1.order)= 0.000E+00
 bond charge predicted
       N       E                     dE             d eps       ncg     rms          rms(c)
DAV:   1    -0.850275886948E+03   -0.68157E-03   -0.50898E-02  4910   0.293E-01    0.544E-02
DAV:   2    -0.850275944931E+03   -0.57983E-04   -0.10153E-03  5120   0.396E-02    0.377E-02
DAV:   3    -0.850275930411E+03    0.14520E-04   -0.57108E-05  5310   0.109E-02    0.223E-02
DAV:   4    -0.850275931046E+03   -0.63561E-06   -0.96667E-06  4300   0.516E-03
   2 F= -.85823108E+03 E0= -.85823108E+03  d E =-.713008E-03  mag=    -0.0000
quench:  g(F)=  0.000E+00 g(S)=  0.000E+00 dE (1.order)= 0.000E+00
 bond charge predicted
       N       E                     dE             d eps       ncg     rms          rms(c)
DAV:   1    -0.850276426958E+03   -0.49655E-03   -0.11990E-01  4880   0.473E-01    0.767E-02
DAV:   2    -0.850276565814E+03   -0.13886E-03   -0.22080E-03  4980   0.623E-02    0.521E-02
DAV:   3    -0.850276544986E+03    0.20828E-04   -0.86239E-05  5640   0.135E-02    0.337E-02
DAV:   4    -0.850276552849E+03   -0.78636E-05   -0.19345E-05  4570   0.757E-03    0.181E-02
DAV:   5    -0.850276562999E+03   -0.10150E-04   -0.14554E-05  4300   0.573E-03    0.475E-03
DAV:   6    -0.850276563061E+03   -0.62522E-07   -0.32064E-06  4110   0.303E-03
   3 F= -.85823169E+03 E0= -.85823169E+03  d E =-.607896E-03  mag=     0.0000
quench:  g(F)=  0.000E+00 g(S)=  0.000E+00 dE (1.order)= 0.000E+00
 bond charge predicted
       N       E                     dE             d eps       ncg     rms          rms(c)
DAV:   1    -0.850277238636E+03   -0.67564E-03   -0.13208E-01  4880   0.593E-01    0.676E-02
DAV:   2    -0.850277434225E+03   -0.19559E-03   -0.24970E-03  4880   0.787E-02    0.449E-02
DAV:   3    -0.850277420875E+03    0.13350E-04   -0.35998E-05  5630   0.105E-02    0.347E-02
DAV:   4    -0.850277440821E+03   -0.19946E-04   -0.34588E-05  4680   0.116E-02    0.105E-02
DAV:   5    -0.850277446237E+03   -0.54161E-05   -0.13156E-05  5040   0.519E-03    0.559E-03
DAV:   6    -0.850277445765E+03    0.47218E-06   -0.15711E-06  4120   0.309E-03
   4 F= -.85823254E+03 E0= -.85823254E+03  d E =-.854966E-03  mag=    -0.0000
quench:  g(F)=  0.000E+00 g(S)=  0.000E+00 dE (1.order)= 0.000E+00
 bond charge predicted
       N       E                     dE             d eps       ncg     rms          rms(c)
DAV:   1    -0.850278359455E+03   -0.91322E-03   -0.16541E-01  4840   0.747E-01    0.733E-02
DAV:   2    -0.850278638904E+03   -0.27945E-03   -0.33825E-03  4840   0.101E-01    0.551E-02
DAV:   3    -0.850278616102E+03    0.22801E-04   -0.51286E-05  5660   0.135E-02    0.431E-02
DAV:   4    -0.850278636867E+03   -0.20765E-04   -0.76573E-05  4780   0.162E-02    0.169E-02
DAV:   5    -0.850278643429E+03   -0.65613E-05   -0.14610E-05  5040   0.657E-03    0.938E-03
DAV:   6    -0.850278644667E+03   -0.12380E-05   -0.74624E-06  4220   0.540E-03    0.335E-03
DAV:   7    -0.850278644683E+03   -0.16407E-07   -0.81481E-07  3880   0.179E-03
   5 F= -.85823371E+03 E0= -.85823371E+03  d E =-.117129E-02  mag=    -0.0000
quench:  g(F)=  0.000E+00 g(S)=  0.000E+00 dE (1.order)= 0.000E+00
 bond charge predicted
       N       E                     dE             d eps       ncg     rms          rms(c)
DAV:   1    -0.850279181088E+03   -0.53642E-03   -0.25373E-01  4760   0.928E-01    0.882E-02
DAV:   2    -0.850279613854E+03   -0.43277E-03   -0.51887E-03  4840   0.125E-01    0.654E-02
DAV:   3    -0.850279582021E+03    0.31832E-04   -0.73653E-05  5540   0.162E-02    0.514E-02
DAV:   4    -0.850279609636E+03   -0.27614E-04   -0.10988E-04  4820   0.193E-02    0.196E-02
DAV:   5    -0.850279619282E+03   -0.96469E-05   -0.22266E-05  5180   0.787E-03    0.112E-02
DAV:   6    -0.850279621179E+03   -0.18963E-05   -0.10808E-05  4240   0.665E-03    0.400E-03
DAV:   7    -0.850279621229E+03   -0.50779E-07   -0.11811E-06  4060   0.218E-03
   6 F= -.85823466E+03 E0= -.85823466E+03  d E =-.943118E-03  mag=    -0.0000
quench:  g(F)=  0.000E+00 g(S)=  0.000E+00 dE (1.order)= 0.000E+00
 bond charge predicted
       N       E                     dE             d eps       ncg     rms          rms(c)
DAV:   1    -0.850280230899E+03   -0.60972E-03   -0.36240E-01  4720   0.106E+00    0.103E-01
DAV:   2    -0.850280838955E+03   -0.60806E-03   -0.72453E-03  4860   0.143E-01    0.712E-02
DAV:   3    -0.850280803922E+03    0.35032E-04   -0.84018E-05  5590   0.168E-02    0.571E-02
DAV:   4    -0.850280848610E+03   -0.44688E-04   -0.13925E-04  4940   0.229E-02    0.140E-02
DAV:   5    -0.850280858236E+03   -0.96254E-05   -0.37733E-05  5320   0.913E-03    0.991E-03
DAV:   6    -0.850280857307E+03    0.92905E-06   -0.49229E-06  4700   0.593E-03
   7 F= -.85823584E+03 E0= -.85823584E+03  d E =-.118248E-02  mag=    -0.0000
quench:  g(F)=  0.000E+00 g(S)=  0.000E+00 dE (1.order)= 0.000E+00
 bond charge predicted
       N       E                     dE             d eps       ncg     rms          rms(c)
DAV:   1    -0.850281551454E+03   -0.69322E-03   -0.59013E-01  4740   0.132E+00    0.137E-01
DAV:   2    -0.850282537846E+03   -0.98639E-03   -0.11933E-02  4900   0.178E-01    0.943E-02
DAV:   3    -0.850282476158E+03    0.61688E-04   -0.16688E-04  5600   0.227E-02    0.729E-02
DAV:   4    -0.850282517767E+03   -0.41609E-04   -0.16252E-04  4980   0.252E-02    0.247E-02
DAV:   5    -0.850282546040E+03   -0.28273E-04   -0.67120E-05  5240   0.118E-02    0.121E-02
DAV:   6    -0.850282545199E+03    0.84141E-06   -0.10904E-05  4760   0.796E-03    0.655E-03
DAV:   7    -0.850282546445E+03   -0.12462E-05   -0.27713E-06  3960   0.294E-03    0.401E-03
DAV:   8    -0.850282546079E+03    0.36660E-06   -0.10107E-06  3700   0.258E-03
   8 F= -.85823745E+03 E0= -.85823745E+03  d E =-.160796E-02  mag=     0.0000
quench:  g(F)=  0.000E+00 g(S)=  0.000E+00 dE (1.order)= 0.000E+00
 bond charge predicted
       N       E                     dE             d eps       ncg     rms          rms(c)
DAV:   1    -0.850283011586E+03   -0.46514E-03   -0.82789E-01  4720   0.165E+00    0.154E-01
DAV:   2    -0.850284447548E+03   -0.14360E-02   -0.16834E-02  4880   0.223E-01    0.106E-01
DAV:   3    -0.850284375149E+03    0.72399E-04   -0.20045E-04  5620   0.267E-02    0.847E-02
DAV:   4    -0.850284445278E+03   -0.70129E-04   -0.26026E-04  5420   0.331E-02    0.231E-02
DAV:   5    -0.850284471976E+03   -0.26698E-04   -0.85352E-05  5300   0.137E-02    0.137E-02
DAV:   6    -0.850284470208E+03    0.17676E-05   -0.94816E-06  4900   0.813E-03    0.826E-03
DAV:   7    -0.850284471277E+03   -0.10687E-05   -0.47900E-06  4380   0.443E-03    0.442E-03
DAV:   8    -0.850284470932E+03    0.34478E-06   -0.10521E-06  3900   0.364E-03
   9 F= -.85823928E+03 E0= -.85823928E+03  d E =-.182920E-02  mag=    -0.0000
quench:  g(F)=  0.000E+00 g(S)=  0.000E+00 dE (1.order)= 0.000E+00
 bond charge predicted
       N       E                     dE             d eps       ncg     rms          rms(c)
DAV:   1    -0.850284781831E+03   -0.31055E-03   -0.12387E+00  4720   0.210E+00    0.185E-01
DAV:   2    -0.850286994224E+03   -0.22124E-02   -0.25650E-02  4940   0.287E-01    0.131E-01
DAV:   3    -0.850286890205E+03    0.10402E-03   -0.30867E-04  5600   0.344E-02    0.104E-01
DAV:   4    -0.850286988993E+03   -0.98788E-04   -0.39851E-04  5560   0.414E-02    0.334E-02
DAV:   5    -0.850287030999E+03   -0.42007E-04   -0.11328E-04  5280   0.172E-02    0.194E-02
DAV:   6    -0.850287031418E+03   -0.41821E-06   -0.32807E-05  4820   0.139E-02    0.814E-03
DAV:   7    -0.850287033227E+03   -0.18090E-05   -0.53881E-06  4990   0.426E-03    0.623E-03
DAV:   8    -0.850287032625E+03    0.60126E-06   -0.25054E-06  4440   0.415E-03
  10 F= -.85824173E+03 E0= -.85824173E+03  d E =-.245775E-02  mag=    -0.0000
quench:  g(F)=  0.000E+00 g(S)=  0.000E+00 dE (1.order)= 0.000E+00
 bond charge predicted
       N       E                     dE             d eps       ncg     rms          rms(c)
DAV:   1    -0.850286046749E+03    0.98648E-03   -0.19474E+00  4720   0.264E+00    0.231E-01
DAV:   2    -0.850289596999E+03   -0.35503E-02   -0.40705E-02  4940   0.361E-01    0.160E-01
DAV:   3    -0.850289463612E+03    0.13339E-03   -0.45280E-04  5640   0.418E-02    0.128E-01
DAV:   4    -0.850289613135E+03   -0.14952E-03   -0.62237E-04  5520   0.541E-02    0.346E-02
DAV:   5    -0.850289669706E+03   -0.56570E-04   -0.18404E-04  5360   0.219E-02    0.222E-02
DAV:   6    -0.850289666166E+03    0.35393E-05   -0.29991E-05  5120   0.155E-02    0.115E-02
DAV:   7    -0.850289668522E+03   -0.23552E-05   -0.12636E-05  4920   0.705E-03    0.744E-03
DAV:   8    -0.850289667658E+03    0.86357E-06   -0.36923E-06  4960   0.657E-03
  11 F= -.85824422E+03 E0= -.85824422E+03  d E =-.248987E-02  mag=    -0.0000
quench:  g(F)=  0.000E+00 g(S)=  0.000E+00 dE (1.order)= 0.000E+00
 bond charge predicted
       N       E                     dE             d eps       ncg     rms          rms(c)
DAV:   1    -0.850287025216E+03    0.26433E-02   -0.30858E+00  4720   0.324E+00    0.301E-01
DAV:   2    -0.850292617758E+03   -0.55925E-02   -0.64566E-02  4940   0.443E-01    0.206E-01
DAV:   3    -0.850292382056E+03    0.23570E-03   -0.78842E-04  5680   0.538E-02    0.162E-01
DAV:   4    -0.850292513404E+03   -0.13135E-03   -0.88028E-04  5620   0.641E-02    0.495E-02
DAV:   5    -0.850292618230E+03   -0.10483E-03   -0.31245E-04  5220   0.275E-02    0.277E-02
DAV:   6    -0.850292614817E+03    0.34132E-05   -0.46217E-05  5420   0.182E-02    0.152E-02
DAV:   7    -0.850292622402E+03   -0.75853E-05   -0.16481E-05  4880   0.765E-03    0.885E-03
DAV:   8    -0.850292620881E+03    0.15209E-05   -0.45528E-06  5020   0.642E-03    0.363E-03
DAV:   9    -0.850292621324E+03   -0.44273E-06   -0.20100E-06  3680   0.256E-03
  12 F= -.85824701E+03 E0= -.85824701E+03  d E =-.278982E-02  mag=    -0.0000
quench:  g(F)=  0.000E+00 g(S)=  0.000E+00 dE (1.order)= 0.000E+00
 bond charge predicted
       N       E                     dE             d eps       ncg     rms          rms(c)
DAV:   1    -0.850287686011E+03    0.49349E-02   -0.42422E+00  4720   0.395E+00    0.344E-01
DAV:   2    -0.850295689791E+03   -0.80038E-02   -0.90680E-02  4980   0.545E-01    0.239E-01
DAV:   3    -0.850295386670E+03    0.30312E-03   -0.10483E-03  5740   0.641E-02    0.191E-01
DAV:   4    -0.850295575283E+03   -0.18861E-03   -0.14477E-03  5480   0.838E-02    0.571E-02
DAV:   5    -0.850295687457E+03   -0.11217E-03   -0.39575E-04  5320   0.336E-02    0.369E-02
DAV:   6    -0.850295688259E+03   -0.80207E-06   -0.10225E-04  5160   0.270E-02    0.158E-02
DAV:   7    -0.850295695417E+03   -0.71580E-05   -0.21902E-05  5140   0.875E-03    0.115E-02
DAV:   8    -0.850295693754E+03    0.16626E-05   -0.72936E-06  5080   0.736E-03    0.502E-03
DAV:   9    -0.850295694430E+03   -0.67545E-06   -0.42772E-06  4320   0.437E-03
  13 F= -.85824994E+03 E0= -.85824994E+03  d E =-.292568E-02  mag=    -0.0000
quench:  g(F)=  0.000E+00 g(S)=  0.000E+00 dE (1.order)= 0.000E+00
 bond charge predicted
       N       E                     dE             d eps       ncg     rms          rms(c)
DAV:   1    -0.850285849857E+03    0.98439E-02   -0.62396E+00  4720   0.474E+00    0.431E-01
DAV:   2    -0.850297586361E+03   -0.11737E-01   -0.13481E-01  5020   0.656E-01    0.296E-01
DAV:   3    -0.850297116725E+03    0.46964E-03   -0.18034E-03  5880   0.827E-02    0.235E-01
DAV:   4    -0.850297223875E+03   -0.10715E-03   -0.17262E-03  5320   0.982E-02    0.761E-02
DAV:   5    -0.850297432674E+03   -0.20880E-03   -0.66819E-04  5240   0.430E-02    0.420E-02
DAV:   6    -0.850297423288E+03    0.93861E-05   -0.11023E-04  5420   0.301E-02    0.215E-02
DAV:   7    -0.850297439193E+03   -0.15905E-04   -0.37349E-05  4900   0.116E-02    0.127E-02
DAV:   8    -0.850297436371E+03    0.28212E-05   -0.84534E-06  5200   0.952E-03    0.557E-03
DAV:   9    -0.850297437366E+03   -0.99497E-06   -0.44772E-06  4500   0.408E-03
  14 F= -.85825147E+03 E0= -.85825147E+03  d E =-.152669E-02  mag=     0.0000
quench:  g(F)=  0.000E+00 g(S)=  0.000E+00 dE (1.order)= 0.000E+00
 bond charge predicted
       N       E                     dE             d eps       ncg     rms          rms(c)
DAV:   1    -0.850299790343E+03   -0.23540E-02   -0.13774E-01  4780   0.760E-01    0.852E-02
DAV:   2    -0.850300040111E+03   -0.24977E-03   -0.36318E-03  5760   0.114E-01    0.749E-02
DAV:   3    -0.850299975868E+03    0.64242E-04   -0.17847E-04  6020   0.254E-02    0.563E-02
DAV:   4    -0.850299927029E+03    0.48839E-04   -0.10303E-04  5020   0.217E-02    0.273E-02
DAV:   5    -0.850299923348E+03    0.36813E-05   -0.35845E-05  5040   0.116E-02    0.108E-02
DAV:   6    -0.850299923706E+03   -0.35820E-06   -0.53028E-06  4800   0.452E-03
  15 F= -.85825396E+03 E0= -.85825396E+03  d E =-.249095E-02  mag=     0.0000
quench:  g(F)=  0.000E+00 g(S)=  0.000E+00 dE (1.order)= 0.000E+00
 bond charge predicted
       N       E                     dE             d eps       ncg     rms          rms(c)
DAV:   1    -0.850299955624E+03   -0.32277E-04   -0.45971E-04  4860   0.440E-02    0.507E-03
DAV:   2    -0.850299956457E+03   -0.83258E-06   -0.11333E-05  5420   0.641E-03    0.376E-03
DAV:   3    -0.850299956382E+03    0.75095E-07   -0.18700E-07  2720   0.100E-03
  16 F= -.85825399E+03 E0= -.85825399E+03  d E =-.317051E-04  mag=    -0.0000
quench:  g(F)=  0.000E+00 g(S)=  0.000E+00 dE (1.order)= 0.000E+00
 bond charge predicted
       N       E                     dE             d eps       ncg     rms          rms(c)
DAV:   1    -0.850300012552E+03   -0.56095E-04   -0.17907E-03  4760   0.867E-02    0.767E-03
DAV:   2    -0.850300016075E+03   -0.35227E-05   -0.41966E-05  5340   0.122E-02    0.540E-03
DAV:   3    -0.850300015958E+03    0.11703E-06   -0.40583E-07  3120   0.147E-03
  17 F= -.85825405E+03 E0= -.85825405E+03  d E =-.575570E-04  mag=    -0.0000
quench:  g(F)=  0.000E+00 g(S)=  0.000E+00 dE (1.order)= 0.000E+00
 bond charge predicted
       N       E                     dE             d eps       ncg     rms          rms(c)
DAV:   1    -0.850300086399E+03   -0.70324E-04   -0.38376E-03  4760   0.127E-01    0.110E-02
DAV:   2    -0.850300093850E+03   -0.74509E-05   -0.87631E-05  5260   0.176E-02    0.758E-03
DAV:   3    -0.850300093662E+03    0.18795E-06   -0.80672E-07  3760   0.204E-03
  18 F= -.85825412E+03 E0= -.85825412E+03  d E =-.745690E-04  mag=     0.0000
quench:  g(F)=  0.000E+00 g(S)=  0.000E+00 dE (1.order)= 0.000E+00
 bond charge predicted
       N       E                     dE             d eps       ncg     rms          rms(c)
DAV:   1    -0.850300175860E+03   -0.82010E-04   -0.65696E-03  4760   0.165E-01    0.142E-02
DAV:   2    -0.850300188319E+03   -0.12459E-04   -0.14750E-04  5120   0.228E-02    0.957E-03
DAV:   3    -0.850300188155E+03    0.16361E-06   -0.13348E-06  4200   0.256E-03
  19 F= -.85825421E+03 E0= -.85825421E+03  d E =-.898747E-04  mag=     0.0000
quench:  g(F)=  0.000E+00 g(S)=  0.000E+00 dE (1.order)= 0.000E+00
 bond charge predicted
       N       E                     dE             d eps       ncg     rms          rms(c)
DAV:   1    -0.850300284948E+03   -0.96629E-04   -0.99096E-03  4740   0.202E-01    0.174E-02
DAV:   2    -0.850300303371E+03   -0.18422E-04   -0.21961E-04  5020   0.278E-02    0.116E-02
DAV:   3    -0.850300303178E+03    0.19304E-06   -0.21067E-06  4800   0.309E-03
  20 F= -.85825432E+03 E0= -.85825432E+03  d E =-.108498E-03  mag=    -0.0000
quench:  g(F)=  0.000E+00 g(S)=  0.000E+00 dE (1.order)= 0.000E+00
 bond charge predicted
       N       E                     dE             d eps       ncg     rms          rms(c)
DAV:   1    -0.850300418640E+03   -0.11527E-03   -0.13858E-02  4720   0.238E-01    0.207E-02
DAV:   2    -0.850300443864E+03   -0.25224E-04   -0.30439E-04  4820   0.327E-02    0.140E-02
DAV:   3    -0.850300443579E+03    0.28577E-06   -0.30997E-06  5000   0.368E-03
  21 F= -.85825445E+03 E0= -.85825445E+03  d E =-.132019E-03  mag=     0.0000
quench:  g(F)=  0.000E+00 g(S)=  0.000E+00 dE (1.order)= 0.000E+00
 bond charge predicted
       N       E                     dE             d eps       ncg     rms          rms(c)
DAV:   1    -0.850300580975E+03   -0.13711E-03   -0.23173E-02  4720   0.307E-01    0.268E-02
DAV:   2    -0.850300622955E+03   -0.41980E-04   -0.51040E-04  4740   0.424E-02    0.182E-02
DAV:   3    -0.850300622328E+03    0.62777E-06   -0.55039E-06  5500   0.481E-03
  22 F= -.85825462E+03 E0= -.85825462E+03  d E =-.167240E-03  mag=    -0.0000
quench:  g(F)=  0.000E+00 g(S)=  0.000E+00 dE (1.order)= 0.000E+00
 bond charge predicted
       N       E                     dE             d eps       ncg     rms          rms(c)
DAV:   1    -0.850300770783E+03   -0.14783E-03   -0.37859E-02  4720   0.393E-01    0.346E-02
DAV:   2    -0.850300838838E+03   -0.68055E-04   -0.83509E-04  4680   0.542E-02    0.236E-02
DAV:   3    -0.850300837739E+03    0.10996E-05   -0.91692E-06  5820   0.620E-03    0.187E-02
DAV:   4    -0.850300846806E+03   -0.90673E-05   -0.80672E-06  4380   0.714E-03    0.495E-03
DAV:   5    -0.850300848070E+03   -0.12637E-05   -0.28835E-06  4480   0.315E-03    0.288E-03
DAV:   6    -0.850300847980E+03    0.89407E-07   -0.43976E-07  3060   0.182E-03
  23 F= -.85825483E+03 E0= -.85825483E+03  d E =-.209800E-03  mag=     0.0000
quench:  g(F)=  0.000E+00 g(S)=  0.000E+00 dE (1.order)= 0.000E+00
 bond charge predicted
       N       E                     dE             d eps       ncg     rms          rms(c)
DAV:   1    -0.850300990502E+03   -0.14243E-03   -0.61446E-02  4720   0.501E-01    0.411E-02
DAV:   2    -0.850301112303E+03   -0.12180E-03   -0.14162E-03  4680   0.706E-02    0.268E-02
DAV:   3    -0.850301108806E+03    0.34962E-05   -0.14217E-05  5820   0.783E-03    0.213E-02
DAV:   4    -0.850301118373E+03   -0.95666E-05   -0.14895E-05  4460   0.966E-03    0.562E-03
DAV:   5    -0.850301119852E+03   -0.14788E-05   -0.46027E-06  5160   0.396E-03    0.359E-03
DAV:   6    -0.850301119756E+03    0.95795E-07   -0.69163E-07  3320   0.252E-03
  24 F= -.85825508E+03 E0= -.85825508E+03  d E =-.251102E-03  mag=     0.0000
quench:  g(F)=  0.000E+00 g(S)=  0.000E+00 dE (1.order)= 0.000E+00
 bond charge predicted
       N       E                     dE             d eps       ncg     rms          rms(c)
DAV:   1    -0.850301267403E+03   -0.14755E-03   -0.97207E-02  4720   0.631E-01    0.515E-02
DAV:   2    -0.850301460821E+03   -0.19342E-03   -0.22416E-03  4660   0.889E-02    0.335E-02
DAV:   3    -0.850301455426E+03    0.53952E-05   -0.21847E-05  5820   0.976E-03    0.266E-02
DAV:   4    -0.850301471201E+03   -0.15775E-04   -0.23825E-05  4540   0.123E-02    0.674E-03
DAV:   5    -0.850301473303E+03   -0.21021E-05   -0.71240E-06  5440   0.495E-03    0.441E-03
DAV:   6    -0.850301473195E+03    0.10732E-06   -0.11448E-06  3580   0.322E-03
  25 F= -.85825541E+03 E0= -.85825541E+03  d E =-.327568E-03  mag=    -0.0000
quench:  g(F)=  0.000E+00 g(S)=  0.000E+00 dE (1.order)= 0.000E+00
 bond charge predicted
       N       E                     dE             d eps       ncg     rms          rms(c)
DAV:   1    -0.850301562820E+03   -0.89517E-04   -0.15203E-01  4720   0.790E-01    0.643E-02
DAV:   2    -0.850301866157E+03   -0.30334E-03   -0.35151E-03  4650   0.111E-01    0.418E-02
DAV:   3    -0.850301858327E+03    0.78308E-05   -0.33869E-05  5820   0.122E-02    0.332E-02
DAV:   4    -0.850301883251E+03   -0.24924E-04   -0.37705E-05  4700   0.154E-02    0.838E-03
DAV:   5    -0.850301886445E+03   -0.31947E-05   -0.10942E-05  5480   0.618E-03    0.549E-03
DAV:   6    -0.850301886347E+03    0.98502E-07   -0.20322E-06  4150   0.412E-03
  26 F= -.85825579E+03 E0= -.85825579E+03  d E =-.382113E-03  mag=    -0.0000
quench:  g(F)=  0.000E+00 g(S)=  0.000E+00 dE (1.order)= 0.000E+00
 bond charge predicted
       N       E                     dE             d eps       ncg     rms          rms(c)
DAV:   1    -0.850301897334E+03   -0.10889E-04   -0.23256E-01  4720   0.977E-01    0.797E-02
DAV:   2    -0.850302360277E+03   -0.46294E-03   -0.53713E-03  4680   0.138E-01    0.518E-02
DAV:   3    -0.850302348478E+03    0.11799E-04   -0.51853E-05  5800   0.151E-02    0.411E-02
DAV:   4    -0.850302386647E+03   -0.38169E-04   -0.58907E-05  4820   0.191E-02    0.104E-02
DAV:   5    -0.850302391368E+03   -0.47207E-05   -0.16595E-05  5460   0.763E-03    0.673E-03
DAV:   6    -0.850302391247E+03    0.12105E-06   -0.32831E-06  4530   0.512E-03
  27 F= -.85825626E+03 E0= -.85825626E+03  d E =-.466596E-03  mag=     0.0000
quench:  g(F)=  0.000E+00 g(S)=  0.000E+00 dE (1.order)= 0.000E+00
 bond charge predicted
       N       E                     dE             d eps       ncg     rms          rms(c)
DAV:   1    -0.850302226607E+03    0.16476E-03   -0.35438E-01  4720   0.121E+00    0.990E-02
DAV:   2    -0.850302930075E+03   -0.70347E-03   -0.81822E-03  4690   0.170E-01    0.645E-02
DAV:   3    -0.850302912603E+03    0.17472E-04   -0.80479E-05  5800   0.188E-02    0.511E-02
DAV:   4    -0.850302969754E+03   -0.57150E-04   -0.89486E-05  5260   0.235E-02    0.130E-02
DAV:   5    -0.850302977475E+03   -0.77211E-05   -0.25082E-05  5460   0.940E-03    0.821E-03
DAV:   6    -0.850302977189E+03    0.28587E-06   -0.48707E-06  4680   0.635E-03
  28 F= -.85825680E+03 E0= -.85825680E+03  d E =-.540274E-03  mag=     0.0000
quench:  g(F)=  0.000E+00 g(S)=  0.000E+00 dE (1.order)= 0.000E+00
 bond charge predicted
       N       E                     dE             d eps       ncg     rms          rms(c)
DAV:   1    -0.850302533592E+03    0.44388E-03   -0.52310E-01  4740   0.147E+00    0.121E-01
DAV:   2    -0.850303572095E+03   -0.10385E-02   -0.12085E-02  4700   0.207E-01    0.789E-02
DAV:   3    -0.850303547240E+03    0.24855E-04   -0.12193E-04  5820   0.231E-02    0.624E-02
DAV:   4    -0.850303627333E+03   -0.80093E-04   -0.12858E-04  5380   0.284E-02    0.162E-02
DAV:   5    -0.850303639505E+03   -0.12171E-04   -0.37025E-05  5360   0.114E-02    0.984E-03
DAV:   6    -0.850303638972E+03    0.53272E-06   -0.70980E-06  4700   0.782E-03
  29 F= -.85825740E+03 E0= -.85825740E+03  d E =-.604228E-03  mag=     0.0000
quench:  g(F)=  0.000E+00 g(S)=  0.000E+00 dE (1.order)= 0.000E+00
 bond charge predicted
       N       E                     dE             d eps       ncg     rms          rms(c)
DAV:   1    -0.850302731807E+03    0.90770E-03   -0.77858E-01  4760   0.179E+00    0.149E-01
DAV:   2    -0.850304284275E+03   -0.15525E-02   -0.17999E-02  4750   0.253E-01    0.969E-02
DAV:   3    -0.850304247051E+03    0.37225E-04   -0.18184E-04  5800   0.284E-02    0.765E-02
DAV:   4    -0.850304359487E+03   -0.11244E-03   -0.19821E-04  5400   0.352E-02    0.196E-02
DAV:   5    -0.850304376537E+03   -0.17049E-04   -0.55622E-05  5440   0.140E-02    0.120E-02
DAV:   6    -0.850304375765E+03    0.77212E-06   -0.10855E-05  4730   0.957E-03    0.594E-03
DAV:   7    -0.850304376676E+03   -0.91128E-06   -0.35598E-06  4640   0.378E-03
  30 F= -.85825807E+03 E0= -.85825807E+03  d E =-.668011E-03  mag=     0.0000
quench:  g(F)=  0.000E+00 g(S)=  0.000E+00 dE (1.order)= 0.000E+00
 bond charge predicted
       N       E                     dE             d eps       ncg     rms          rms(c)
DAV:   1    -0.850302758629E+03    0.16171E-02   -0.11413E+00  4760   0.216E+00    0.180E-01
DAV:   2    -0.850305034878E+03   -0.22762E-02   -0.26299E-02  4760   0.307E-01    0.118E-01
DAV:   3    -0.850304978401E+03    0.56477E-04   -0.27007E-04  5820   0.346E-02    0.932E-02
DAV:   4    -0.850305124273E+03   -0.14587E-03   -0.30158E-04  5440   0.427E-02    0.244E-02
DAV:   5    -0.850305149413E+03   -0.25140E-04   -0.82645E-05  5420   0.170E-02    0.145E-02
DAV:   6    -0.850305148530E+03    0.88245E-06   -0.16597E-05  4820   0.114E-02    0.704E-03
DAV:   7    -0.850305149869E+03   -0.13386E-05   -0.48564E-06  4940   0.435E-03    0.493E-03
DAV:   8    -0.850305149636E+03    0.23231E-06   -0.96255E-07  3600   0.365E-03
  31 F= -.85825876E+03 E0= -.85825876E+03  d E =-.695447E-03  mag=     0.0000
quench:  g(F)=  0.000E+00 g(S)=  0.000E+00 dE (1.order)= 0.000E+00
 bond charge predicted
       N       E                     dE             d eps       ncg     rms          rms(c)
DAV:   1    -0.850302478565E+03    0.26713E-02   -0.16321E+00  4740   0.259E+00    0.218E-01
DAV:   2    -0.850305727844E+03   -0.32493E-02   -0.37554E-02  4760   0.367E-01    0.144E-01
DAV:   3    -0.850305643622E+03    0.84223E-04   -0.40380E-04  5760   0.421E-02    0.113E-01
DAV:   4    -0.850305829751E+03   -0.18613E-03   -0.42563E-04  5500   0.512E-02    0.311E-02
DAV:   5    -0.850305870816E+03   -0.41064E-04   -0.12155E-04  5380   0.206E-02    0.179E-02
DAV:   6    -0.850305868899E+03    0.19166E-05   -0.25787E-05  5000   0.145E-02    0.853E-03
DAV:   7    -0.850305870942E+03   -0.20427E-05   -0.80672E-06  5060   0.558E-03    0.595E-03
DAV:   8    -0.850305870552E+03    0.38984E-06   -0.13930E-06  3980   0.438E-03
  32 F= -.85825941E+03 E0= -.85825941E+03  d E =-.650147E-03  mag=     0.0000
quench:  g(F)=  0.000E+00 g(S)=  0.000E+00 dE (1.order)= 0.000E+00
 bond charge predicted
       N       E                     dE             d eps       ncg     rms          rms(c)
DAV:   1    -0.850301780341E+03    0.40906E-02   -0.23866E+00  4760   0.313E+00    0.263E-01
DAV:   2    -0.850306574031E+03   -0.47937E-02   -0.55093E-02  4840   0.445E-01    0.173E-01
DAV:   3    -0.850306447640E+03    0.12639E-03   -0.59055E-04  5760   0.510E-02    0.136E-01
DAV:   4    -0.850306692844E+03   -0.24520E-03   -0.62200E-04  5520   0.623E-02    0.377E-02
DAV:   5    -0.850306751958E+03   -0.59114E-04   -0.17860E-04  5400   0.250E-02    0.216E-02
DAV:   6    -0.850306749343E+03    0.26148E-05   -0.38446E-05  5140   0.181E-02    0.103E-02
DAV:   7    -0.850306752603E+03   -0.32597E-05   -0.11659E-05  5040   0.664E-03    0.720E-03
DAV:   8    -0.850306752018E+03    0.58521E-06   -0.25444E-06  4800   0.576E-03
  33 F= -.85826019E+03 E0= -.85826019E+03  d E =-.780028E-03  mag=    -0.0000
quench:  g(F)=  0.000E+00 g(S)=  0.000E+00 dE (1.order)= 0.000E+00
 bond charge predicted
       N       E                     dE             d eps       ncg     rms          rms(c)
DAV:   1    -0.850300311962E+03    0.64406E-02   -0.34933E+00  4760   0.380E+00    0.316E-01
DAV:   2    -0.850307427184E+03   -0.71152E-02   -0.81080E-02  4880   0.540E-01    0.209E-01
DAV:   3    -0.850307237170E+03    0.19001E-03   -0.87272E-04  5800   0.622E-02    0.165E-01
DAV:   4    -0.850307540524E+03   -0.30335E-03   -0.91116E-04  5540   0.761E-02    0.465E-02
DAV:   5    -0.850307630272E+03   -0.89748E-04   -0.27382E-04  5340   0.308E-02    0.267E-02
DAV:   6    -0.850307626409E+03    0.38629E-05   -0.54935E-05  5160   0.213E-02    0.127E-02
DAV:   7    -0.850307631131E+03   -0.47220E-05   -0.17445E-05  5100   0.822E-03    0.871E-03
DAV:   8    -0.850307630339E+03    0.79161E-06   -0.30773E-06  4940   0.623E-03
  34 F= -.85826094E+03 E0= -.85826094E+03  d E =-.744354E-03  mag=    -0.0000
quench:  g(F)=  0.000E+00 g(S)=  0.000E+00 dE (1.order)= 0.000E+00
 bond charge predicted
       N       E                     dE             d eps       ncg     rms          rms(c)
DAV:   1    -0.850297360965E+03    0.10270E-01   -0.49412E+00  4720   0.453E+00    0.379E-01
DAV:   2    -0.850307526723E+03   -0.10166E-01   -0.11573E-01  4900   0.646E-01    0.254E-01
DAV:   3    -0.850307214138E+03    0.31259E-03   -0.13594E-03  5940   0.763E-02    0.201E-01
DAV:   4    -0.850307505180E+03   -0.29104E-03   -0.13252E-03  5360   0.917E-02    0.607E-02
DAV:   5    -0.850307650864E+03   -0.14568E-03   -0.43159E-04  5260   0.382E-02    0.342E-02
DAV:   6    -0.850307645850E+03    0.50138E-05   -0.93846E-05  5260   0.275E-02    0.154E-02
DAV:   7    -0.850307653137E+03   -0.72863E-05   -0.24085E-05  5040   0.932E-03    0.107E-02
DAV:   8    -0.850307651925E+03    0.12117E-05   -0.56621E-06  5240   0.812E-03    0.499E-03
DAV:   9    -0.850307652450E+03   -0.52479E-06   -0.28279E-06  3940   0.360E-03
  35 F= -.85826082E+03 E0= -.85826082E+03  d E =0.122886E-03  mag=     0.0000
quench:  g(F)=  0.000E+00 g(S)=  0.000E+00 dE (1.order)= 0.000E+00
 bond charge predicted
       N       E                     dE             d eps       ncg     rms          rms(c)
DAV:   1    -0.850308924686E+03   -0.12728E-02   -0.60588E-02  4660   0.503E-01    0.559E-02
DAV:   2    -0.850309033075E+03   -0.10839E-03   -0.15463E-03  5740   0.731E-02    0.493E-02
DAV:   3    -0.850309004959E+03    0.28115E-04   -0.76252E-05  6160   0.162E-02    0.369E-02
DAV:   4    -0.850308982110E+03    0.22849E-04   -0.49760E-05  4880   0.152E-02    0.165E-02
DAV:   5    -0.850308980954E+03    0.11558E-05   -0.16313E-05  5020   0.751E-03    0.687E-03
DAV:   6    -0.850308981049E+03   -0.95068E-07   -0.20025E-06  3600   0.273E-03
  36 F= -.85826214E+03 E0= -.85826214E+03  d E =-.132502E-02  mag=     0.0000
quench:  g(F)=  0.000E+00 g(S)=  0.000E+00 dE (1.order)= 0.000E+00
 bond charge predicted
       N       E                     dE             d eps       ncg     rms          rms(c)
DAV:   1    -0.850308072853E+03    0.90810E-03   -0.78786E-02  4660   0.585E-01    0.601E-02
DAV:   2    -0.850308226803E+03   -0.15395E-03   -0.20291E-03  5640   0.860E-02    0.515E-02
DAV:   3    -0.850308201740E+03    0.25062E-04   -0.79891E-05  6160   0.168E-02    0.397E-02
DAV:   4    -0.850308180767E+03    0.20973E-04   -0.55401E-05  4880   0.164E-02    0.175E-02
DAV:   5    -0.850308181104E+03   -0.33645E-06   -0.19018E-05  5020   0.821E-03    0.785E-03
DAV:   6    -0.850308181244E+03   -0.14013E-06   -0.26754E-06  3700   0.324E-03
  37 F= -.85826133E+03 E0= -.85826133E+03  d E =0.810679E-03  mag=     0.0000
quench:  g(F)=  0.000E+00 g(S)=  0.000E+00 dE (1.order)= 0.000E+00
 bond charge predicted
       N       E                     dE             d eps       ncg     rms          rms(c)
DAV:   1    -0.850308571504E+03   -0.39040E-03   -0.27923E-03  4640   0.108E-01    0.121E-02
DAV:   2    -0.850308576086E+03   -0.45823E-05   -0.71475E-05  5760   0.158E-02    0.110E-02
DAV:   3    -0.850308574587E+03    0.14986E-05   -0.33706E-06  4240   0.353E-03    0.832E-03
DAV:   4    -0.850308573225E+03    0.13629E-05   -0.37996E-06  4100   0.401E-03    0.353E-03
DAV:   5    -0.850308573154E+03    0.70475E-07   -0.72561E-07  2700   0.164E-03
  38 F= -.85826172E+03 E0= -.85826172E+03  d E =-.392497E-03  mag=     0.0000
quench:  g(F)=  0.000E+00 g(S)=  0.000E+00 dE (1.order)= 0.000E+00
 bond charge predicted
       N       E                     dE             d eps       ncg     rms          rms(c)
DAV:   1    -0.850309011620E+03   -0.43840E-03   -0.89107E-03  4640   0.194E-01    0.213E-02
DAV:   2    -0.850309027952E+03   -0.16332E-04   -0.22755E-04  5720   0.282E-02    0.187E-02
DAV:   3    -0.850309024170E+03    0.37814E-05   -0.10885E-05  6100   0.607E-03    0.141E-02
DAV:   4    -0.850309020939E+03    0.32310E-05   -0.72288E-06  4700   0.579E-03    0.637E-03
DAV:   5    -0.850309020771E+03    0.16863E-06   -0.22076E-06  3380   0.279E-03
  39 F= -.85826217E+03 E0= -.85826217E+03  d E =-.448222E-03  mag=    -0.0000
quench:  g(F)=  0.000E+00 g(S)=  0.000E+00 dE (1.order)= 0.000E+00
 bond charge predicted
       N       E                     dE             d eps       ncg     rms          rms(c)
DAV:   1    -0.850309138525E+03   -0.11759E-03   -0.13761E-02  4660   0.243E-01    0.259E-02
DAV:   2    -0.850309164715E+03   -0.26190E-04   -0.35309E-04  5640   0.355E-02    0.226E-02
DAV:   3    -0.850309159634E+03    0.50804E-05   -0.15314E-05  6200   0.722E-03    0.173E-02
DAV:   4    -0.850309155101E+03    0.45332E-05   -0.10705E-05  4720   0.709E-03    0.761E-03
DAV:   5    -0.850309154972E+03    0.12868E-06   -0.33370E-06  3740   0.342E-03
  40 F= -.85826230E+03 E0= -.85826230E+03  d E =-.133940E-03  mag=    -0.0000
quench:  g(F)=  0.000E+00 g(S)=  0.000E+00 dE (1.order)= 0.000E+00
 bond charge predicted
       N       E                     dE             d eps       ncg     rms          rms(c)
DAV:   1    -0.850309159436E+03   -0.43349E-05   -0.19270E-05  4560   0.908E-03    0.215E-03
DAV:   2    -0.850309159460E+03   -0.23909E-07   -0.54877E-07  2560   0.152E-03
  41 F= -.85826231E+03 E0= -.85826231E+03  d E =-.435221E-05  mag=    -0.0000
quench:  g(F)=  0.000E+00 g(S)=  0.000E+00 dE (1.order)= 0.000E+00
 bond charge predicted
       N       E                     dE             d eps       ncg     rms          rms(c)
DAV:   1    -0.850309168138E+03   -0.87025E-05   -0.71951E-05  4720   0.176E-02    0.236E-03
DAV:   2    -0.850309168269E+03   -0.13071E-06   -0.16562E-06  3090   0.256E-03
  42 F= -.85826232E+03 E0= -.85826232E+03  d E =-.853561E-05  mag=     0.0000
quench:  g(F)=  0.000E+00 g(S)=  0.000E+00 dE (1.order)= 0.000E+00
 bond charge predicted
       N       E                     dE             d eps       ncg     rms          rms(c)
DAV:   1    -0.850309179810E+03   -0.11671E-04   -0.16032E-04  4680   0.262E-02    0.337E-03
DAV:   2    -0.850309180073E+03   -0.26311E-06   -0.37490E-06  4220   0.379E-03
  43 F= -.85826233E+03 E0= -.85826233E+03  d E =-.113831E-04  mag=     0.0000
quench:  g(F)=  0.000E+00 g(S)=  0.000E+00 dE (1.order)= 0.000E+00
 bond charge predicted
       N       E                     dE             d eps       ncg     rms          rms(c)
DAV:   1    -0.850309193632E+03   -0.13823E-04   -0.28019E-04  4720   0.346E-02    0.457E-03
DAV:   2    -0.850309194064E+03   -0.43146E-06   -0.66148E-06  5160   0.497E-03
  44 F= -.85826234E+03 E0= -.85826234E+03  d E =-.134556E-04  mag=     0.0000
quench:  g(F)=  0.000E+00 g(S)=  0.000E+00 dE (1.order)= 0.000E+00
 bond charge predicted
       N       E                     dE             d eps       ncg     rms          rms(c)
DAV:   1    -0.850309208451E+03   -0.14819E-04   -0.42824E-04  4740   0.426E-02    0.583E-03
DAV:   2    -0.850309209058E+03   -0.60711E-06   -0.97741E-06  5260   0.603E-03
  45 F= -.85826236E+03 E0= -.85826236E+03  d E =-.142684E-04  mag=     0.0000
quench:  g(F)=  0.000E+00 g(S)=  0.000E+00 dE (1.order)= 0.000E+00
 bond charge predicted
       N       E                     dE             d eps       ncg     rms          rms(c)
DAV:   1    -0.850309224065E+03   -0.15615E-04   -0.60347E-04  4720   0.505E-02    0.699E-03
DAV:   2    -0.850309224906E+03   -0.84056E-06   -0.13621E-05  5280   0.711E-03    0.568E-03
DAV:   3    -0.850309224912E+03   -0.61627E-08   -0.26096E-07  2740   0.121E-03
  46 F= -.85826237E+03 E0= -.85826237E+03  d E =-.149828E-04  mag=     0.0000
quench:  g(F)=  0.000E+00 g(S)=  0.000E+00 dE (1.order)= 0.000E+00
 bond charge predicted
       N       E                     dE             d eps       ncg     rms          rms(c)
DAV:   1    -0.850309241547E+03   -0.16641E-04   -0.98547E-04  4720   0.643E-02    0.600E-03
DAV:   2    -0.850309243372E+03   -0.18250E-05   -0.21715E-05  4900   0.889E-03    0.425E-03
DAV:   3    -0.850309243374E+03   -0.18699E-08   -0.23192E-07  2720   0.110E-03
  47 F= -.85826239E+03 E0= -.85826239E+03  d E =-.173467E-04  mag=     0.0000
quench:  g(F)=  0.000E+00 g(S)=  0.000E+00 dE (1.order)= 0.000E+00
 bond charge predicted
       N       E                     dE             d eps       ncg     rms          rms(c)
DAV:   1    -0.850309262570E+03   -0.19198E-04   -0.16049E-03  4720   0.819E-02    0.740E-03
DAV:   2    -0.850309265618E+03   -0.30482E-05   -0.36208E-05  4880   0.115E-02    0.517E-03
DAV:   3    -0.850309265595E+03    0.23763E-07   -0.36920E-07  3040   0.139E-03
  48 F= -.85826241E+03 E0= -.85826241E+03  d E =-.207604E-04  mag=     0.0000
quench:  g(F)=  0.000E+00 g(S)=  0.000E+00 dE (1.order)= 0.000E+00
 bond charge predicted
       N       E                     dE             d eps       ncg     rms          rms(c)
DAV:   1    -0.850309288893E+03   -0.23274E-04   -0.25472E-03  4720   0.103E-01    0.919E-03
DAV:   2    -0.850309293680E+03   -0.47870E-05   -0.57020E-05  4700   0.144E-02    0.633E-03
DAV:   3    -0.850309293652E+03    0.27307E-07   -0.54256E-07  3460   0.170E-03
  49 F= -.85826244E+03 E0= -.85826244E+03  d E =-.261956E-04  mag=     0.0000
quench:  g(F)=  0.000E+00 g(S)=  0.000E+00 dE (1.order)= 0.000E+00
 bond charge predicted
       N       E                     dE             d eps       ncg     rms          rms(c)
DAV:   1    -0.850309322394E+03   -0.28715E-04   -0.39967E-03  4720   0.129E-01    0.114E-02
DAV:   2    -0.850309329872E+03   -0.74773E-05   -0.89269E-05  4640   0.180E-02    0.775E-03
DAV:   3    -0.850309329807E+03    0.65003E-07   -0.82011E-07  3640   0.210E-03
  50 F= -.85826247E+03 E0= -.85826247E+03  d E =-.338218E-04  mag=    -0.0000
quench:  g(F)=  0.000E+00 g(S)=  0.000E+00 dE (1.order)= 0.000E+00
 bond charge predicted
       N       E                     dE             d eps       ncg     rms          rms(c)
DAV:   1    -0.850309365521E+03   -0.35649E-04   -0.62465E-03  4720   0.161E-01    0.141E-02
DAV:   2    -0.850309377135E+03   -0.11614E-04   -0.13932E-04  4640   0.224E-02    0.956E-03
DAV:   3    -0.850309377022E+03    0.11319E-06   -0.12947E-06  3920   0.261E-03
  51 F= -.85826251E+03 E0= -.85826251E+03  d E =-.443081E-04  mag=     0.0000
quench:  g(F)=  0.000E+00 g(S)=  0.000E+00 dE (1.order)= 0.000E+00
 bond charge predicted
       N       E                     dE             d eps       ncg     rms          rms(c)
DAV:   1    -0.850309421016E+03   -0.43881E-04   -0.97274E-03  4720   0.201E-01    0.175E-02
DAV:   2    -0.850309439073E+03   -0.18057E-04   -0.21673E-04  4640   0.280E-02    0.119E-02
DAV:   3    -0.850309438876E+03    0.19695E-06   -0.22004E-06  4600   0.325E-03
  52 F= -.85826257E+03 E0= -.85826257E+03  d E =-.581748E-04  mag=     0.0000
quench:  g(F)=  0.000E+00 g(S)=  0.000E+00 dE (1.order)= 0.000E+00
 bond charge predicted
       N       E                     dE             d eps       ncg     rms          rms(c)
DAV:   1    -0.850309486326E+03   -0.47253E-04   -0.15061E-02  4720   0.250E-01    0.219E-02
DAV:   2    -0.850309514064E+03   -0.27738E-04   -0.33538E-04  4640   0.348E-02    0.149E-02
DAV:   3    -0.850309513728E+03    0.33521E-06   -0.36393E-06  5200   0.406E-03
  53 F= -.85826264E+03 E0= -.85826264E+03  d E =-.699527E-04  mag=     0.0000
quench:  g(F)=  0.000E+00 g(S)=  0.000E+00 dE (1.order)= 0.000E+00
 bond charge predicted
       N       E                     dE             d eps       ncg     rms          rms(c)
DAV:   1    -0.850309562263E+03   -0.48200E-04   -0.23105E-02  4720   0.309E-01    0.273E-02
DAV:   2    -0.850309604434E+03   -0.42171E-04   -0.51395E-04  4640   0.431E-02    0.186E-02
DAV:   3    -0.850309603915E+03    0.51886E-06   -0.56446E-06  5620   0.502E-03
  54 F= -.85826272E+03 E0= -.85826272E+03  d E =-.830511E-04  mag=     0.0000
quench:  g(F)=  0.000E+00 g(S)=  0.000E+00 dE (1.order)= 0.000E+00
 bond charge predicted
       N       E                     dE             d eps       ncg     rms          rms(c)
DAV:   1    -0.850309649414E+03   -0.44980E-04   -0.35010E-02  4720   0.380E-01    0.338E-02
DAV:   2    -0.850309712820E+03   -0.63407E-04   -0.77821E-04  4640   0.530E-02    0.230E-02
DAV:   3    -0.850309712089E+03    0.73086E-06   -0.85361E-06  5760   0.617E-03
  55 F= -.85826282E+03 E0= -.85826282E+03  d E =-.981073E-04  mag=    -0.0000
quench:  g(F)=  0.000E+00 g(S)=  0.000E+00 dE (1.order)= 0.000E+00
 bond charge predicted
       N       E                     dE             d eps       ncg     rms          rms(c)
DAV:   1    -0.850309755351E+03   -0.42531E-04   -0.52864E-02  4720   0.467E-01    0.416E-02
DAV:   2    -0.850309850490E+03   -0.95139E-04   -0.11746E-03  4640   0.651E-02    0.283E-02
DAV:   3    -0.850309849422E+03    0.10683E-05   -0.13026E-05  5760   0.761E-03    0.221E-02
DAV:   4    -0.850309862781E+03   -0.13359E-04   -0.10925E-05  4540   0.857E-03    0.605E-03
DAV:   5    -0.850309864605E+03   -0.18244E-05   -0.41695E-06  4920   0.377E-03    0.329E-03
DAV:   6    -0.850309864491E+03    0.11406E-06   -0.67392E-07  3240   0.223E-03
  56 F= -.85826296E+03 E0= -.85826296E+03  d E =-.137964E-03  mag=     0.0000
quench:  g(F)=  0.000E+00 g(S)=  0.000E+00 dE (1.order)= 0.000E+00
 bond charge predicted
       N       E                     dE             d eps       ncg     rms          rms(c)
DAV:   1    -0.850309869450E+03   -0.48451E-05   -0.81916E-02  4760   0.582E-01    0.481E-02
DAV:   2    -0.850310032602E+03   -0.16315E-03   -0.19059E-03  4640   0.829E-02    0.311E-02
DAV:   3    -0.850310028302E+03    0.42994E-05   -0.19669E-05  5720   0.943E-03    0.245E-02
DAV:   4    -0.850310041025E+03   -0.12723E-04   -0.19091E-05  4720   0.111E-02    0.696E-03
DAV:   5    -0.850310043166E+03   -0.21409E-05   -0.62576E-06  5240   0.458E-03    0.408E-03
DAV:   6    -0.850310043083E+03    0.82589E-07   -0.10608E-06  3340   0.306E-03
  57 F= -.85826312E+03 E0= -.85826312E+03  d E =-.158777E-03  mag=    -0.0000
quench:  g(F)=  0.000E+00 g(S)=  0.000E+00 dE (1.order)= 0.000E+00
 bond charge predicted
       N       E                     dE             d eps       ncg     rms          rms(c)
DAV:   1    -0.850309977984E+03    0.65183E-04   -0.12387E-01  4760   0.715E-01    0.590E-02
DAV:   2    -0.850310224557E+03   -0.24657E-03   -0.28816E-03  4660   0.102E-01    0.381E-02
DAV:   3    -0.850310218098E+03    0.64587E-05   -0.29024E-05  5720   0.115E-02    0.300E-02
DAV:   4    -0.850310238122E+03   -0.20024E-04   -0.28942E-05  4800   0.137E-02    0.823E-03
DAV:   5    -0.850310241269E+03   -0.31468E-05   -0.92467E-06  5340   0.558E-03    0.485E-03
DAV:   6    -0.850310241104E+03    0.16409E-06   -0.16402E-06  3800   0.379E-03
  58 F= -.85826329E+03 E0= -.85826329E+03  d E =-.172176E-03  mag=     0.0000
quench:  g(F)=  0.000E+00 g(S)=  0.000E+00 dE (1.order)= 0.000E+00
 bond charge predicted
       N       E                     dE             d eps       ncg     rms          rms(c)
DAV:   1    -0.850310075910E+03    0.16536E-03   -0.18304E-01  4760   0.869E-01    0.717E-02
DAV:   2    -0.850310438845E+03   -0.36293E-03   -0.42466E-03  4660   0.124E-01    0.461E-02
DAV:   3    -0.850310429273E+03    0.95714E-05   -0.42653E-05  5760   0.139E-02    0.362E-02
DAV:   4    -0.850310459080E+03   -0.29807E-04   -0.43528E-05  5000   0.167E-02    0.976E-03
DAV:   5    -0.850310463561E+03   -0.44812E-05   -0.13243E-05  5360   0.671E-03    0.574E-03
DAV:   6    -0.850310463363E+03    0.19876E-06   -0.25182E-06  4240   0.459E-03
  59 F= -.85826348E+03 E0= -.85826348E+03  d E =-.192096E-03  mag=     0.0000
quench:  g(F)=  0.000E+00 g(S)=  0.000E+00 dE (1.order)= 0.000E+00
 bond charge predicted
       N       E                     dE             d eps       ncg     rms          rms(c)
DAV:   1    -0.850310124561E+03    0.33900E-03   -0.26896E-01  4760   0.105E+00    0.873E-02
DAV:   2    -0.850310655343E+03   -0.53078E-03   -0.62182E-03  4740   0.149E-01    0.559E-02
DAV:   3    -0.850310641034E+03    0.14309E-04   -0.62881E-05  5720   0.168E-02    0.438E-02
DAV:   4    -0.850310684758E+03   -0.43723E-04   -0.64813E-05  5280   0.201E-02    0.118E-02
DAV:   5    -0.850310691188E+03   -0.64302E-05   -0.18808E-05  5360   0.803E-03    0.684E-03
DAV:   6    -0.850310690967E+03    0.22117E-06   -0.37723E-06  4420   0.552E-03
  60 F= -.85826368E+03 E0= -.85826368E+03  d E =-.193322E-03  mag=     0.0000
quench:  g(F)=  0.000E+00 g(S)=  0.000E+00 dE (1.order)= 0.000E+00
 bond charge predicted
       N       E                     dE             d eps       ncg     rms          rms(c)
DAV:   1    -0.850310131663E+03    0.55952E-03   -0.39224E-01  4760   0.127E+00    0.106E-01
DAV:   2    -0.850310902950E+03   -0.77129E-03   -0.90530E-03  4780   0.180E-01    0.680E-02
DAV:   3    -0.850310882020E+03    0.20931E-04   -0.92393E-05  5720   0.203E-02    0.531E-02
DAV:   4    -0.850310945517E+03   -0.63497E-04   -0.96570E-05  5400   0.243E-02    0.142E-02
DAV:   5    -0.850310954833E+03   -0.93161E-05   -0.27282E-05  5340   0.971E-03    0.820E-03
DAV:   6    -0.850310954615E+03    0.21844E-06   -0.55022E-06  4540   0.658E-03
  61 F= -.85826390E+03 E0= -.85826390E+03  d E =-.221544E-03  mag=     0.0000
quench:  g(F)=  0.000E+00 g(S)=  0.000E+00 dE (1.order)= 0.000E+00
 bond charge predicted
       N       E                     dE             d eps       ncg     rms          rms(c)
DAV:   1    -0.850310048530E+03    0.90630E-03   -0.57367E-01  4760   0.153E+00    0.129E-01
DAV:   2    -0.850311171698E+03   -0.11232E-02   -0.13194E-02  4780   0.217E-01    0.826E-02
DAV:   3    -0.850311140953E+03    0.30745E-04   -0.13514E-04  5740   0.246E-02    0.645E-02
DAV:   4    -0.850311230674E+03   -0.89720E-04   -0.14469E-04  5520   0.295E-02    0.171E-02
DAV:   5    -0.850311244650E+03   -0.13976E-04   -0.40030E-05  5300   0.117E-02    0.978E-03
DAV:   6    -0.850311244525E+03    0.12495E-06   -0.78923E-06  4600   0.776E-03
  62 F= -.85826413E+03 E0= -.85826413E+03  d E =-.230703E-03  mag=     0.0000
quench:  g(F)=  0.000E+00 g(S)=  0.000E+00 dE (1.order)= 0.000E+00
 bond charge predicted
       N       E                     dE             d eps       ncg     rms          rms(c)
DAV:   1    -0.850309821448E+03    0.14232E-02   -0.82738E-01  4780   0.183E+00    0.155E-01
DAV:   2    -0.850311434993E+03   -0.16135E-02   -0.18952E-02  4800   0.260E-01    0.999E-02
DAV:   3    -0.850311387993E+03    0.47000E-04   -0.19539E-04  5720   0.296E-02    0.778E-02
DAV:   4    -0.850311513375E+03   -0.12538E-03   -0.21427E-04  5560   0.358E-02    0.204E-02
DAV:   5    -0.850311533798E+03   -0.20423E-04   -0.58017E-05  5300   0.140E-02    0.115E-02
DAV:   6    -0.850311533608E+03    0.18973E-06   -0.11049E-05  4700   0.907E-03    0.554E-03
DAV:   7    -0.850311534464E+03   -0.85537E-06   -0.28292E-06  4220   0.326E-03
  63 F= -.85826435E+03 E0= -.85826435E+03  d E =-.217459E-03  mag=     0.0000
quench:  g(F)=  0.000E+00 g(S)=  0.000E+00 dE (1.order)= 0.000E+00
 bond charge predicted
       N       E                     dE             d eps       ncg     rms          rms(c)
DAV:   1    -0.850309374934E+03    0.21587E-02   -0.12030E+00  4780   0.221E+00    0.187E-01
DAV:   2    -0.850311716953E+03   -0.23420E-02   -0.27441E-02  4800   0.313E-01    0.122E-01
DAV:   3    -0.850311645062E+03    0.71891E-04   -0.29302E-04  5720   0.360E-02    0.944E-02
DAV:   4    -0.850311806735E+03   -0.16167E-03   -0.31008E-04  5620   0.425E-02    0.255E-02
DAV:   5    -0.850311838158E+03   -0.31423E-04   -0.85799E-05  5280   0.168E-02    0.140E-02
DAV:   6    -0.850311837800E+03    0.35794E-06   -0.15986E-05  4760   0.106E-02    0.675E-03
DAV:   7    -0.850311839154E+03   -0.13546E-05   -0.41951E-06  5020   0.391E-03    0.453E-03
DAV:   8    -0.850311838919E+03    0.23545E-06   -0.83939E-07  3500   0.352E-03
  64 F= -.85826458E+03 E0= -.85826458E+03  d E =-.228528E-03  mag=     0.0000
quench:  g(F)=  0.000E+00 g(S)=  0.000E+00 dE (1.order)= 0.000E+00
 bond charge predicted
       N       E                     dE             d eps       ncg     rms          rms(c)
DAV:   1    -0.850308798529E+03    0.30406E-02   -0.17015E+00  4780   0.262E+00    0.224E-01
DAV:   2    -0.850312086819E+03   -0.32883E-02   -0.38448E-02  4880   0.370E-01    0.145E-01
DAV:   3    -0.850311988850E+03    0.97969E-04   -0.42788E-04  5740   0.433E-02    0.113E-01
DAV:   4    -0.850312176826E+03   -0.18798E-03   -0.44890E-04  5640   0.510E-02    0.310E-02
DAV:   5    -0.850312221346E+03   -0.44521E-04   -0.12491E-04  5260   0.202E-02    0.173E-02
DAV:   6    -0.850312220684E+03    0.66226E-06   -0.24326E-05  4920   0.134E-02    0.826E-03
DAV:   7    -0.850312222673E+03   -0.19889E-05   -0.64782E-06  5060   0.486E-03    0.551E-03
DAV:   8    -0.850312222326E+03    0.34668E-06   -0.13547E-06  3920   0.452E-03
  65 F= -.85826486E+03 E0= -.85826486E+03  d E =-.289326E-03  mag=    -0.0000
quench:  g(F)=  0.000E+00 g(S)=  0.000E+00 dE (1.order)= 0.000E+00
 bond charge predicted
       N       E                     dE             d eps       ncg     rms          rms(c)
DAV:   1    -0.850307599034E+03    0.46236E-02   -0.24220E+00  4780   0.311E+00    0.267E-01
DAV:   2    -0.850312267361E+03   -0.46683E-02   -0.54304E-02  4900   0.439E-01    0.174E-01
DAV:   3    -0.850312119932E+03    0.14743E-03   -0.61035E-04  5700   0.517E-02    0.135E-01
DAV:   4    -0.850312355108E+03   -0.23518E-03   -0.67304E-04  5640   0.617E-02    0.362E-02
DAV:   5    -0.850312411748E+03   -0.56639E-04   -0.18200E-04  5300   0.244E-02    0.203E-02
DAV:   6    -0.850312411770E+03   -0.22184E-07   -0.32917E-05  5060   0.151E-02    0.984E-03
DAV:   7    -0.850312414372E+03   -0.26021E-05   -0.80803E-06  5160   0.545E-03    0.638E-03
DAV:   8    -0.850312413943E+03    0.42887E-06   -0.17521E-06  4060   0.499E-03
  66 F= -.85826496E+03 E0= -.85826496E+03  d E =-.961152E-04  mag=     0.0000
quench:  g(F)=  0.000E+00 g(S)=  0.000E+00 dE (1.order)= 0.000E+00
 bond charge predicted
       N       E                     dE             d eps       ncg     rms          rms(c)
DAV:   1    -0.850305616563E+03    0.67978E-02   -0.33743E+00  4760   0.365E+00    0.317E-01
DAV:   2    -0.850312102996E+03   -0.64864E-02   -0.75167E-02  4900   0.515E-01    0.208E-01
DAV:   3    -0.850311889384E+03    0.21361E-03   -0.88219E-04  5740   0.618E-02    0.161E-01
DAV:   4    -0.850312147860E+03   -0.25848E-03   -0.95853E-04  5640   0.728E-02    0.444E-02
DAV:   5    -0.850312229490E+03   -0.81630E-04   -0.26852E-04  5300   0.291E-02    0.250E-02
DAV:   6    -0.850312229079E+03    0.41106E-06   -0.47702E-05  5060   0.176E-02    0.122E-02
DAV:   7    -0.850312233710E+03   -0.46311E-05   -0.11725E-05  5000   0.653E-03    0.755E-03
DAV:   8    -0.850312233170E+03    0.53965E-06   -0.25261E-06  4840   0.574E-03
  67 F= -.85826468E+03 E0= -.85826468E+03  d E =0.277187E-03  mag=    -0.0000
quench:  g(F)=  0.000E+00 g(S)=  0.000E+00 dE (1.order)= 0.000E+00
 bond charge predicted
       N       E                     dE             d eps       ncg     rms          rms(c)
DAV:   1    -0.850302555601E+03    0.96781E-02   -0.44943E+00  4760   0.419E+00    0.369E-01
DAV:   2    -0.850311108888E+03   -0.85533E-02   -0.99627E-02  4980   0.591E-01    0.249E-01
DAV:   3    -0.850310765200E+03    0.34369E-03   -0.12921E-03  5880   0.748E-02    0.192E-01
DAV:   4    -0.850310986434E+03   -0.22123E-03   -0.14527E-03  5600   0.887E-02    0.534E-02
DAV:   5    -0.850311094144E+03   -0.10771E-03   -0.42176E-04  5260   0.361E-02    0.290E-02
DAV:   6    -0.850311094710E+03   -0.56525E-06   -0.63939E-05  5100   0.189E-02    0.144E-02
DAV:   7    -0.850311098525E+03   -0.38153E-05   -0.12610E-05  5280   0.676E-03    0.931E-03
DAV:   8    -0.850311097991E+03    0.53366E-06   -0.38935E-06  4920   0.631E-03
  68 F= -.85826346E+03 E0= -.85826346E+03  d E =0.122785E-02  mag=     0.0000
quench:  g(F)=  0.000E+00 g(S)=  0.000E+00 dE (1.order)= 0.000E+00
 bond charge predicted
       N       E                     dE             d eps       ncg     rms          rms(c)
DAV:   1    -0.850312224791E+03   -0.11263E-02   -0.57425E-02  4640   0.491E-01    0.546E-02
DAV:   2    -0.850312329803E+03   -0.10501E-03   -0.15149E-03  5680   0.739E-02    0.483E-02
DAV:   3    -0.850312304697E+03    0.25106E-04   -0.74208E-05  6160   0.166E-02    0.368E-02
DAV:   4    -0.850312281879E+03    0.22819E-04   -0.40562E-05  5020   0.141E-02    0.171E-02
DAV:   5    -0.850312280216E+03    0.16627E-05   -0.18309E-05  4960   0.821E-03    0.697E-03
DAV:   6    -0.850312280106E+03    0.11021E-06   -0.26731E-06  3760   0.333E-03
  69 F= -.85826462E+03 E0= -.85826462E+03  d E =-.116762E-02  mag=     0.0000
quench:  g(F)=  0.000E+00 g(S)=  0.000E+00 dE (1.order)= 0.000E+00
 bond charge predicted
       N       E                     dE             d eps       ncg     rms          rms(c)
DAV:   1    -0.850311386484E+03    0.89373E-03   -0.72275E-02  4640   0.552E-01    0.584E-02
DAV:   2    -0.850311527456E+03   -0.14097E-03   -0.18895E-03  5720   0.827E-02    0.498E-02
DAV:   3    -0.850311505162E+03    0.22293E-04   -0.75758E-05  6100   0.167E-02    0.388E-02
DAV:   4    -0.850311484708E+03    0.20455E-04   -0.44940E-05  5040   0.149E-02    0.177E-02
DAV:   5    -0.850311484688E+03    0.19303E-07   -0.19924E-05  5040   0.854E-03    0.776E-03
DAV:   6    -0.850311484589E+03    0.99419E-07   -0.33099E-06  4020   0.393E-03
  70 F= -.85826380E+03 E0= -.85826380E+03  d E =0.821853E-03  mag=    -0.0000
quench:  g(F)=  0.000E+00 g(S)=  0.000E+00 dE (1.order)= 0.000E+00
 bond charge predicted
       N       E                     dE             d eps       ncg     rms          rms(c)
DAV:   1    -0.850311846653E+03   -0.36196E-03   -0.27837E-03  4700   0.108E-01    0.121E-02
DAV:   2    -0.850311851269E+03   -0.46157E-05   -0.72822E-05  5700   0.162E-02    0.109E-02
DAV:   3    -0.850311849887E+03    0.13816E-05   -0.34276E-06  4300   0.373E-03    0.829E-03
DAV:   4    -0.850311848583E+03    0.13041E-05   -0.34640E-06  4100   0.385E-03    0.360E-03
DAV:   5    -0.850311848518E+03    0.65389E-07   -0.73223E-07  2660   0.167E-03
  71 F= -.85826417E+03 E0= -.85826417E+03  d E =-.364869E-03  mag=     0.0000
quench:  g(F)=  0.000E+00 g(S)=  0.000E+00 dE (1.order)= 0.000E+00
 bond charge predicted
       N       E                     dE             d eps       ncg     rms          rms(c)
DAV:   1    -0.850312237819E+03   -0.38924E-03   -0.87940E-03  4720   0.193E-01    0.210E-02
DAV:   2    -0.850312254114E+03   -0.16295E-04   -0.22942E-04  5740   0.286E-02    0.185E-02
DAV:   3    -0.850312250703E+03    0.34110E-05   -0.10593E-05  6060   0.618E-03    0.142E-02
DAV:   4    -0.850312247511E+03    0.31923E-05   -0.66393E-06  4760   0.566E-03    0.640E-03
DAV:   5    -0.850312247371E+03    0.14008E-06   -0.23054E-06  3480   0.292E-03
  72 F= -.85826457E+03 E0= -.85826457E+03  d E =-.400044E-03  mag=     0.0000
quench:  g(F)=  0.000E+00 g(S)=  0.000E+00 dE (1.order)= 0.000E+00
 bond charge predicted
       N       E                     dE             d eps       ncg     rms          rms(c)
DAV:   1    -0.850312310741E+03   -0.63230E-04   -0.13327E-02  4700   0.238E-01    0.255E-02
DAV:   2    -0.850312336185E+03   -0.25445E-04   -0.34835E-04  5700   0.354E-02    0.222E-02
DAV:   3    -0.850312331615E+03    0.45709E-05   -0.14712E-05  6100   0.728E-03    0.172E-02
DAV:   4    -0.850312327266E+03    0.43481E-05   -0.98495E-06  4800   0.692E-03    0.753E-03
DAV:   5    -0.850312327186E+03    0.80698E-07   -0.33995E-06  3960   0.352E-03
  73 F= -.85826465E+03 E0= -.85826465E+03  d E =-.800322E-04  mag=    -0.0000
quench:  g(F)=  0.000E+00 g(S)=  0.000E+00 dE (1.order)= 0.000E+00
 bond charge predicted
       N       E                     dE             d eps       ncg     rms          rms(c)
DAV:   1    -0.850312330740E+03   -0.34731E-05   -0.19214E-05  4600   0.868E-03    0.215E-03
DAV:   2    -0.850312330755E+03   -0.15163E-07   -0.52547E-07  2700   0.143E-03
  74 F= -.85826465E+03 E0= -.85826465E+03  d E =-.326876E-05  mag=    -0.0000
quench:  g(F)=  0.000E+00 g(S)=  0.000E+00 dE (1.order)= 0.000E+00
 bond charge predicted
       N       E                     dE             d eps       ncg     rms          rms(c)
DAV:   1    -0.850312336994E+03   -0.62541E-05   -0.70946E-05  4760   0.167E-02    0.241E-03
DAV:   2    -0.850312337078E+03   -0.83812E-07   -0.15430E-06  3040   0.239E-03
  75 F= -.85826466E+03 E0= -.85826466E+03  d E =-.571826E-05  mag=    -0.0000
quench:  g(F)=  0.000E+00 g(S)=  0.000E+00 dE (1.order)= 0.000E+00
 bond charge predicted
       N       E                     dE             d eps       ncg     rms          rms(c)
DAV:   1    -0.850312344714E+03   -0.77208E-05   -0.15682E-04  4640   0.248E-02    0.350E-03
DAV:   2    -0.850312344904E+03   -0.18931E-06   -0.35263E-06  4340   0.353E-03
  76 F= -.85826466E+03 E0= -.85826466E+03  d E =-.691266E-05  mag=    -0.0000
quench:  g(F)=  0.000E+00 g(S)=  0.000E+00 dE (1.order)= 0.000E+00
 bond charge predicted
       N       E                     dE             d eps       ncg     rms          rms(c)
DAV:   1    -0.850312352425E+03   -0.77106E-05   -0.27070E-04  4700   0.324E-02    0.478E-03
DAV:   2    -0.850312352727E+03   -0.30213E-06   -0.59008E-06  5200   0.452E-03
  77 F= -.85826467E+03 E0= -.85826467E+03  d E =-.661099E-05  mag=    -0.0000
quench:  g(F)=  0.000E+00 g(S)=  0.000E+00 dE (1.order)= 0.000E+00
 bond charge predicted
       N       E                     dE             d eps       ncg     rms          rms(c)
DAV:   1    -0.850312358413E+03   -0.59877E-05   -0.40771E-04  4720   0.394E-02    0.601E-03
DAV:   2    -0.850312358835E+03   -0.42178E-06   -0.86648E-06  5300   0.545E-03
  78 F= -.85826467E+03 E0= -.85826467E+03  d E =-.464174E-05  mag=     0.0000
quench:  g(F)=  0.000E+00 g(S)=  0.000E+00 dE (1.order)= 0.000E+00
 bond charge predicted
       N       E                     dE             d eps       ncg     rms          rms(c)
DAV:   1    -0.850312362056E+03   -0.36432E-05   -0.56634E-04  4720   0.461E-02    0.713E-03
DAV:   2    -0.850312362622E+03   -0.56577E-06   -0.11830E-05  5260   0.633E-03    0.574E-03
DAV:   3    -0.850312362589E+03    0.32924E-07   -0.31432E-07  2730   0.129E-03
  79 F= -.85826468E+03 E0= -.85826468E+03  d E =-.203751E-05  mag=     0.0000
quench:  g(F)=  0.000E+00 g(S)=  0.000E+00 dE (1.order)= 0.000E+00
 bond charge predicted
       N       E                     dE             d eps       ncg     rms          rms(c)
DAV:   1    -0.850312363395E+03   -0.77311E-06   -0.90486E-04  4720   0.577E-02    0.605E-03
DAV:   2    -0.850312364803E+03   -0.14079E-05   -0.18373E-05  4940   0.777E-03    0.434E-03
DAV:   3    -0.850312364786E+03    0.16953E-07   -0.23826E-07  2700   0.108E-03
  80 F= -.85826468E+03 E0= -.85826468E+03  d E =0.257255E-07  mag=    -0.0000
quench:  g(F)=  0.000E+00 g(S)=  0.000E+00 dE (1.order)= 0.000E+00
 bond charge predicted
       N       E                     dE             d eps       ncg     rms          rms(c)
DAV:   1    -0.850312363561E+03    0.12415E-05   -0.14548E-03  4720   0.726E-02    0.743E-03
DAV:   2    -0.850312365891E+03   -0.23299E-05   -0.30129E-05  4780   0.989E-03    0.521E-03
DAV:   3    -0.850312365851E+03    0.40083E-07   -0.37442E-07  3300   0.134E-03
  81 F= -.85826467E+03 E0= -.85826467E+03  d E =0.177677E-05  mag=     0.0000
quench:  g(F)=  0.000E+00 g(S)=  0.000E+00 dE (1.order)= 0.000E+00
 bond charge predicted
       N       E                     dE             d eps       ncg     rms          rms(c)
DAV:   1    -0.850312365392E+03    0.49957E-06   -0.22843E-03  4720   0.904E-02    0.924E-03
DAV:   2    -0.850312368994E+03   -0.36019E-05   -0.46746E-05  4660   0.123E-02    0.637E-03
DAV:   3    -0.850312368946E+03    0.47919E-07   -0.53044E-07  3400   0.160E-03
  82 F= -.85826467E+03 E0= -.85826467E+03  d E =0.424596E-06  mag=    -0.0000
quench:  g(F)=  0.000E+00 g(S)=  0.000E+00 dE (1.order)= 0.000E+00
 bond charge predicted
       N       E                     dE             d eps       ncg     rms          rms(c)
DAV:   1    -0.850312370207E+03   -0.12139E-05   -0.35765E-03  4720   0.113E-01    0.114E-02
DAV:   2    -0.850312375863E+03   -0.56558E-05   -0.72901E-05  4660   0.153E-02    0.779E-03
DAV:   3    -0.850312375779E+03    0.84670E-07   -0.81686E-07  3640   0.197E-03
  83 F= -.85826468E+03 E0= -.85826468E+03  d E =-.242717E-05  mag=     0.0000
quench:  g(F)=  0.000E+00 g(S)=  0.000E+00 dE (1.order)= 0.000E+00
 bond charge predicted
       N       E                     dE             d eps       ncg     rms          rms(c)
DAV:   1    -0.850312377829E+03   -0.19660E-05   -0.55973E-03  4720   0.141E-01    0.143E-02
DAV:   2    -0.850312386677E+03   -0.88482E-05   -0.11422E-04  4660   0.191E-02    0.969E-03
DAV:   3    -0.850312386553E+03    0.12418E-06   -0.13024E-06  3900   0.246E-03
  84 F= -.85826468E+03 E0= -.85826468E+03  d E =-.532277E-05  mag=     0.0000
quench:  g(F)=  0.000E+00 g(S)=  0.000E+00 dE (1.order)= 0.000E+00
 bond charge predicted
       N       E                     dE             d eps       ncg     rms          rms(c)
DAV:   1    -0.850312382810E+03    0.38679E-05   -0.87020E-03  4720   0.176E-01    0.178E-02
DAV:   2    -0.850312396514E+03   -0.13704E-04   -0.17733E-04  4640   0.238E-02    0.121E-02
DAV:   3    -0.850312396306E+03    0.20723E-06   -0.21304E-06  4280   0.310E-03
  85 F= -.85826468E+03 E0= -.85826468E+03  d E =-.283447E-05  mag=     0.0000
quench:  g(F)=  0.000E+00 g(S)=  0.000E+00 dE (1.order)= 0.000E+00
 bond charge predicted
       N       E                     dE             d eps       ncg     rms          rms(c)
DAV:   1    -0.850312377899E+03    0.18615E-04   -0.13383E-02  4720   0.218E-01    0.221E-02
DAV:   2    -0.850312398883E+03   -0.20984E-04   -0.27233E-04  4660   0.294E-02    0.150E-02
DAV:   3    -0.850312398583E+03    0.29930E-06   -0.34589E-06  4920   0.384E-03
  86 F= -.85826468E+03 E0= -.85826468E+03  d E =0.660679E-05  mag=    -0.0000
quench:  g(F)=  0.000E+00 g(S)=  0.000E+00 dE (1.order)= 0.000E+00
 bond charge predicted
       N       E                     dE             d eps       ncg     rms          rms(c)
DAV:   1    -0.850312367002E+03    0.31880E-04   -0.20292E-02  4720   0.268E-01    0.274E-02
DAV:   2    -0.850312398370E+03   -0.31368E-04   -0.41105E-04  4660   0.361E-02    0.186E-02
DAV:   3    -0.850312398143E+03    0.22728E-06   -0.53627E-06  5220   0.474E-03
  87 F= -.85826467E+03 E0= -.85826467E+03  d E =0.119990E-04  mag=     0.0000
quench:  g(F)=  0.000E+00 g(S)=  0.000E+00 dE (1.order)= 0.000E+00
 bond charge predicted
       N       E                     dE             d eps       ncg     rms          rms(c)
DAV:   1    -0.850312350436E+03    0.47934E-04   -0.30402E-02  4720   0.327E-01    0.337E-02
DAV:   2    -0.850312396732E+03   -0.46296E-04   -0.61279E-04  4660   0.440E-02    0.229E-02
DAV:   3    -0.850312396306E+03    0.42615E-06   -0.80795E-06  5480   0.580E-03
  88 F= -.85826465E+03 E0= -.85826465E+03  d E =0.170290E-04  mag=     0.0000
quench:  g(F)=  0.000E+00 g(S)=  0.000E+00 dE (1.order)= 0.000E+00
 bond charge predicted
       N       E                     dE             d eps       ncg     rms          rms(c)
DAV:   1    -0.850312313770E+03    0.82962E-04   -0.45743E-02  4720   0.400E-01    0.415E-02
DAV:   2    -0.850312383002E+03   -0.69232E-04   -0.92107E-04  4660   0.538E-02    0.281E-02
DAV:   3    -0.850312382495E+03    0.50689E-06   -0.12247E-05  5520   0.713E-03    0.214E-02
DAV:   4    -0.850312393688E+03   -0.11193E-04   -0.12203E-05  4440   0.798E-03    0.565E-03
DAV:   5    -0.850312395209E+03   -0.15214E-05   -0.43383E-06  4620   0.335E-03    0.333E-03
DAV:   6    -0.850312395122E+03    0.87733E-07   -0.59544E-07  3340   0.187E-03
  89 F= -.85826463E+03 E0= -.85826463E+03  d E =0.215649E-04  mag=     0.0000
quench:  g(F)=  0.000E+00 g(S)=  0.000E+00 dE (1.order)= 0.000E+00
 bond charge predicted
       N       E                     dE             d eps       ncg     rms          rms(c)
DAV:   1    -0.850312243607E+03    0.15160E-03   -0.68354E-02  4740   0.486E-01    0.472E-02
DAV:   2    -0.850312358891E+03   -0.11528E-03   -0.14373E-03  4660   0.665E-02    0.306E-02
DAV:   3    -0.850312355386E+03    0.35048E-05   -0.18109E-05  5480   0.861E-03    0.235E-02
DAV:   4    -0.850312365408E+03   -0.10022E-04   -0.20737E-05  4460   0.102E-02    0.651E-03
DAV:   5    -0.850312367243E+03   -0.18352E-05   -0.65409E-06  4940   0.409E-03    0.401E-03
DAV:   6    -0.850312367202E+03    0.41000E-07   -0.92253E-07  3240   0.251E-03
  90 F= -.85826457E+03 E0= -.85826457E+03  d E =0.537222E-04  mag=    -0.0000
quench:  g(F)=  0.000E+00 g(S)=  0.000E+00 dE (1.order)= 0.000E+00
 bond charge predicted
       N       E                     dE             d eps       ncg     rms          rms(c)
DAV:   1    -0.850312149064E+03    0.21818E-03   -0.10034E-01  4760   0.584E-01    0.571E-02
DAV:   2    -0.850312316582E+03   -0.16752E-03   -0.20909E-03  4660   0.797E-02    0.370E-02
DAV:   3    -0.850312311536E+03    0.50457E-05   -0.26044E-05  5520   0.103E-02    0.283E-02
DAV:   4    -0.850312326363E+03   -0.14827E-04   -0.31689E-05  4700   0.125E-02    0.749E-03
DAV:   5    -0.850312328783E+03   -0.24200E-05   -0.94943E-06  5160   0.497E-03    0.467E-03
DAV:   6    -0.850312328746E+03    0.37020E-07   -0.12907E-06  3420   0.296E-03
  91 F= -.85826451E+03 E0= -.85826451E+03  d E =0.675043E-04  mag=     0.0000
quench:  g(F)=  0.000E+00 g(S)=  0.000E+00 dE (1.order)= 0.000E+00
 bond charge predicted
       N       E                     dE             d eps       ncg     rms          rms(c)
DAV:   1    -0.850312004802E+03    0.32398E-03   -0.14809E-01  4760   0.705E-01    0.691E-02
DAV:   2    -0.850312251639E+03   -0.24684E-03   -0.30618E-03  4660   0.957E-02    0.448E-02
DAV:   3    -0.850312243214E+03    0.84252E-05   -0.38200E-05  5580   0.124E-02    0.342E-02
DAV:   4    -0.850312263675E+03   -0.20462E-04   -0.48687E-05  4880   0.152E-02    0.879E-03
DAV:   5    -0.850312267092E+03   -0.34166E-05   -0.13840E-05  5200   0.602E-03    0.549E-03
DAV:   6    -0.850312267081E+03    0.11103E-07   -0.18767E-06  3760   0.343E-03
  92 F= -.85826441E+03 E0= -.85826441E+03  d E =0.912585E-04  mag=     0.0000
quench:  g(F)=  0.000E+00 g(S)=  0.000E+00 dE (1.order)= 0.000E+00
 bond charge predicted
       N       E                     dE             d eps       ncg     rms          rms(c)
DAV:   1    -0.850311781398E+03    0.48569E-03   -0.21744E-01  4760   0.847E-01    0.835E-02
DAV:   2    -0.850312141625E+03   -0.36023E-03   -0.44539E-03  4730   0.114E-01    0.543E-02
DAV:   3    -0.850312128952E+03    0.12673E-04   -0.56168E-05  5560   0.150E-02    0.414E-02
DAV:   4    -0.850312156714E+03   -0.27762E-04   -0.74459E-05  5280   0.185E-02    0.103E-02
DAV:   5    -0.850312161479E+03   -0.47653E-05   -0.19958E-05  5160   0.727E-03    0.641E-03
DAV:   6    -0.850312161604E+03   -0.12462E-06   -0.27032E-06  4260   0.388E-03
  93 F= -.85826428E+03 E0= -.85826428E+03  d E =0.134645E-03  mag=     0.0000
quench:  g(F)=  0.000E+00 g(S)=  0.000E+00 dE (1.order)= 0.000E+00
 bond charge predicted
       N       E                     dE             d eps       ncg     rms          rms(c)
DAV:   1    -0.850311441151E+03    0.72033E-03   -0.32040E-01  4760   0.103E+00    0.101E-01
DAV:   2    -0.850311974345E+03   -0.53319E-03   -0.65430E-03  4780   0.138E-01    0.659E-02
DAV:   3    -0.850311954432E+03    0.19914E-04   -0.81866E-05  5600   0.181E-02    0.501E-02
DAV:   4    -0.850311992870E+03   -0.38438E-04   -0.11152E-04  5440   0.225E-02    0.123E-02
DAV:   5    -0.850311999552E+03   -0.66816E-05   -0.28963E-05  5200   0.879E-03    0.759E-03
DAV:   6    -0.850311999858E+03   -0.30601E-06   -0.38101E-06  4500   0.442E-03
  94 F= -.85826408E+03 E0= -.85826408E+03  d E =0.195824E-03  mag=    -0.0000
quench:  g(F)=  0.000E+00 g(S)=  0.000E+00 dE (1.order)= 0.000E+00
 bond charge predicted
       N       E                     dE             d eps       ncg     rms          rms(c)
DAV:   1    -0.850310933772E+03    0.10658E-02   -0.47758E-01  4780   0.126E+00    0.123E-01
DAV:   2    -0.850311740071E+03   -0.80630E-03   -0.97949E-03  4820   0.169E-01    0.802E-02
DAV:   3    -0.850311710869E+03    0.29202E-04   -0.12123E-04  5580   0.221E-02    0.610E-02
DAV:   4    -0.850311763040E+03   -0.52171E-04   -0.16353E-04  5560   0.272E-02    0.150E-02
DAV:   5    -0.850311772558E+03   -0.95178E-05   -0.41987E-05  5240   0.106E-02    0.922E-03
DAV:   6    -0.850311773152E+03   -0.59425E-06   -0.55538E-06  4480   0.529E-03
  95 F= -.85826381E+03 E0= -.85826381E+03  d E =0.269919E-03  mag=     0.0000
quench:  g(F)=  0.000E+00 g(S)=  0.000E+00 dE (1.order)= 0.000E+00
 bond charge predicted
       N       E                     dE             d eps       ncg     rms          rms(c)
DAV:   1    -0.850310203693E+03    0.15689E-02   -0.71259E-01  4780   0.154E+00    0.151E-01
DAV:   2    -0.850311426338E+03   -0.12226E-02   -0.14680E-02  4860   0.207E-01    0.978E-02
DAV:   3    -0.850311381024E+03    0.45314E-04   -0.17900E-04  5580   0.269E-02    0.743E-02
DAV:   4    -0.850311451027E+03   -0.70003E-04   -0.24340E-04  5560   0.333E-02    0.182E-02
DAV:   5    -0.850311464664E+03   -0.13637E-04   -0.62392E-05  5240   0.130E-02    0.111E-02
DAV:   6    -0.850311465408E+03   -0.74395E-06   -0.82864E-06  4520   0.647E-03
  96 F= -.85826346E+03 E0= -.85826346E+03  d E =0.359113E-03  mag=     0.0000
quench:  g(F)=  0.000E+00 g(S)=  0.000E+00 dE (1.order)= 0.000E+00
 bond charge predicted
       N       E                     dE             d eps       ncg     rms          rms(c)
DAV:   1    -0.850309195643E+03    0.22690E-02   -0.10736E+00  4780   0.189E+00    0.186E-01
DAV:   2    -0.850311072395E+03   -0.18768E-02   -0.22266E-02  4880   0.255E-01    0.119E-01
DAV:   3    -0.850311003550E+03    0.68845E-04   -0.26619E-04  5600   0.328E-02    0.909E-02
DAV:   4    -0.850311098390E+03   -0.94840E-04   -0.36088E-04  5560   0.406E-02    0.222E-02
DAV:   5    -0.850311118938E+03   -0.20548E-04   -0.92808E-05  5260   0.159E-02    0.136E-02
DAV:   6    -0.850311119869E+03   -0.93081E-06   -0.12370E-05  4600   0.796E-03    0.709E-03
DAV:   7    -0.850311120543E+03   -0.67431E-06   -0.26790E-06  4020   0.320E-03
  97 F= -.85826305E+03 E0= -.85826305E+03  d E =0.401362E-03  mag=    -0.0000
quench:  g(F)=  0.000E+00 g(S)=  0.000E+00 dE (1.order)= 0.000E+00
 bond charge predicted
       N       E                     dE             d eps       ncg     rms          rms(c)
DAV:   1    -0.850307887585E+03    0.32323E-02   -0.16083E+00  4780   0.232E+00    0.228E-01
DAV:   2    -0.850310736632E+03   -0.28490E-02   -0.33522E-02  4920   0.313E-01    0.147E-01
DAV:   3    -0.850310628625E+03    0.10801E-03   -0.40213E-04  5600   0.402E-02    0.112E-01
DAV:   4    -0.850310744565E+03   -0.11594E-03   -0.53030E-04  5560   0.492E-02    0.281E-02
DAV:   5    -0.850310779312E+03   -0.34747E-04   -0.13974E-04  5280   0.191E-02    0.170E-02
DAV:   6    -0.850310780646E+03   -0.13344E-05   -0.18730E-05  4700   0.984E-03    0.873E-03
DAV:   7    -0.850310781769E+03   -0.11222E-05   -0.46444E-06  5040   0.410E-03    0.501E-03
DAV:   8    -0.850310781489E+03    0.27963E-06   -0.11678E-06  3900   0.356E-03
  98 F= -.85826264E+03 E0= -.85826264E+03  d E =0.410386E-03  mag=     0.0000
quench:  g(F)=  0.000E+00 g(S)=  0.000E+00 dE (1.order)= 0.000E+00
 bond charge predicted
       N       E                     dE             d eps       ncg     rms          rms(c)
DAV:   1    -0.850306205520E+03    0.45762E-02   -0.23375E+00  4780   0.281E+00    0.274E-01
DAV:   2    -0.850310397268E+03   -0.41917E-02   -0.49008E-02  4940   0.381E-01    0.177E-01
DAV:   3    -0.850310242671E+03    0.15460E-03   -0.58684E-04  5620   0.487E-02    0.135E-01
DAV:   4    -0.850310387919E+03   -0.14525E-03   -0.76808E-04  5620   0.603E-02    0.339E-02
DAV:   5    -0.850310434581E+03   -0.46663E-04   -0.20543E-04  5260   0.234E-02    0.205E-02
DAV:   6    -0.850310435665E+03   -0.10840E-05   -0.28437E-05  4880   0.125E-02    0.105E-02
DAV:   7    -0.850310437139E+03   -0.14737E-05   -0.70574E-06  5200   0.501E-03    0.623E-03
DAV:   8    -0.850310436737E+03    0.40198E-06   -0.18839E-06  4280   0.455E-03
  99 F= -.85826221E+03 E0= -.85826221E+03  d E =0.428508E-03  mag=     0.0000
quench:  g(F)=  0.000E+00 g(S)=  0.000E+00 dE (1.order)= 0.000E+00
 bond charge predicted
       N       E                     dE             d eps       ncg     rms          rms(c)
DAV:   1    -0.850303742318E+03    0.66948E-02   -0.33744E+00  4760   0.336E+00    0.332E-01
DAV:   2    -0.850309861210E+03   -0.61189E-02   -0.71180E-02  4960   0.457E-01    0.215E-01
DAV:   3    -0.850309630808E+03    0.23040E-03   -0.88142E-04  5640   0.594E-02    0.165E-01
DAV:   4    -0.850309782927E+03   -0.15212E-03   -0.11169E-03  5560   0.726E-02    0.436E-02
DAV:   5    -0.850309858775E+03   -0.75848E-04   -0.31629E-04  5300   0.287E-02    0.263E-02
DAV:   6    -0.850309858443E+03    0.33198E-06   -0.43540E-05  5080   0.160E-02    0.134E-02
DAV:   7    -0.850309861408E+03   -0.29646E-05   -0.12833E-05  5140   0.676E-03    0.777E-03
DAV:   8    -0.850309860796E+03    0.61189E-06   -0.29582E-06  4840   0.564E-03
 100 F= -.85826153E+03 E0= -.85826153E+03  d E =0.682479E-03  mag=    -0.0000
quench:  g(F)=  0.000E+00 g(S)=  0.000E+00 dE (1.order)= 0.000E+00
 bond charge predicted
       N       E                     dE             d eps       ncg     rms          rms(c)
DAV:   1    -0.850299726691E+03    0.10135E-01   -0.44989E+00  4740   0.391E+00    0.385E-01
DAV:   2    -0.850307907778E+03   -0.81811E-02   -0.95584E-02  5000   0.534E-01    0.257E-01
DAV:   3    -0.850307551426E+03    0.35635E-03   -0.13432E-03  5740   0.733E-02    0.197E-01
DAV:   4    -0.850307652639E+03   -0.10121E-03   -0.15169E-03  5500   0.867E-02    0.559E-02
DAV:   5    -0.850307756649E+03   -0.10401E-03   -0.46336E-04  5300   0.351E-02    0.316E-02
DAV:   6    -0.850307756818E+03   -0.16885E-06   -0.65974E-05  5220   0.188E-02    0.155E-02
DAV:   7    -0.850307759790E+03   -0.29717E-05   -0.13752E-05  5280   0.693E-03    0.979E-03
DAV:   8    -0.850307758901E+03    0.88829E-06   -0.44444E-06  4940   0.659E-03
 101 F= -.85825936E+03 E0= -.85825936E+03  d E =0.216845E-02  mag=     0.0000
quench:  g(F)=  0.000E+00 g(S)=  0.000E+00 dE (1.order)= 0.000E+00
 bond charge predicted
       N       E                     dE             d eps       ncg     rms          rms(c)
DAV:   1    -0.850309493639E+03   -0.17338E-02   -0.10267E-01  4680   0.633E-01    0.711E-02
DAV:   2    -0.850309675399E+03   -0.18176E-03   -0.26078E-03  5740   0.933E-02    0.635E-02
DAV:   3    -0.850309633587E+03    0.41812E-04   -0.11394E-04  5920   0.204E-02    0.495E-02
DAV:   4    -0.850309594255E+03    0.39332E-04   -0.79084E-05  4920   0.188E-02    0.230E-02
DAV:   5    -0.850309592568E+03    0.16868E-05   -0.34120E-05  5120   0.109E-02    0.945E-03
DAV:   6    -0.850309592590E+03   -0.21828E-07   -0.48542E-06  4660   0.429E-03
 102 F= -.85826118E+03 E0= -.85826118E+03  d E =-.181653E-02  mag=     0.0000
quench:  g(F)=  0.000E+00 g(S)=  0.000E+00 dE (1.order)= 0.000E+00
 bond charge predicted
       N       E                     dE             d eps       ncg     rms          rms(c)
DAV:   1    -0.850308067915E+03    0.15247E-02   -0.10476E-01  4660   0.639E-01    0.692E-02
DAV:   2    -0.850308263150E+03   -0.19523E-03   -0.26175E-03  5680   0.934E-02    0.597E-02
DAV:   3    -0.850308230229E+03    0.32921E-04   -0.99369E-05  5860   0.191E-02    0.468E-02
DAV:   4    -0.850308200930E+03    0.29299E-04   -0.71490E-05  4900   0.180E-02    0.213E-02
DAV:   5    -0.850308201572E+03   -0.64227E-06   -0.29745E-05  5180   0.101E-02    0.933E-03
DAV:   6    -0.850308201652E+03   -0.79366E-07   -0.46680E-06  4780   0.430E-03
 103 F= -.85825977E+03 E0= -.85825977E+03  d E =0.140595E-02  mag=     0.0000
quench:  g(F)=  0.000E+00 g(S)=  0.000E+00 dE (1.order)= 0.000E+00
 bond charge predicted
       N       E                     dE             d eps       ncg     rms          rms(c)
DAV:   1    -0.850308818145E+03   -0.61657E-03   -0.47984E-03  4700   0.138E-01    0.157E-02
DAV:   2    -0.850308825958E+03   -0.78131E-05   -0.12343E-04  5680   0.205E-02    0.144E-02
DAV:   3    -0.850308823575E+03    0.23831E-05   -0.59887E-06  5660   0.469E-03    0.112E-02
DAV:   4    -0.850308821186E+03    0.23888E-05   -0.40290E-06  4440   0.432E-03    0.536E-03
DAV:   5    -0.850308820970E+03    0.21628E-06   -0.17876E-06  3440   0.255E-03
 104 F= -.85826040E+03 E0= -.85826040E+03  d E =-.624780E-03  mag=     0.0000
quench:  g(F)=  0.000E+00 g(S)=  0.000E+00 dE (1.order)= 0.000E+00
[...]
DAV:   3    -0.850298164858E+03    0.19297E-05   -0.60480E-06  5920   0.475E-03    0.111E-02
DAV:   4    -0.850298163424E+03    0.14344E-05   -0.33710E-06  4440   0.397E-03    0.553E-03
DAV:   5    -0.850298163408E+03    0.15847E-07   -0.13644E-06  3340   0.239E-03
 225 F= -.85824782E+03 E0= -.85824782E+03  d E =-.204456E-04  mag=    -0.0000
quench:  g(F)=  0.000E+00 g(S)=  0.000E+00 dE (1.order)= 0.000E+00
 bond charge predicted
       N       E                     dE             d eps       ncg     rms          rms(c)
DAV:   1    -0.850298165006E+03   -0.15826E-05   -0.63123E-06  4360   0.460E-03    0.170E-03
DAV:   2    -0.850298165004E+03    0.27576E-08   -0.21229E-07  2640   0.889E-04
 226 F= -.85824783E+03 E0= -.85824783E+03  d E =-.135428E-05  mag=     0.0000
quench:  g(F)=  0.000E+00 g(S)=  0.000E+00 dE (1.order)= 0.000E+00
 bond charge predicted
       N       E                     dE             d eps       ncg     rms          rms(c)
DAV:   1    -0.850298167624E+03   -0.26178E-05   -0.22751E-05  4660   0.845E-03    0.181E-03
DAV:   2    -0.850298167657E+03   -0.32538E-07   -0.51386E-07  2660   0.125E-03
 227 F= -.85824783E+03 E0= -.85824783E+03  d E =-.222593E-05  mag=     0.0000
quench:  g(F)=  0.000E+00 g(S)=  0.000E+00 dE (1.order)= 0.000E+00
 bond charge predicted
       N       E                     dE             d eps       ncg     rms          rms(c)
DAV:   1    -0.850298170635E+03   -0.30106E-05   -0.49702E-05  4900   0.123E-02    0.240E-03
DAV:   2    -0.850298170698E+03   -0.63032E-07   -0.10661E-06  2960   0.177E-03
 228 F= -.85824783E+03 E0= -.85824783E+03  d E =-.240354E-05  mag=     0.0000
quench:  g(F)=  0.000E+00 g(S)=  0.000E+00 dE (1.order)= 0.000E+00
 bond charge predicted
       N       E                     dE             d eps       ncg     rms          rms(c)
DAV:   1    -0.850298173409E+03   -0.27743E-05   -0.82532E-05  4680   0.156E-02    0.304E-03
DAV:   2    -0.850298173499E+03   -0.90236E-07   -0.17154E-06  3540   0.221E-03
 229 F= -.85824783E+03 E0= -.85824783E+03  d E =-.187837E-05  mag=     0.0000
quench:  g(F)=  0.000E+00 g(S)=  0.000E+00 dE (1.order)= 0.000E+00
 bond charge predicted
       N       E                     dE             d eps       ncg     rms          rms(c)
DAV:   1    -0.850298175130E+03   -0.17206E-05   -0.12031E-04  4700   0.184E-02    0.363E-03
DAV:   2    -0.850298175258E+03   -0.12877E-06   -0.24573E-06  3600   0.257E-03
 230 F= -.85824783E+03 E0= -.85824783E+03  d E =-.585068E-06  mag=    -0.0000
quench:  g(F)=  0.000E+00 g(S)=  0.000E+00 dE (1.order)= 0.000E+00
 bond charge predicted
       N       E                     dE             d eps       ncg     rms          rms(c)
DAV:   1    -0.850298175307E+03   -0.17767E-06   -0.16236E-04  4720   0.205E-02    0.416E-03
DAV:   2    -0.850298175485E+03   -0.17792E-06   -0.32057E-06  3880   0.280E-03
 231 F= -.85824783E+03 E0= -.85824783E+03  d E =0.109596E-05  mag=    -0.0000
quench:  g(F)=  0.000E+00 g(S)=  0.000E+00 dE (1.order)= 0.000E+00
 bond charge predicted
       N       E                     dE             d eps       ncg     rms          rms(c)
DAV:   1    -0.850298173769E+03    0.15379E-05   -0.25686E-04  4640   0.246E-02    0.489E-03
DAV:   2    -0.850298174084E+03   -0.31499E-06   -0.49589E-06  4180   0.328E-03
 232 F= -.85824783E+03 E0= -.85824783E+03  d E =0.301853E-05  mag=    -0.0000
quench:  g(F)=  0.000E+00 g(S)=  0.000E+00 dE (1.order)= 0.000E+00
 bond charge predicted
       N       E                     dE             d eps       ncg     rms          rms(c)
DAV:   1    -0.850298171005E+03    0.27638E-05   -0.39139E-04  4660   0.285E-02    0.580E-03
DAV:   2    -0.850298171490E+03   -0.48478E-06   -0.72759E-06  4260   0.364E-03
 233 F= -.85824782E+03 E0= -.85824782E+03  d E =0.445268E-05  mag=     0.0000
quench:  g(F)=  0.000E+00 g(S)=  0.000E+00 dE (1.order)= 0.000E+00
 bond charge predicted
       N       E                     dE             d eps       ncg     rms          rms(c)
DAV:   1    -0.850298167817E+03    0.31881E-05   -0.59856E-04  4640   0.335E-02    0.690E-03
DAV:   2    -0.850298168564E+03   -0.74632E-06   -0.10916E-05  4140   0.413E-03    0.514E-03
DAV:   3    -0.850298168542E+03    0.21304E-07   -0.25945E-07  2760   0.102E-03
 234 F= -.85824782E+03 E0= -.85824782E+03  d E =0.508044E-05  mag=     0.0000
quench:  g(F)=  0.000E+00 g(S)=  0.000E+00 dE (1.order)= 0.000E+00
 bond charge predicted
       N       E                     dE             d eps       ncg     rms          rms(c)
DAV:   1    -0.850298165585E+03    0.29789E-05   -0.89726E-04  4720   0.400E-02    0.601E-03
DAV:   2    -0.850298166916E+03   -0.13312E-05   -0.15574E-05  4440   0.468E-03    0.380E-03
DAV:   3    -0.850298166903E+03    0.12617E-07   -0.19358E-07  2640   0.796E-04
 235 F= -.85824781E+03 E0= -.85824781E+03  d E =0.428059E-05  mag=     0.0000
quench:  g(F)=  0.000E+00 g(S)=  0.000E+00 dE (1.order)= 0.000E+00
 bond charge predicted
       N       E                     dE             d eps       ncg     rms          rms(c)
DAV:   1    -0.850298163780E+03    0.31364E-05   -0.14106E-03  4720   0.501E-02    0.734E-03
DAV:   2    -0.850298165961E+03   -0.21818E-05   -0.25486E-05  4780   0.597E-03    0.462E-03
DAV:   3    -0.850298165892E+03    0.69682E-07   -0.28645E-07  3040   0.919E-04
 236 F= -.85824781E+03 E0= -.85824781E+03  d E =0.418086E-05  mag=     0.0000
quench:  g(F)=  0.000E+00 g(S)=  0.000E+00 dE (1.order)= 0.000E+00
 bond charge predicted
       N       E                     dE             d eps       ncg     rms          rms(c)
DAV:   1    -0.850298159946E+03    0.60156E-05   -0.22202E-03  4720   0.632E-02    0.923E-03
DAV:   2    -0.850298163362E+03   -0.34163E-05   -0.40134E-05  5020   0.755E-03    0.580E-03
DAV:   3    -0.850298163239E+03    0.12283E-06   -0.45424E-07  3220   0.116E-03
 237 F= -.85824780E+03 E0= -.85824780E+03  d E =0.626116E-05  mag=    -0.0000
quench:  g(F)=  0.000E+00 g(S)=  0.000E+00 dE (1.order)= 0.000E+00
 bond charge predicted
       N       E                     dE             d eps       ncg     rms          rms(c)
DAV:   1    -0.850298152020E+03    0.11342E-04   -0.34524E-03  4720   0.783E-02    0.115E-02
DAV:   2    -0.850298157314E+03   -0.52938E-05   -0.62304E-05  5060   0.932E-03    0.718E-03
DAV:   3    -0.850298157126E+03    0.18768E-06   -0.69407E-07  3380   0.142E-03
 238 F= -.85824779E+03 E0= -.85824779E+03  d E =0.102848E-04  mag=     0.0000
quench:  g(F)=  0.000E+00 g(S)=  0.000E+00 dE (1.order)= 0.000E+00
 bond charge predicted
       N       E                     dE             d eps       ncg     rms          rms(c)
DAV:   1    -0.850298138628E+03    0.18686E-04   -0.52292E-03  4720   0.948E-02    0.141E-02
DAV:   2    -0.850298146592E+03   -0.79639E-05   -0.93533E-05  4900   0.111E-02    0.867E-03
DAV:   3    -0.850298146337E+03    0.25520E-06   -0.10021E-06  3640   0.165E-03
 239 F= -.85824778E+03 E0= -.85824778E+03  d E =0.158076E-04  mag=    -0.0000
quench:  g(F)=  0.000E+00 g(S)=  0.000E+00 dE (1.order)= 0.000E+00
 bond charge predicted
       N       E                     dE             d eps       ncg     rms          rms(c)
DAV:   1    -0.850298125092E+03    0.21500E-04   -0.77476E-03  4720   0.114E-01    0.171E-02
DAV:   2    -0.850298136846E+03   -0.11754E-04   -0.13773E-04  4740   0.133E-02    0.104E-02
DAV:   3    -0.850298136471E+03    0.37509E-06   -0.14627E-06  3660   0.195E-03
 240 F= -.85824776E+03 E0= -.85824776E+03  d E =0.166924E-04  mag=     0.0000
quench:  g(F)=  0.000E+00 g(S)=  0.000E+00 dE (1.order)= 0.000E+00
 bond charge predicted
       N       E                     dE             d eps       ncg     rms          rms(c)
DAV:   1    -0.850298109446E+03    0.27400E-04   -0.11674E-02  4720   0.142E-01    0.210E-02
DAV:   2    -0.850298127314E+03   -0.17868E-04   -0.20902E-04  4820   0.167E-02    0.129E-02
DAV:   3    -0.850298126678E+03    0.63649E-06   -0.22740E-06  4020   0.247E-03
 241 F= -.85824774E+03 E0= -.85824774E+03  d E =0.183366E-04  mag=     0.0000
quench:  g(F)=  0.000E+00 g(S)=  0.000E+00 dE (1.order)= 0.000E+00
 bond charge predicted
       N       E                     dE             d eps       ncg     rms          rms(c)
DAV:   1    -0.850298085380E+03    0.41934E-04   -0.17630E-02  4720   0.173E-01    0.258E-02
DAV:   2    -0.850298112323E+03   -0.26943E-04   -0.31441E-04  4680   0.202E-02    0.158E-02
DAV:   3    -0.850298111351E+03    0.97268E-06   -0.33979E-06  4300   0.298E-03
 242 F= -.85824772E+03 E0= -.85824772E+03  d E =0.253008E-04  mag=     0.0000
quench:  g(F)=  0.000E+00 g(S)=  0.000E+00 dE (1.order)= 0.000E+00
 bond charge predicted
       N       E                     dE             d eps       ncg     rms          rms(c)
DAV:   1    -0.850298061062E+03    0.51262E-04   -0.26054E-02  4720   0.205E-01    0.312E-02
DAV:   2    -0.850298100686E+03   -0.39624E-04   -0.46174E-04  4660   0.238E-02    0.189E-02
DAV:   3    -0.850298099308E+03    0.13781E-05   -0.48830E-06  4320   0.347E-03    0.143E-02
DAV:   4    -0.850298102121E+03   -0.28136E-05   -0.90524E-06  4360   0.489E-03    0.293E-03
DAV:   5    -0.850298102352E+03   -0.23124E-06   -0.20284E-06  3780   0.173E-03
 243 F= -.85824770E+03 E0= -.85824770E+03  d E =0.197590E-04  mag=    -0.0000
quench:  g(F)=  0.000E+00 g(S)=  0.000E+00 dE (1.order)= 0.000E+00
 bond charge predicted
       N       E                     dE             d eps       ncg     rms          rms(c)
DAV:   1    -0.850298026078E+03    0.76043E-04   -0.39731E-02  4720   0.252E-01    0.373E-02
DAV:   2    -0.850298092381E+03   -0.66303E-04   -0.75791E-04  4720   0.301E-02    0.221E-02
DAV:   3    -0.850298089535E+03    0.28464E-05   -0.80124E-06  4620   0.445E-03    0.169E-02
DAV:   4    -0.850298092072E+03   -0.25373E-05   -0.15278E-05  4380   0.641E-03    0.369E-03
DAV:   5    -0.850298092457E+03   -0.38443E-06   -0.34745E-06  3900   0.228E-03
 244 F= -.85824768E+03 E0= -.85824768E+03  d E =0.209572E-04  mag=    -0.0000
quench:  g(F)=  0.000E+00 g(S)=  0.000E+00 dE (1.order)= 0.000E+00
 bond charge predicted
       N       E                     dE             d eps       ncg     rms          rms(c)
DAV:   1    -0.850297983628E+03    0.10844E-03   -0.58919E-02  4760   0.305E-01    0.454E-02
DAV:   2    -0.850298081654E+03   -0.98025E-04   -0.11215E-03  4680   0.364E-02    0.268E-02
DAV:   3    -0.850298077510E+03    0.41435E-05   -0.11923E-05  4940   0.537E-03    0.205E-02
DAV:   4    -0.850298081308E+03   -0.37973E-05   -0.21817E-05  4520   0.761E-03    0.433E-03
DAV:   5    -0.850298081929E+03   -0.62129E-06   -0.51359E-06  4280   0.270E-03
 245 F= -.85824765E+03 E0= -.85824765E+03  d E =0.230388E-04  mag=    -0.0000
quench:  g(F)=  0.000E+00 g(S)=  0.000E+00 dE (1.order)= 0.000E+00
 bond charge predicted
       N       E                     dE             d eps       ncg     rms          rms(c)
DAV:   1    -0.850297925167E+03    0.15614E-03   -0.86053E-02  4720   0.370E-01    0.550E-02
DAV:   2    -0.850298068677E+03   -0.14351E-03   -0.16447E-03  4700   0.446E-02    0.325E-02
DAV:   3    -0.850298062706E+03    0.59703E-05   -0.17614E-05  5340   0.654E-03    0.248E-02
DAV:   4    -0.850298068369E+03   -0.56625E-05   -0.30922E-05  4580   0.913E-03    0.520E-03
DAV:   5    -0.850298069372E+03   -0.10026E-05   -0.75042E-06  4360   0.326E-03    0.452E-03
DAV:   6    -0.850298069224E+03    0.14713E-06   -0.10675E-06  3520   0.214E-03
 246 F= -.85824763E+03 E0= -.85824763E+03  d E =0.274867E-04  mag=     0.0000
quench:  g(F)=  0.000E+00 g(S)=  0.000E+00 dE (1.order)= 0.000E+00
 bond charge predicted
       N       E                     dE             d eps       ncg     rms          rms(c)
DAV:   1    -0.850297853579E+03    0.21579E-03   -0.12397E-01  4740   0.443E-01    0.650E-02
DAV:   2    -0.850298059561E+03   -0.20598E-03   -0.23558E-03  4780   0.531E-02    0.386E-02
DAV:   3    -0.850298050413E+03    0.91482E-05   -0.25285E-05  5480   0.783E-03    0.295E-02
DAV:   4    -0.850298057056E+03   -0.66432E-05   -0.46669E-05  4620   0.110E-02    0.619E-03
DAV:   5    -0.850298058462E+03   -0.14058E-05   -0.11146E-05  4680   0.390E-03    0.544E-03
DAV:   6    -0.850298058263E+03    0.19940E-06   -0.16436E-06  3740   0.254E-03
 247 F= -.85824760E+03 E0= -.85824760E+03  d E =0.257290E-04  mag=    -0.0000
quench:  g(F)=  0.000E+00 g(S)=  0.000E+00 dE (1.order)= 0.000E+00
 bond charge predicted
       N       E                     dE             d eps       ncg     rms          rms(c)
DAV:   1    -0.850297753039E+03    0.30542E-03   -0.17898E-01  4740   0.536E-01    0.778E-02
DAV:   2    -0.850298050948E+03   -0.29791E-03   -0.34005E-03  4760   0.645E-02    0.462E-02
DAV:   3    -0.850298037398E+03    0.13550E-04   -0.36225E-05  5580   0.930E-03    0.354E-02
DAV:   4    -0.850298047218E+03   -0.98195E-05   -0.70031E-05  4700   0.135E-02    0.739E-03
DAV:   5    -0.850298049050E+03   -0.18319E-05   -0.16179E-05  5120   0.476E-03    0.665E-03
DAV:   6    -0.850298048741E+03    0.30829E-06   -0.27432E-06  3880   0.325E-03
 248 F= -.85824757E+03 E0= -.85824757E+03  d E =0.285398E-04  mag=     0.0000
quench:  g(F)=  0.000E+00 g(S)=  0.000E+00 dE (1.order)= 0.000E+00
 bond charge predicted
       N       E                     dE             d eps       ncg     rms          rms(c)
DAV:   1    -0.850297622259E+03    0.42679E-03   -0.25313E-01  4740   0.638E-01    0.922E-02
DAV:   2    -0.850298043935E+03   -0.42168E-03   -0.47996E-03  4780   0.768E-02    0.548E-02
DAV:   3    -0.850298025027E+03    0.18908E-04   -0.51398E-05  5680   0.111E-02    0.420E-02
DAV:   4    -0.850298038016E+03   -0.12989E-04   -0.98110E-05  4840   0.159E-02    0.879E-03
DAV:   5    -0.850298040619E+03   -0.26029E-05   -0.22560E-05  5340   0.566E-03    0.783E-03
DAV:   6    -0.850298040207E+03    0.41176E-06   -0.37734E-06  4000   0.384E-03
 249 F= -.85824753E+03 E0= -.85824753E+03  d E =0.368631E-04  mag=    -0.0000
quench:  g(F)=  0.000E+00 g(S)=  0.000E+00 dE (1.order)= 0.000E+00
 bond charge predicted
       N       E                     dE             d eps       ncg     rms          rms(c)
DAV:   1    -0.850297448685E+03    0.59193E-03   -0.36731E-01  4740   0.771E-01    0.111E-01
DAV:   2    -0.850298063110E+03   -0.61442E-03   -0.69846E-03  4820   0.933E-02    0.659E-02
DAV:   3    -0.850298034891E+03    0.28219E-04   -0.74872E-05  5580   0.132E-02    0.506E-02
DAV:   4    -0.850298052811E+03   -0.17920E-04   -0.14345E-04  4900   0.191E-02    0.105E-02
DAV:   5    -0.850298056703E+03   -0.38924E-05   -0.32911E-05  5420   0.684E-03    0.933E-03
DAV:   6    -0.850298056181E+03    0.52257E-06   -0.50756E-06  4300   0.428E-03
 250 F= -.85824752E+03 E0= -.85824752E+03  d E =0.160261E-04  mag=     0.0000
quench:  g(F)=  0.000E+00 g(S)=  0.000E+00 dE (1.order)= 0.000E+00
 bond charge predicted
       N       E                     dE             d eps       ncg     rms          rms(c)
DAV:   1    -0.850297219954E+03    0.83675E-03   -0.50407E-01  4740   0.923E-01    0.129E-01
DAV:   2    -0.850298069959E+03   -0.85001E-03   -0.96041E-03  4840   0.113E-01    0.771E-02
DAV:   3    -0.850298031178E+03    0.38781E-04   -0.10577E-04  5680   0.164E-02    0.592E-02
DAV:   4    -0.850298049115E+03   -0.17937E-04   -0.19530E-04  5040   0.228E-02    0.128E-02
DAV:   5    -0.850298054522E+03   -0.54064E-05   -0.45750E-05  5360   0.826E-03    0.111E-02
DAV:   6    -0.850298053852E+03    0.66956E-06   -0.76914E-06  4480   0.523E-03
 251 F= -.85824748E+03 E0= -.85824748E+03  d E =0.373094E-04  mag=    -0.0000
quench:  g(F)=  0.000E+00 g(S)=  0.000E+00 dE (1.order)= 0.000E+00
 bond charge predicted
       N       E                     dE             d eps       ncg     rms          rms(c)
DAV:   1    -0.850296829602E+03    0.12249E-02   -0.69584E-01  4720   0.110E+00    0.153E-01
DAV:   2    -0.850298017048E+03   -0.11874E-02   -0.13475E-02  4920   0.137E-01    0.928E-02
DAV:   3    -0.850297957902E+03    0.59146E-04   -0.15465E-04  5720   0.195E-02    0.713E-02
DAV:   4    -0.850297980945E+03   -0.23043E-04   -0.29110E-04  5040   0.289E-02    0.165E-02
DAV:   5    -0.850297989409E+03   -0.84648E-05   -0.67751E-05  5360   0.107E-02    0.138E-02
DAV:   6    -0.850297989043E+03    0.36600E-06   -0.12314E-05  4620   0.622E-03    0.617E-03
DAV:   7    -0.850297989116E+03   -0.72338E-07   -0.15331E-06  3960   0.220E-03
 252 F= -.85824738E+03 E0= -.85824738E+03  d E =0.996061E-04  mag=    -0.0000
quench:  g(F)=  0.000E+00 g(S)=  0.000E+00 dE (1.order)= 0.000E+00
 bond charge predicted
       N       E                     dE             d eps       ncg     rms          rms(c)
DAV:   1    -0.850298099958E+03   -0.11091E-03   -0.48616E-03  4800   0.139E-01    0.160E-02
DAV:   2    -0.850298109116E+03   -0.91587E-05   -0.12970E-04  5620   0.209E-02    0.142E-02
DAV:   3    -0.850298106925E+03    0.21913E-05   -0.52496E-06  5460   0.436E-03    0.111E-02
DAV:   4    -0.850298105024E+03    0.19010E-05   -0.50827E-06  4680   0.469E-03    0.497E-03
DAV:   5    -0.850298104984E+03    0.40432E-07   -0.13460E-06  3360   0.221E-03
 253 F= -.85824750E+03 E0= -.85824750E+03  d E =-.117328E-03  mag=     0.0000
quench:  g(F)=  0.000E+00 g(S)=  0.000E+00 dE (1.order)= 0.000E+00
 bond charge predicted
       N       E                     dE             d eps       ncg     rms          rms(c)
DAV:   1    -0.850298035927E+03    0.69097E-04   -0.73714E-03  4720   0.169E-01    0.192E-02
DAV:   2    -0.850298050136E+03   -0.14209E-04   -0.18944E-04  5660   0.251E-02    0.163E-02
DAV:   3    -0.850298047456E+03    0.26805E-05   -0.71663E-06  5940   0.512E-03    0.127E-02
DAV:   4    -0.850298045308E+03    0.21477E-05   -0.60730E-06  4760   0.524E-03    0.568E-03
DAV:   5    -0.850298045323E+03   -0.15047E-07   -0.17955E-06  3560   0.255E-03
 254 F= -.85824744E+03 E0= -.85824744E+03  d E =0.594388E-04  mag=     0.0000
quench:  g(F)=  0.000E+00 g(S)=  0.000E+00 dE (1.order)= 0.000E+00
 bond charge predicted
       N       E                     dE             d eps       ncg     rms          rms(c)
DAV:   1    -0.850298072256E+03   -0.26948E-04   -0.20863E-04  4740   0.279E-02    0.365E-03
DAV:   2    -0.850298072566E+03   -0.30969E-06   -0.55307E-06  5140   0.422E-03
 255 F= -.85824747E+03 E0= -.85824747E+03  d E =-.268304E-04  mag=     0.0000
quench:  g(F)=  0.000E+00 g(S)=  0.000E+00 dE (1.order)= 0.000E+00
 bond charge predicted
       N       E                     dE             d eps       ncg     rms          rms(c)
DAV:   1    -0.850298105005E+03   -0.32749E-04   -0.68680E-04  4740   0.503E-02    0.778E-03
DAV:   2    -0.850298105760E+03   -0.75524E-06   -0.17060E-05  5700   0.739E-03    0.678E-03
DAV:   3    -0.850298105154E+03    0.60602E-06   -0.98502E-07  3120   0.206E-03
 256 F= -.85824750E+03 E0= -.85824750E+03  d E =-.317618E-04  mag=     0.0000
quench:  g(F)=  0.000E+00 g(S)=  0.000E+00 dE (1.order)= 0.000E+00
 bond charge predicted
       N       E                     dE             d eps       ncg     rms          rms(c)
DAV:   1    -0.850298115532E+03   -0.97720E-05   -0.10997E-03  4720   0.626E-02    0.847E-03
DAV:   2    -0.850298117280E+03   -0.17482E-05   -0.25383E-05  5800   0.881E-03    0.729E-03
DAV:   3    -0.850298116806E+03    0.47473E-06   -0.81319E-07  3140   0.191E-03
 257 F= -.85824751E+03 E0= -.85824751E+03  d E =-.106470E-04  mag=    -0.0000
quench:  g(F)=  0.000E+00 g(S)=  0.000E+00 dE (1.order)= 0.000E+00
 bond charge predicted
       N       E                     dE             d eps       ncg     rms          rms(c)
DAV:   1    -0.850298101961E+03    0.15320E-04   -0.11730E-03  4700   0.614E-02    0.818E-03
DAV:   2    -0.850298103839E+03   -0.18783E-05   -0.25307E-05  5800   0.840E-03    0.670E-03
DAV:   3    -0.850298103510E+03    0.32932E-06   -0.66213E-07  3140   0.170E-03
 258 F= -.85824750E+03 E0= -.85824750E+03  d E =0.140698E-04  mag=     0.0000
quench:  g(F)=  0.000E+00 g(S)=  0.000E+00 dE (1.order)= 0.000E+00
 reached required accuracy - stopping structural energy minimisation
