unknown system                          
           1
    17.271038    0.000000    0.000000
    -8.635519   14.957158    0.000000
     0.000000    0.000000   15.000000
   C    F    H    O 
    88     8     2     1
Direct configuration=     1
   0.00072621  0.00010525  0.50281376
   0.99988840  0.14234227  0.50192857
   0.99883194  0.28458716  0.49877601
   0.99839263  0.42752583  0.49401625
   0.99854214  0.57068617  0.49415470
   0.00004810  0.71396088  0.49551269
   0.00115595  0.85745871  0.49937990
   0.14333561  0.00014402  0.51428358
   0.14302782  0.14303237  0.51938783
   0.14096654  0.28438619  0.52043547
   0.13988295  0.42696522  0.51088288
   0.14081630  0.57012676  0.50377479
   0.14187858  0.71336225  0.50636897
   0.14282382  0.85667161  0.50888446
   0.28558150  0.99934238  0.51376939
   0.28602721  0.14272868  0.52793403
   0.28360894  0.28524784  0.55341339
   0.27715682  0.42615841  0.55282701
   0.28230555  0.56916552  0.52073394
   0.28411469  0.71342348  0.51040903
   0.28520693  0.85640453  0.50869370
   0.42830558  0.99862969  0.50439878
   0.42819123  0.14129836  0.51111071
   0.42781967  0.27691250  0.54671130
   0.42172318  0.71354564  0.48594339
   0.42793936  0.85539686  0.50287248
   0.57085301  0.99844659  0.49221492
   0.57092407  0.14134816  0.49695989
   0.57123124  0.28464552  0.49581807
   0.57165144  0.85542106  0.49130443
   0.71424170  0.99927879  0.48468488
   0.71382142  0.14192191  0.48835952
   0.71346421  0.28490115  0.48473119
   0.71310905  0.42718177  0.46308247
   0.72956035  0.57890968  0.42064060
   0.72716407  0.72304738  0.43571586
   0.71623546  0.85777560  0.47921367
   0.85825574  0.00026402  0.48641368
   0.85678774  0.14213065  0.48947079
   0.85623063  0.28474147  0.48760849
   0.85608348  0.42775721  0.48186575
   0.85708120  0.57158053  0.47484640
   0.86056121  0.71607049  0.47242487
   0.85962360  0.85788044  0.48360616
   0.04813231  0.09539615  0.50785295
   0.04654987  0.23709989  0.50622020
   0.04540020  0.37959877  0.50030971
   0.04590915  0.52275357  0.49698876
   0.04677207  0.66590729  0.49931385
   0.04782241  0.80913967  0.50211549
   0.04825845  0.95241996  0.50658758
   0.19075615  0.09514074  0.52151801
   0.18964739  0.23785571  0.52941665
   0.18596402  0.37907741  0.52522005
   0.18731470  0.52182042  0.51006385
   0.18879831  0.66556761  0.50855621
   0.19004226  0.80881189  0.50886931
   0.19052767  0.95191769  0.51331215
   0.33326776  0.09472463  0.51838548
   0.33391377  0.23721028  0.54624756
   0.31750890  0.37521127  0.57709477
   0.32135957  0.52078056  0.55223383
   0.33096029  0.66518645  0.50758921
   0.33266594  0.80850084  0.50716978
   0.33297155  0.95154548  0.50902424
   0.47583075  0.09374901  0.50271703
   0.47617175  0.23629719  0.51605883
   0.47501784  0.80707194  0.49450208
   0.47589659  0.95089352  0.50044019
   0.61844756  0.09379068  0.49190402
   0.61860107  0.23681820  0.49285633
   0.61955322  0.37573955  0.47130985
   0.62483828  0.81497468  0.49799168
   0.61887782  0.95103042  0.48685645
   0.76166452  0.09459289  0.48706744
   0.76118355  0.23712368  0.48663033
   0.76086768  0.38010449  0.47688586
   0.76329034  0.52473823  0.45191526
   0.77026583  0.67161497  0.44112522
   0.76528426  0.81049689  0.46807402
   0.76302618  0.95291230  0.48051099
   0.90497633  0.09485034  0.49202437
   0.90388675  0.23714384  0.49149903
   0.90337060  0.38010670  0.48765322
   0.90360402  0.52331085  0.48471204
   0.90569690  0.66678055  0.48138342
   0.90685129  0.81028111  0.48595194
   0.90603509  0.95265344  0.49216085
   0.47850233  0.35955438  0.58117077
   0.39193006  0.41946273  0.62801098
   0.40607444  0.56746252  0.58402999
   0.64573545  0.68695328  0.39757987
   0.65865633  0.54493660  0.36572748
   0.57131559  0.41534901  0.45429281
   0.58869744  0.73190825  0.53395132
   0.45698104  0.66689238  0.44772437
   0.53058960  0.59318312  0.50974120
   0.51594611  0.50553378  0.55030128
   0.54391499  0.54547952  0.50018644
Direct configuration=     2
   0.00072854  0.00010764  0.50280078
   0.99988684  0.14234525  0.50191822
   0.99883396  0.28459146  0.49877259
   0.99839196  0.42752656  0.49402182
   0.99854124  0.57068908  0.49415331
   0.00004312  0.71395607  0.49550829
   0.00115842  0.85746392  0.49936908
   0.14333407  0.00014457  0.51427909
   0.14302568  0.14303282  0.51938341
   0.14097199  0.28438979  0.52043667
   0.13988723  0.42696936  0.51088801
   0.14082308  0.57013056  0.50378053
   0.14187849  0.71336589  0.50637054
   0.14283037  0.85667883  0.50888937
   0.28558474  0.99934437  0.51377239
   0.28601957  0.14272187  0.52793158
   0.28360963  0.28524600  0.55340845
   0.27715562  0.42615245  0.55282712
   0.28230613  0.56916106  0.52074603
   0.28411933  0.71342820  0.51041455
   0.28520630  0.85640359  0.50869600
   0.42830512  0.99863190  0.50439793
   0.42819389  0.14129570  0.51110915
   0.42782009  0.27691279  0.54669327
   0.42172938  0.71355436  0.48595023
   0.42794300  0.85539783  0.50287827
   0.57085271  0.99844912  0.49221278
   0.57092525  0.14135132  0.49696159
   0.57122902  0.28464140  0.49580850
   0.57165021  0.85543071  0.49129686
   0.71423400  0.99927748  0.48467683
   0.71381897  0.14191740  0.48834804
   0.71346087  0.28489804  0.48472555
   0.71310968  0.42718547  0.46307107
   0.72956580  0.57890607  0.42063361
   0.72716725  0.72304515  0.43570324
   0.71623063  0.85778468  0.47919641
   0.85825812  0.00026701  0.48639928
   0.85678433  0.14212563  0.48946237
   0.85622180  0.28474295  0.48759644
   0.85608256  0.42775782  0.48185675
   0.85707941  0.57157617  0.47483925
   0.86056399  0.71607104  0.47242056
   0.85962635  0.85789097  0.48360255
   0.04813581  0.09540062  0.50784573
   0.04655860  0.23710682  0.50622026
   0.04540063  0.37959573  0.50030931
   0.04591220  0.52275479  0.49699214
   0.04677234  0.66591204  0.49931611
   0.04781861  0.80914026  0.50211303
   0.04826049  0.95241947  0.50658155
   0.19075295  0.09513900  0.52151852
   0.18965060  0.23785864  0.52941436
   0.18596716  0.37907775  0.52522142
   0.18731766  0.52182011  0.51007409
   0.18879962  0.66556898  0.50856029
   0.19003855  0.80881499  0.50887140
   0.19052553  0.95191564  0.51331644
   0.33326561  0.09472501  0.51838763
   0.33391533  0.23721004  0.54624123
   0.31750794  0.37520514  0.57710592
   0.32135401  0.52077573  0.55224395
   0.33096282  0.66518328  0.50759790
   0.33266708  0.80850027  0.50716990
   0.33296794  0.95154689  0.50902930
   0.47583154  0.09375013  0.50271592
   0.47616583  0.23629473  0.51604688
   0.47502341  0.80706990  0.49450734
   0.47589631  0.95089510  0.50044064
   0.61845103  0.09379735  0.49189590
   0.61860773  0.23682193  0.49285120
   0.61954652  0.37573393  0.47129055
   0.62483545  0.81497097  0.49798710
   0.61888543  0.95103360  0.48685590
   0.76166485  0.09460020  0.48706221
   0.76118677  0.23712653  0.48662071
   0.76086643  0.38010525  0.47687626
   0.76329593  0.52474513  0.45190569
   0.77025483  0.67161296  0.44112714
   0.76527846  0.81048902  0.46807290
   0.76301841  0.95290825  0.48049345
   0.90498056  0.09484906  0.49201937
   0.90388532  0.23714674  0.49148629
   0.90337235  0.38010637  0.48764880
   0.90360318  0.52331273  0.48470458
   0.90569468  0.66678130  0.48137480
   0.90685184  0.81028344  0.48593255
   0.90602875  0.95264006  0.49214668
   0.47850675  0.35955636  0.58113486
   0.39191801  0.41945048  0.62806406
   0.40606601  0.56745981  0.58402458
   0.64573937  0.68695024  0.39754874
   0.65865309  0.54493184  0.36571980
   0.57130628  0.41533090  0.45425880
   0.58872301  0.73190985  0.53395026
   0.45697765  0.66689552  0.44773903
   0.53060126  0.59317810  0.50968188
   0.51592179  0.50548618  0.55029397
   0.54392254  0.54551278  0.50047077
Direct configuration=     3
   0.00073111  0.00010812  0.50278237
   0.99989327  0.14235396  0.50190434
   0.99883859  0.28459394  0.49876723
   0.99839510  0.42752721  0.49402929
   0.99854372  0.57069342  0.49415283
   0.00003960  0.71395714  0.49550259
   0.00115924  0.85746630  0.49935343
   0.14333428  0.00014437  0.51427436
   0.14302782  0.14303728  0.51937796
   0.14098002  0.28439469  0.52043958
   0.13989134  0.42696867  0.51089826
   0.14083070  0.57013411  0.50379216
   0.14187900  0.71336932  0.50637558
   0.14282993  0.85668351  0.50889672
   0.28558486  0.99934706  0.51377934
   0.28601629  0.14271791  0.52793081
   0.28361363  0.28524428  0.55340776
   0.27715681  0.42614527  0.55284074
   0.28230671  0.56915735  0.52077181
   0.28412469  0.71342853  0.51042847
   0.28520505  0.85640390  0.50870253
   0.42830401  0.99863444  0.50440058
   0.42819371  0.14129455  0.51110890
   0.42781886  0.27691328  0.54666456
   0.42173271  0.71355983  0.48597438
   0.42794783  0.85539804  0.50289315
   0.57085650  0.99845552  0.49221439
   0.57093016  0.14135802  0.49696450
   0.57122729  0.28463800  0.49579201
   0.57165374  0.85543480  0.49130009
   0.71423471  0.99928267  0.48467139
   0.71382168  0.14192289  0.48833299
   0.71346365  0.28489913  0.48471599
   0.71310874  0.42718873  0.46305256
   0.72957031  0.57890958  0.42062400
   0.72716645  0.72304341  0.43569537
   0.71622414  0.85778602  0.47918034
   0.85825724  0.00026308  0.48638040
   0.85678595  0.14212682  0.48945082
   0.85621963  0.28474589  0.48757870
   0.85608414  0.42775886  0.48184320
   0.85708113  0.57157745  0.47482887
   0.86056231  0.71607345  0.47241520
   0.85962086  0.85788707  0.48359789
   0.04813685  0.09540489  0.50783330
   0.04656580  0.23711361  0.50621878
   0.04540400  0.37959894  0.50031034
   0.04591713  0.52275928  0.49699750
   0.04677325  0.66591545  0.49931914
   0.04781880  0.80914223  0.50211021
   0.04826401  0.95242485  0.50657306
   0.19074731  0.09513683  0.52151950
   0.18965478  0.23786090  0.52941119
   0.18597170  0.37907993  0.52522726
   0.18732272  0.52182233  0.51009386
   0.18880449  0.66557515  0.50856996
   0.19004032  0.80881863  0.50887694
   0.19052897  0.95192021  0.51332381
   0.33326613  0.09472543  0.51839179
   0.33391523  0.23720737  0.54623356
   0.31750925  0.37519927  0.57714039
   0.32134566  0.52076677  0.55226975
   0.33096877  0.66518566  0.50762069
   0.33267290  0.80850406  0.50717617
   0.33296830  0.95154827  0.50903871
   0.47583524  0.09375153  0.50271680
   0.47616264  0.23629025  0.51602702
   0.47503152  0.80707656  0.49452555
   0.47589830  0.95089808  0.50044641
   0.61845131  0.09379964  0.49188741
   0.61860916  0.23682379  0.49284577
   0.61954290  0.37572554  0.47125904
   0.62483180  0.81497199  0.49799085
   0.61888833  0.95104075  0.48686090
   0.76166307  0.09460106  0.48705557
   0.76118363  0.23712598  0.48660680
   0.76086505  0.38010663  0.47686142
   0.76330265  0.52474758  0.45189261
   0.77024738  0.67160569  0.44113608
   0.76527490  0.81048917  0.46808026
   0.76301589  0.95291475  0.48047413
   0.90498378  0.09485121  0.49201231
   0.90388115  0.23714743  0.49146809
   0.90337186  0.38010863  0.48764175
   0.90360364  0.52331405  0.48469336
   0.90569316  0.66677866  0.48136470
   0.90685634  0.81029070  0.48590960
   0.90603151  0.95264326  0.49213262
   0.47851506  0.35956913  0.58107605
   0.39188700  0.41942044  0.62816834
   0.40605635  0.56745726  0.58403498
   0.64574196  0.68693928  0.39752172
   0.65865016  0.54492855  0.36571434
   0.57129140  0.41530572  0.45419886
   0.58875993  0.73191818  0.53395919
   0.45697909  0.66689844  0.44777408
   0.53056939  0.59319261  0.50959527
   0.51580577  0.50533048  0.55035292
   0.54397640  0.54556737  0.50072522
Direct configuration=     4
   0.00073432  0.00011007  0.50275977
   0.99990288  0.14236349  0.50188879
   0.99884255  0.28459457  0.49875960
   0.99839853  0.42752816  0.49403639
   0.99854904  0.57069774  0.49415323
   0.00003966  0.71396388  0.49549619
   0.00116017  0.85746811  0.49933370
   0.14333629  0.00014503  0.51427076
   0.14303244  0.14304360  0.51937125
   0.14098700  0.28439897  0.52044297
   0.13989545  0.42696835  0.51091370
   0.14083725  0.57013768  0.50380891
   0.14188116  0.71337280  0.50638452
   0.14282443  0.85668452  0.50890412
   0.28558343  0.99934966  0.51379081
   0.28601699  0.14271711  0.52793242
   0.28362198  0.28524466  0.55341379
   0.27716229  0.42613839  0.55287119
   0.28230683  0.56915632  0.52080878
   0.28413056  0.71342733  0.51045123
   0.28520620  0.85640659  0.50871372
   0.42830421  0.99863643  0.50440751
   0.42819132  0.14129397  0.51110967
   0.42781666  0.27691369  0.54662527
   0.42173432  0.71356343  0.48601783
   0.42795432  0.85540112  0.50291723
   0.57086188  0.99846371  0.49222048
   0.57093676  0.14136398  0.49696557
   0.57122632  0.28463563  0.49576826
   0.57166061  0.85543437  0.49131637
   0.71424237  0.99929368  0.48466886
   0.71382687  0.14193248  0.48831598
   0.71346995  0.28490499  0.48470243
   0.71310648  0.42718960  0.46302728
   0.72957213  0.57891668  0.42061307
   0.72716148  0.72304258  0.43569533
   0.71621803  0.85778343  0.47916787
   0.85825425  0.00025741  0.48635979
   0.85679090  0.14213319  0.48943650
   0.85622438  0.28474880  0.48755731
   0.85608694  0.42776121  0.48182552
   0.85708626  0.57158281  0.47481537
   0.86055778  0.71607615  0.47240926
   0.85961108  0.85787432  0.48359256
   0.04813742  0.09540984  0.50781806
   0.04657150  0.23712028  0.50621549
   0.04541068  0.37960661  0.50031375
   0.04592371  0.52276595  0.49700545
   0.04677419  0.66591775  0.49932264
   0.04782183  0.80914561  0.50210691
   0.04826738  0.95243232  0.50656125
   0.19074232  0.09513566  0.52152077
   0.18966096  0.23786372  0.52940744
   0.18597808  0.37908232  0.52523839
   0.18732832  0.52182563  0.51012310
   0.18881217  0.66558409  0.50858568
   0.19004537  0.80882243  0.50888649
   0.19053550  0.95192923  0.51333390
   0.33326862  0.09472573  0.51839801
   0.33391330  0.23720242  0.54622505
   0.31751204  0.37519241  0.57719983
   0.32133618  0.52075454  0.55231104
   0.33097568  0.66518895  0.50765858
   0.33268105  0.80850992  0.50719021
   0.33297404  0.95155162  0.50905146
   0.47584069  0.09375397  0.50272055
   0.47616410  0.23628642  0.51600224
   0.47503988  0.80708920  0.49455725
   0.47590226  0.95090225  0.50045831
   0.61845083  0.09380063  0.49187977
   0.61860715  0.23682477  0.49284035
   0.61954218  0.37571595  0.47121521
   0.62483290  0.81497822  0.49800295
   0.61888656  0.95104970  0.48687129
   0.76166215  0.09459884  0.48704727
   0.76117766  0.23712488  0.48658852
   0.76086519  0.38010865  0.47684302
   0.76330777  0.52474585  0.45187514
   0.77024703  0.67160101  0.44115145
   0.76526992  0.81049284  0.46809284
   0.76301881  0.95292698  0.48045410
   0.90498564  0.09485580  0.49200193
   0.90387784  0.23714717  0.49144650
   0.90337145  0.38011343  0.48763229
   0.90360721  0.52331535  0.48467921
   0.90569264  0.66677675  0.48135373
   0.90686190  0.81029891  0.48588533
   0.90604029  0.95265791  0.49211837
   0.47852572  0.35959412  0.58099319
   0.39183584  0.41937474  0.62831763
   0.40604670  0.56745428  0.58406471
   0.64574358  0.68692101  0.39750152
   0.65864840  0.54492808  0.36571235
   0.57127365  0.41527381  0.45411214
   0.58880616  0.73193300  0.53397975
   0.45698805  0.66690258  0.44782829
   0.53048286  0.59322080  0.50949788
   0.51559817  0.50508615  0.55047234
   0.54408532  0.54562650  0.50092090
Direct configuration=     5
   0.00073930  0.00011864  0.50273301
   0.99990677  0.14236912  0.50187210
   0.99884165  0.28459769  0.49874842
   0.99840173  0.42753324  0.49404228
   0.99855518  0.57070072  0.49415419
   0.00004354  0.71397084  0.49549022
   0.00116405  0.85747422  0.49930926
   0.14333894  0.00014899  0.51426897
   0.14303640  0.14304872  0.51936229
   0.14098796  0.28440067  0.52044602
   0.13990227  0.42697251  0.51093252
   0.14084256  0.57014311  0.50383083
   0.14188587  0.71337698  0.50639729
   0.14282196  0.85668516  0.50891173
   0.28558516  0.99935154  0.51380663
   0.28601800  0.14271615  0.52793535
   0.28363466  0.28524885  0.55342659
   0.27716971  0.42613173  0.55291552
   0.28230816  0.56915809  0.52085340
   0.28413782  0.71343081  0.51048121
   0.28521351  0.85641241  0.50872888
   0.42830933  0.99863863  0.50441794
   0.42819058  0.14129216  0.51110979
   0.42781766  0.27691492  0.54657535
   0.42173742  0.71357042  0.48607522
   0.42796228  0.85540998  0.50294710
   0.57086232  0.99846998  0.49222905
   0.57094126  0.14136593  0.49696343
   0.57122591  0.28463201  0.49573754
   0.57166668  0.85543454  0.49133864
   0.71424852  0.99930413  0.48466478
   0.71382521  0.14193636  0.48829862
   0.71347307  0.28491281  0.48468450
   0.71310625  0.42718812  0.46299621
   0.72957241  0.57892054  0.42060225
   0.72715512  0.72304193  0.43570061
   0.71621629  0.85778934  0.47915831
   0.85825472  0.00026117  0.48633665
   0.85679475  0.14213946  0.48941828
   0.85623065  0.28475106  0.48753187
   0.85608911  0.42776589  0.48180357
   0.85709276  0.57158702  0.47479765
   0.86055653  0.71607754  0.47240211
   0.85960661  0.85786971  0.48358516
   0.04814112  0.09541617  0.50779938
   0.04657696  0.23712713  0.50620996
   0.04541808  0.37961287  0.50031998
   0.04593123  0.52277192  0.49701641
   0.04677530  0.66592134  0.49932626
   0.04782400  0.80915028  0.50210177
   0.04826903  0.95243566  0.50654379
   0.19074254  0.09513731  0.52152162
   0.18967093  0.23786965  0.52940276
   0.18598767  0.37908321  0.52525423
   0.18733239  0.52182882  0.51015992
   0.18882057  0.66559137  0.50860665
   0.19004871  0.80882618  0.50889993
   0.19053827  0.95193390  0.51334479
   0.33327052  0.09472588  0.51840583
   0.33391200  0.23719742  0.54621492
   0.31751292  0.37518038  0.57727821
   0.32132722  0.52074299  0.55236251
   0.33098056  0.66518902  0.50770980
   0.33268776  0.80851372  0.50721166
   0.33298036  0.95155631  0.50906670
   0.47584539  0.09375756  0.50272671
   0.47616786  0.23628563  0.51597307
   0.47504656  0.80709978  0.49459713
   0.47590738  0.95090765  0.50047491
   0.61845502  0.09380601  0.49187192
   0.61860759  0.23682746  0.49283366
   0.61953996  0.37570844  0.47116006
   0.62484525  0.81498691  0.49801741
   0.61888544  0.95105488  0.48688414
   0.76166719  0.09460310  0.48703520
   0.76117791  0.23712926  0.48656452
   0.76086818  0.38011240  0.47682059
   0.76330907  0.52474594  0.45185126
   0.77024914  0.67160484  0.44116493
   0.76525624  0.81048775  0.46809974
   0.76302287  0.95293407  0.48043033
   0.90498517  0.09485864  0.49198511
   0.90388225  0.23715054  0.49142348
   0.90337434  0.38011833  0.48762029
   0.90361537  0.52331854  0.48466239
   0.90569392  0.66678198  0.48134146
   0.90686471  0.81030241  0.48586056
   0.90604469  0.95266616  0.49210145
   0.47853159  0.35962669  0.58088601
   0.39175984  0.41931458  0.62849599
   0.40603975  0.56745004  0.58411032
   0.64574671  0.68690049  0.39747828
   0.65864793  0.54493045  0.36571121
   0.57125315  0.41523323  0.45399607
   0.58885341  0.73194974  0.53400178
   0.45700558  0.66690727  0.44789375
   0.53035440  0.59322120  0.50941102
   0.51534566  0.50483888  0.55059591
   0.54423323  0.54567206  0.50114826
Direct configuration=     6
   0.00074443  0.00013059  0.50270289
   0.99990329  0.14237053  0.50185581
   0.99884407  0.28460403  0.49873571
   0.99840592  0.42754201  0.49404676
   0.99856117  0.57070347  0.49415517
   0.00004818  0.71397529  0.49548401
   0.00116814  0.85748278  0.49928160
   0.14334026  0.00015461  0.51426840
   0.14304073  0.14305351  0.51935079
   0.14098740  0.28440119  0.52044841
   0.13991231  0.42697920  0.51095390
   0.14084767  0.57015015  0.50385704
   0.14189189  0.71338309  0.50641036
   0.14282576  0.85668796  0.50891934
   0.28558995  0.99935196  0.51382523
   0.28601665  0.14271288  0.52793823
   0.28364787  0.28525403  0.55344352
   0.27717678  0.42612393  0.55296842
   0.28231124  0.56915891  0.52090200
   0.28414203  0.71343821  0.51051507
   0.28522365  0.85641891  0.50874659
   0.42831810  0.99864284  0.50443060
   0.42819336  0.14128969  0.51110825
   0.42782208  0.27691781  0.54651976
   0.42174528  0.71357932  0.48613737
   0.42797008  0.85542278  0.50297889
   0.57086003  0.99847332  0.49223746
   0.57094263  0.14136608  0.49695771
   0.57122498  0.28462905  0.49570185
   0.57167221  0.85543929  0.49136145
   0.71424927  0.99930945  0.48465587
   0.71382142  0.14193599  0.48827989
   0.71347180  0.28491912  0.48466266
   0.71310725  0.42718524  0.46296230
   0.72957397  0.57892264  0.42059282
   0.72714819  0.72303817  0.43570514
   0.71622239  0.85780600  0.47914644
   0.85825935  0.00027513  0.48631107
   0.85679675  0.14214351  0.48939570
   0.85623469  0.28475387  0.48750303
   0.85609132  0.42777144  0.48177997
   0.85709816  0.57158898  0.47477531
   0.86056135  0.71607798  0.47239353
   0.85960782  0.85787697  0.48357466
   0.04814797  0.09542466  0.50777727
   0.04657865  0.23713203  0.50620167
   0.04542302  0.37961614  0.50032799
   0.04593812  0.52277638  0.49702981
   0.04677826  0.66592681  0.49932988
   0.04782449  0.80915588  0.50209388
   0.04826977  0.95243687  0.50652006
   0.19074771  0.09514138  0.52152136
   0.18968282  0.23787859  0.52939674
   0.18599952  0.37908345  0.52527291
   0.18733454  0.52183319  0.51020036
   0.18882745  0.66559540  0.50863098
   0.19005055  0.80883042  0.50891609
   0.19053617  0.95193179  0.51335416
   0.33327097  0.09472568  0.51841427
   0.33391182  0.23719606  0.54620526
   0.31750454  0.37516031  0.57736133
   0.32131863  0.52073561  0.55241381
   0.33098267  0.66518786  0.50776471
   0.33269293  0.80851630  0.50723833
   0.33298283  0.95155923  0.50908397
   0.47584806  0.09375998  0.50273367
   0.47617101  0.23628695  0.51594000
   0.47504785  0.80710410  0.49463738
   0.47591150  0.95091302  0.50049253
   0.61846120  0.09381391  0.49186305
   0.61861357  0.23683124  0.49282553
   0.61953464  0.37570112  0.47109535
   0.62486422  0.81499498  0.49802882
   0.61888803  0.95105620  0.48689546
   0.76167495  0.09461594  0.48701947
   0.76118315  0.23713649  0.48653922
   0.76087277  0.38011824  0.47679440
   0.76330768  0.52474790  0.45182287
   0.77024524  0.67160898  0.44116883
   0.76524180  0.81048058  0.46809772
   0.76302525  0.95293576  0.48040152
   0.90498758  0.09486501  0.49196211
   0.90389246  0.23715756  0.49140063
   0.90338018  0.38012208  0.48760560
   0.90362566  0.52332436  0.48464325
   0.90569765  0.66679313  0.48132886
   0.90686447  0.81030072  0.48583613
   0.90604146  0.95266298  0.49207916
   0.47852362  0.35966211  0.58076734
   0.39168000  0.41924897  0.62868420
   0.40603408  0.56744187  0.58416432
   0.64575264  0.68687987  0.39744512
   0.65864731  0.54493473  0.36570724
   0.57123197  0.41519031  0.45385686
   0.58889968  0.73196312  0.53401673
   0.45702422  0.66690699  0.44794961
   0.53021435  0.59313629  0.50934805
   0.51510471  0.50467123  0.55066957
   0.54438333  0.54571560  0.50148714
Direct configuration=     7
   0.00074675  0.00013774  0.50266734
   0.99989882  0.14237312  0.50183766
   0.99885453  0.28461503  0.49872094
   0.99841350  0.42755105  0.49405052
   0.99856917  0.57070915  0.49415604
   0.00005255  0.71397966  0.49547666
   0.00116911  0.85748922  0.49924770
   0.14333970  0.00015810  0.51426824
   0.14305068  0.14306267  0.51933489
   0.14098990  0.28440184  0.52045118
   0.13992491  0.42697991  0.51098095
   0.14085373  0.57015739  0.50389309
   0.14189788  0.71339006  0.50642626
   0.14283222  0.85669206  0.50892790
   0.28559319  0.99934981  0.51384900
   0.28601477  0.14270950  0.52794256
   0.28365686  0.28525422  0.55346733
   0.27717881  0.42611429  0.55303780
   0.28231318  0.56915730  0.52096433
   0.28414644  0.71344534  0.51055843
   0.28523074  0.85642291  0.50877099
   0.42832549  0.99864922  0.50444918
   0.42819801  0.14128824  0.51110585
   0.42782428  0.27692606  0.54645527
   0.42176105  0.71358409  0.48620993
   0.42797372  0.85543416  0.50301688
   0.57086404  0.99847580  0.49224794
   0.57094373  0.14137026  0.49695194
   0.57122610  0.28462927  0.49565502
   0.57167842  0.85544503  0.49139132
   0.71424551  0.99930899  0.48464209
   0.71382433  0.14194062  0.48825773
   0.71347232  0.28492337  0.48463410
   0.71310578  0.42718366  0.46292062
   0.72957718  0.57892971  0.42058600
   0.72714000  0.72303016  0.43571050
   0.71623767  0.85782674  0.47913146
   0.85826625  0.00029102  0.48627931
   0.85680096  0.14215085  0.48936564
   0.85623878  0.28475913  0.48746804
   0.85609786  0.42777725  0.48175229
   0.85710393  0.57159090  0.47474698
   0.86056678  0.71607959  0.47238145
   0.85960668  0.85788434  0.48355755
   0.04815588  0.09543596  0.50774837
   0.04657518  0.23713278  0.50618925
   0.04542844  0.37962137  0.50033836
   0.04594456  0.52278190  0.49704769
   0.04678583  0.66593358  0.49933424
   0.04782648  0.80916278  0.50208200
   0.04827105  0.95244457  0.50648871
   0.19075399  0.09514588  0.52151999
   0.18969467  0.23788890  0.52938889
   0.18601226  0.37908465  0.52529697
   0.18733669  0.52184023  0.51025031
   0.18883144  0.66559896  0.50866315
   0.19005651  0.80883654  0.50893741
   0.19053353  0.95192792  0.51336419
   0.33327637  0.09472815  0.51842207
   0.33391728  0.23719761  0.54619546
   0.31748160  0.37513069  0.57745955
   0.32131192  0.52072782  0.55247525
   0.33098517  0.66518973  0.50783016
   0.33269977  0.80852259  0.50727606
   0.33299095  0.95156470  0.50910522
   0.47585042  0.09375965  0.50274216
   0.47617181  0.23628785  0.51589945
   0.47504958  0.80710684  0.49468621
   0.47591617  0.95092054  0.50051504
   0.61846277  0.09381797  0.49185341
   0.61862129  0.23683426  0.49281495
   0.61952539  0.37568951  0.47101270
   0.62488284  0.81500279  0.49804241
   0.61889336  0.95105658  0.48690780
   0.76167964  0.09463056  0.48699751
   0.76118943  0.23714411  0.48650914
   0.76087831  0.38012640  0.47676261
   0.76330963  0.52475015  0.45178912
   0.77023715  0.67160922  0.44116404
   0.76523472  0.81047951  0.46808873
   0.76302946  0.95294434  0.48036724
   0.90499243  0.09487562  0.49192952
   0.90390142  0.23716346  0.49137572
   0.90338656  0.38012607  0.48758681
   0.90363530  0.52333278  0.48461892
   0.90570363  0.66680086  0.48131565
   0.90686386  0.81030107  0.48581195
   0.90603580  0.95266035  0.49204864
   0.47850115  0.35970789  0.58061633
   0.39159347  0.41917933  0.62889436
   0.40603264  0.56742732  0.58423799
   0.64576148  0.68685990  0.39740444
   0.65864496  0.54494301  0.36569943
   0.57121317  0.41514301  0.45367797
   0.58895311  0.73197713  0.53402898
   0.45704148  0.66690889  0.44801230
   0.53004302  0.59291918  0.50930551
   0.51484008  0.50456917  0.55070098
   0.54455021  0.54578684  0.50195448
Direct configuration=     8
   0.00074676  0.00014022  0.50262482
   0.99990458  0.14238313  0.50181437
   0.99887074  0.28462764  0.49870413
   0.99842664  0.42755740  0.49405428
   0.99858191  0.57072132  0.49415653
   0.00006025  0.71398804  0.49546833
   0.00117262  0.85749330  0.49921471
   0.14334033  0.00015813  0.51426735
   0.14306875  0.14307871  0.51931184
   0.14099784  0.28440361  0.52045555
   0.13993588  0.42698116  0.51101720
   0.14086127  0.57016345  0.50394697
   0.14190634  0.71339765  0.50644733
   0.14283665  0.85669528  0.50893842
   0.28559417  0.99934927  0.51387810
   0.28602145  0.14271199  0.52795177
   0.28365664  0.28524347  0.55350513
   0.27717002  0.42610187  0.55313548
   0.28231168  0.56915531  0.52105284
   0.28415424  0.71344899  0.51062313
   0.28523499  0.85642684  0.50880960
   0.42833117  0.99865906  0.50447795
   0.42820463  0.14129175  0.51110511
   0.42782194  0.27694309  0.54637843
   0.42177880  0.71357803  0.48630783
   0.42797522  0.85543472  0.50307061
   0.57087565  0.99847954  0.49226654
   0.57094939  0.14137910  0.49694924
   0.57122367  0.28462708  0.49559805
   0.57168574  0.85544254  0.49144197
   0.71425060  0.99931707  0.48462810
   0.71383623  0.14195537  0.48823422
   0.71348373  0.28492845  0.48459943
   0.71310315  0.42718907  0.46287049
   0.72957898  0.57894307  0.42058066
   0.72712975  0.72301897  0.43572376
   0.71625551  0.85783921  0.47912231
   0.85827337  0.00029996  0.48624190
   0.85681064  0.14216660  0.48932619
   0.85624801  0.28476832  0.48742876
   0.85611372  0.42778558  0.48172084
   0.85711123  0.57159429  0.47471216
   0.86056635  0.71608317  0.47236880
   0.85960129  0.85787931  0.48353556
   0.04815970  0.09544647  0.50771471
   0.04657743  0.23713492  0.50617314
   0.04544496  0.37963525  0.50035157
   0.04595304  0.52279171  0.49707236
   0.04679708  0.66594011  0.49934201
   0.04783487  0.80917130  0.50206579
   0.04827588  0.95246205  0.50645098
   0.19075752  0.09514801  0.52151876
   0.18970385  0.23789552  0.52938257
   0.18601930  0.37908341  0.52533258
   0.18734268  0.52184621  0.51031533
   0.18883569  0.66560583  0.50870903
   0.19007002  0.80885030  0.50896189
   0.19053646  0.95193005  0.51337657
   0.33328220  0.09472718  0.51843367
   0.33392719  0.23719768  0.54618750
   0.31744510  0.37509740  0.57758935
   0.32131314  0.52071732  0.55256943
   0.33099485  0.66519788  0.50791602
   0.33271031  0.80853350  0.50733267
   0.33300136  0.95156793  0.50913801
   0.47585788  0.09376129  0.50275476
   0.47617489  0.23629205  0.51584932
   0.47506034  0.80711630  0.49475743
   0.47592841  0.95093215  0.50054847
   0.61846046  0.09381456  0.49184835
   0.61862813  0.23683844  0.49279839
   0.61951790  0.37567347  0.47090216
   0.62489981  0.81501399  0.49807239
   0.61889990  0.95106145  0.48692759
   0.76167792  0.09463415  0.48696858
   0.76119507  0.23715128  0.48647189
   0.76088422  0.38013488  0.47672282
   0.76332176  0.52475283  0.45175064
   0.77023696  0.67160774  0.44116036
   0.76524317  0.81049044  0.46807957
   0.76304282  0.95297141  0.48033430
   0.90499536  0.09488414  0.49188439
   0.90390877  0.23717214  0.49134562
   0.90339630  0.38013490  0.48756095