  99  99   0   0
  0.3914025E+02  0.1727104E-08  0.1727104E-08  0.1500000E-08  0.0000000E+00
  1.000000000000000E-004
  CAR 
 unknown system                          
      4.55853420    -31.05280554  301     -2.35327676      1.00000000
    -31.053  0.0000E+00  0.0000E+00  0.0000E+00  0.0000E+00
    -30.934  0.0000E+00  0.0000E+00  0.0000E+00  0.0000E+00
    -30.815  0.0000E+00  0.0000E+00  0.0000E+00  0.0000E+00
    -30.697  0.0000E+00  0.0000E+00  0.0000E+00  0.0000E+00
    -30.578  0.0000E+00  0.0000E+00  0.0000E+00  0.0000E+00
    -30.459  0.0000E+00  0.0000E+00  0.0000E+00  0.0000E+00
    -30.341  0.0000E+00  0.0000E+00  0.0000E+00  0.0000E+00
    -30.222  0.0000E+00  0.0000E+00  0.0000E+00  0.0000E+00
    -30.103  0.0000E+00  0.0000E+00  0.0000E+00  0.0000E+00
    -29.984  0.0000E+00  0.0000E+00  0.0000E+00  0.0000E+00
    -29.866  0.0000E+00  0.0000E+00  0.0000E+00  0.0000E+00
    -29.747  0.0000E+00  0.0000E+00  0.0000E+00  0.0000E+00
    -29.628  0.2006E-09  0.2006E-09  0.2382E-10  0.2382E-10
    -29.510  0.2061E-03  0.2061E-03  0.2446E-04  0.2446E-04
    -29.391  0.1428E-01  0.1428E-01  0.1719E-02  0.1719E-02
    -29.272  0.2364E-02  0.2364E-02  0.2000E-02  0.2000E-02
    -29.154  0.8744E-07  0.8744E-07  0.2000E-02  0.2000E-02
    -29.035  0.8114E-16  0.8114E-16  0.2000E-02  0.2000E-02
    -28.916  0.0000E+00  0.0000E+00  0.2000E-02  0.2000E-02
    -28.797  0.0000E+00  0.0000E+00  0.2000E-02  0.2000E-02
    -28.679  0.0000E+00  0.0000E+00  0.2000E-02  0.2000E-02
    -28.560  0.0000E+00  0.0000E+00  0.2000E-02  0.2000E-02
    -28.441  0.0000E+00  0.0000E+00  0.2000E-02  0.2000E-02
    -28.323  0.0000E+00  0.0000E+00  0.2000E-02  0.2000E-02
    -28.204  0.0000E+00  0.0000E+00  0.2000E-02  0.2000E-02
    -28.085  0.0000E+00  0.0000E+00  0.2000E-02  0.2000E-02
    -27.966  0.0000E+00  0.0000E+00  0.2000E-02  0.2000E-02
    -27.848  0.0000E+00  0.0000E+00  0.2000E-02  0.2000E-02
    -27.729  0.0000E+00  0.0000E+00  0.2000E-02  0.2000E-02
    -27.610  0.0000E+00  0.0000E+00  0.2000E-02  0.2000E-02
    -27.492  0.0000E+00  0.0000E+00  0.2000E-02  0.2000E-02
    -27.373  0.0000E+00  0.0000E+00  0.2000E-02  0.2000E-02
    -27.254  0.0000E+00  0.0000E+00  0.2000E-02  0.2000E-02
    -27.136  0.0000E+00  0.0000E+00  0.2000E-02  0.2000E-02
    -27.017  0.0000E+00  0.0000E+00  0.2000E-02  0.2000E-02
    -26.898  0.0000E+00  0.0000E+00  0.2000E-02  0.2000E-02
    -26.779  0.0000E+00  0.0000E+00  0.2000E-02  0.2000E-02
    -26.661  0.0000E+00  0.0000E+00  0.2000E-02  0.2000E-02
    -26.542  0.0000E+00  0.0000E+00  0.2000E-02  0.2000E-02
    -26.423  0.0000E+00  0.0000E+00  0.2000E-02  0.2000E-02
    -26.305  0.0000E+00  0.0000E+00  0.2000E-02  0.2000E-02
    -26.186  0.0000E+00  0.0000E+00  0.2000E-02  0.2000E-02
    -26.067  0.0000E+00  0.0000E+00  0.2000E-02  0.2000E-02
    -25.949  0.0000E+00  0.0000E+00  0.2000E-02  0.2000E-02
    -25.830  0.0000E+00  0.0000E+00  0.2000E-02  0.2000E-02
    -25.711  0.0000E+00  0.0000E+00  0.2000E-02  0.2000E-02
    -25.592  0.0000E+00  0.0000E+00  0.2000E-02  0.2000E-02
    -25.474  0.0000E+00  0.0000E+00  0.2000E-02  0.2000E-02
    -25.355  0.0000E+00  0.0000E+00  0.2000E-02  0.2000E-02
    -25.236  0.0000E+00  0.0000E+00  0.2000E-02  0.2000E-02
    -25.118  0.0000E+00  0.0000E+00  0.2000E-02  0.2000E-02
    -24.999  0.0000E+00  0.0000E+00  0.2000E-02  0.2000E-02
    -24.880  0.0000E+00  0.0000E+00  0.2000E-02  0.2000E-02
    -24.761  0.0000E+00  0.0000E+00  0.2000E-02  0.2000E-02
    -24.643  0.0000E+00  0.0000E+00  0.2000E-02  0.2000E-02
    -24.524  0.0000E+00  0.0000E+00  0.2000E-02  0.2000E-02
    -24.405  0.1484E-08  0.1484E-08  0.2000E-02  0.2000E-02
    -24.287  0.3481E-03  0.3481E-03  0.2041E-02  0.2041E-02
    -24.168  0.7635E-02  0.7635E-02  0.2948E-02  0.2948E-02
    -24.049  0.4416E-03  0.4416E-03  0.3000E-02  0.3000E-02
    -23.931  0.2688E-08  0.2688E-08  0.3000E-02  0.3000E-02
    -23.812  0.0000E+00  0.0000E+00  0.3000E-02  0.3000E-02
    -23.693  0.0000E+00  0.0000E+00  0.3000E-02  0.3000E-02
    -23.574  0.0000E+00  0.0000E+00  0.3000E-02  0.3000E-02
    -23.456  0.0000E+00  0.0000E+00  0.3000E-02  0.3000E-02
    -23.337  0.0000E+00  0.0000E+00  0.3000E-02  0.3000E-02
    -23.218  0.0000E+00  0.0000E+00  0.3000E-02  0.3000E-02
    -23.100  0.0000E+00  0.0000E+00  0.3000E-02  0.3000E-02
    -22.981  0.0000E+00  0.0000E+00  0.3000E-02  0.3000E-02
    -22.862  0.0000E+00  0.0000E+00  0.3000E-02  0.3000E-02
    -22.743  0.0000E+00  0.0000E+00  0.3000E-02  0.3000E-02
    -22.625  0.0000E+00  0.0000E+00  0.3000E-02  0.3000E-02
    -22.506  0.0000E+00  0.0000E+00  0.3000E-02  0.3000E-02
    -22.387  0.0000E+00  0.0000E+00  0.3000E-02  0.3000E-02
    -22.269  0.0000E+00  0.0000E+00  0.3000E-02  0.3000E-02
    -22.150  0.0000E+00  0.0000E+00  0.3000E-02  0.3000E-02
    -22.031  0.4676E-18  0.4676E-18  0.3000E-02  0.3000E-02
    -21.913  0.1955E-08  0.1955E-08  0.3000E-02  0.3000E-02
    -21.794  0.1739E-03  0.1739E-03  0.3021E-02  0.3021E-02
    -21.675  0.5251E-02  0.5251E-02  0.3644E-02  0.3644E-02
    -21.556  0.8011E-02  0.8011E-02  0.4595E-02  0.4595E-02
    -21.438  0.1772E-02  0.1772E-02  0.4805E-02  0.4805E-02
    -21.319  0.1056E-01  0.1056E-01  0.6059E-02  0.6059E-02
    -21.200  0.7738E-02  0.7738E-02  0.6977E-02  0.6977E-02
    -21.082  0.3216E-02  0.3216E-02  0.7359E-02  0.7359E-02
    -20.963  0.3404E-02  0.3404E-02  0.7763E-02  0.7763E-02
    -20.844  0.1311E-01  0.1311E-01  0.9319E-02  0.9319E-02
    -20.726  0.8642E-02  0.8642E-02  0.1035E-01  0.1035E-01
    -20.607  0.3397E-02  0.3397E-02  0.1075E-01  0.1075E-01
    -20.488  0.2140E-02  0.2140E-02  0.1100E-01  0.1100E-01
    -20.369  0.6849E-02  0.6849E-02  0.1182E-01  0.1182E-01
    -20.251  0.1121E-01  0.1121E-01  0.1315E-01  0.1315E-01
    -20.132  0.1211E-01  0.1211E-01  0.1458E-01  0.1458E-01
    -20.013  0.4959E-02  0.4959E-02  0.1517E-01  0.1517E-01
    -19.895  0.1651E-02  0.1651E-02  0.1537E-01  0.1537E-01
    -19.776  0.7395E-02  0.7395E-02  0.1625E-01  0.1625E-01
    -19.657  0.5393E-02  0.5393E-02  0.1689E-01  0.1689E-01
    -19.538  0.5082E-02  0.5082E-02  0.1749E-01  0.1749E-01
    -19.420  0.1334E-01  0.1334E-01  0.1907E-01  0.1907E-01
    -19.301  0.1200E-01  0.1200E-01  0.2050E-01  0.2050E-01
    -19.182  0.2309E-02  0.2309E-02  0.2077E-01  0.2077E-01
    -19.064  0.6566E-02  0.6566E-02  0.2155E-01  0.2155E-01
    -18.945  0.6600E-02  0.6600E-02  0.2233E-01  0.2233E-01
    -18.826  0.4735E-02  0.4735E-02  0.2290E-01  0.2290E-01
    -18.708  0.3653E-02  0.3653E-02  0.2333E-01  0.2333E-01
    -18.589  0.7330E-02  0.7330E-02  0.2420E-01  0.2420E-01
    -18.470  0.1534E-01  0.1534E-01  0.2602E-01  0.2602E-01
    -18.351  0.8882E-02  0.8882E-02  0.2708E-01  0.2708E-01
    -18.233  0.4498E-02  0.4498E-02  0.2761E-01  0.2761E-01
    -18.114  0.8948E-02  0.8948E-02  0.2867E-01  0.2867E-01
    -17.995  0.6155E-02  0.6155E-02  0.2940E-01  0.2940E-01
    -17.877  0.8146E-02  0.8146E-02  0.3037E-01  0.3037E-01
    -17.758  0.3644E-02  0.3644E-02  0.3080E-01  0.3080E-01
    -17.639  0.4869E-02  0.4869E-02  0.3138E-01  0.3138E-01
    -17.520  0.3881E-02  0.3881E-02  0.3184E-01  0.3184E-01
    -17.402  0.1379E-01  0.1379E-01  0.3348E-01  0.3348E-01
    -17.283  0.1393E-01  0.1393E-01  0.3513E-01  0.3513E-01
    -17.164  0.9761E-02  0.9761E-02  0.3629E-01  0.3629E-01
    -17.046  0.8071E-02  0.8071E-02  0.3725E-01  0.3725E-01
    -16.927  0.4988E-02  0.4988E-02  0.3784E-01  0.3784E-01
    -16.808  0.8467E-02  0.8467E-02  0.3885E-01  0.3885E-01
    -16.690  0.8343E-02  0.8343E-02  0.3984E-01  0.3984E-01
    -16.571  0.4676E-02  0.4676E-02  0.4039E-01  0.4039E-01
    -16.452  0.5232E-02  0.5232E-02  0.4101E-01  0.4101E-01
    -16.333  0.9747E-02  0.9747E-02  0.4217E-01  0.4217E-01
    -16.215  0.1498E-01  0.1498E-01  0.4395E-01  0.4395E-01
    -16.096  0.7159E-02  0.7159E-02  0.4480E-01  0.4480E-01
    -15.977  0.1972E-02  0.1972E-02  0.4503E-01  0.4503E-01
    -15.859  0.5277E-02  0.5277E-02  0.4566E-01  0.4566E-01
    -15.740  0.8005E-03  0.8005E-03  0.4575E-01  0.4575E-01
    -15.621  0.3349E-02  0.3349E-02  0.4615E-01  0.4615E-01
    -15.503  0.9745E-03  0.9745E-03  0.4627E-01  0.4627E-01
    -15.384  0.6284E-02  0.6284E-02  0.4701E-01  0.4701E-01
    -15.265  0.6383E-02  0.6383E-02  0.4777E-01  0.4777E-01
    -15.146  0.1058E-01  0.1058E-01  0.4903E-01  0.4903E-01
    -15.028  0.5515E-02  0.5515E-02  0.4968E-01  0.4968E-01
    -14.909  0.1095E-01  0.1095E-01  0.5098E-01  0.5098E-01
    -14.790  0.1462E-01  0.1462E-01  0.5272E-01  0.5272E-01
    -14.672  0.2935E-02  0.2935E-02  0.5306E-01  0.5306E-01
    -14.553  0.5078E-02  0.5078E-02  0.5367E-01  0.5367E-01
    -14.434  0.1347E-01  0.1347E-01  0.5527E-01  0.5527E-01
    -14.315  0.8206E-02  0.8206E-02  0.5624E-01  0.5624E-01
    -14.197  0.1003E-01  0.1003E-01  0.5743E-01  0.5743E-01
    -14.078  0.1241E-01  0.1241E-01  0.5890E-01  0.5890E-01
    -13.959  0.7176E-02  0.7176E-02  0.5976E-01  0.5976E-01
    -13.841  0.5948E-02  0.5948E-02  0.6046E-01  0.6046E-01
    -13.722  0.3958E-02  0.3958E-02  0.6093E-01  0.6093E-01
    -13.603  0.5436E-02  0.5436E-02  0.6158E-01  0.6158E-01
    -13.485  0.1037E-01  0.1037E-01  0.6281E-01  0.6281E-01
    -13.366  0.7634E-02  0.7634E-02  0.6372E-01  0.6372E-01
    -13.247  0.7523E-02  0.7523E-02  0.6461E-01  0.6461E-01
    -13.128  0.7295E-02  0.7295E-02  0.6547E-01  0.6547E-01
    -13.010  0.6633E-02  0.6633E-02  0.6626E-01  0.6626E-01
    -12.891  0.4517E-02  0.4517E-02  0.6680E-01  0.6680E-01
    -12.772  0.6137E-02  0.6137E-02  0.6753E-01  0.6753E-01
    -12.654  0.7600E-02  0.7600E-02  0.6843E-01  0.6843E-01
    -12.535  0.5843E-02  0.5843E-02  0.6912E-01  0.6912E-01
    -12.416  0.1780E-01  0.1780E-01  0.7124E-01  0.7124E-01
    -12.297  0.1033E-01  0.1033E-01  0.7246E-01  0.7246E-01
    -12.179  0.1110E-01  0.1110E-01  0.7378E-01  0.7378E-01
    -12.060  0.6733E-02  0.6733E-02  0.7458E-01  0.7458E-01
    -11.941  0.8509E-02  0.8509E-02  0.7559E-01  0.7559E-01
    -11.823  0.1131E-01  0.1131E-01  0.7693E-01  0.7693E-01
    -11.704  0.8418E-02  0.8418E-02  0.7793E-01  0.7793E-01
    -11.585  0.5882E-02  0.5882E-02  0.7863E-01  0.7863E-01
    -11.467  0.1094E-01  0.1094E-01  0.7993E-01  0.7993E-01
    -11.348  0.1198E-01  0.1198E-01  0.8135E-01  0.8135E-01
    -11.229  0.1019E-01  0.1019E-01  0.8256E-01  0.8256E-01
    -11.110  0.1414E-01  0.1414E-01  0.8424E-01  0.8424E-01
    -10.992  0.9330E-02  0.9330E-02  0.8535E-01  0.8535E-01
    -10.873  0.1150E-01  0.1150E-01  0.8671E-01  0.8671E-01
    -10.754  0.9853E-02  0.9853E-02  0.8788E-01  0.8788E-01
    -10.636  0.8392E-02  0.8392E-02  0.8888E-01  0.8888E-01
    -10.517  0.6163E-02  0.6163E-02  0.8961E-01  0.8961E-01
    -10.398  0.6442E-02  0.6442E-02  0.9037E-01  0.9037E-01
    -10.280  0.8932E-02  0.8932E-02  0.9143E-01  0.9143E-01
    -10.161  0.1482E-01  0.1482E-01  0.9319E-01  0.9319E-01
    -10.042  0.1819E-01  0.1819E-01  0.9535E-01  0.9535E-01
     -9.923  0.1754E-01  0.1754E-01  0.9743E-01  0.9743E-01
     -9.805  0.1967E-01  0.1967E-01  0.9977E-01  0.9977E-01
     -9.686  0.1542E-01  0.1542E-01  0.1016E+00  0.1016E+00
     -9.567  0.2001E-01  0.2001E-01  0.1040E+00  0.1040E+00
     -9.449  0.8749E-02  0.8749E-02  0.1050E+00  0.1050E+00
     -9.330  0.2069E-01  0.2069E-01  0.1075E+00  0.1075E+00
     -9.211  0.1404E-01  0.1404E-01  0.1091E+00  0.1091E+00
     -9.092  0.2128E-01  0.2128E-01  0.1117E+00  0.1117E+00
     -8.974  0.2216E-01  0.2216E-01  0.1143E+00  0.1143E+00
     -8.855  0.2192E-01  0.2192E-01  0.1169E+00  0.1169E+00
     -8.736  0.2732E-01  0.2732E-01  0.1201E+00  0.1201E+00
     -8.618  0.2986E-01  0.2986E-01  0.1237E+00  0.1237E+00
     -8.499  0.1531E-01  0.1531E-01  0.1255E+00  0.1255E+00
     -8.380  0.2090E-01  0.2090E-01  0.1280E+00  0.1280E+00
     -8.262  0.1728E-01  0.1728E-01  0.1300E+00  0.1300E+00
     -8.143  0.1664E-01  0.1664E-01  0.1320E+00  0.1320E+00
     -8.024  0.2202E-01  0.2202E-01  0.1346E+00  0.1346E+00
     -7.905  0.2469E-01  0.2469E-01  0.1375E+00  0.1375E+00
     -7.787  0.1699E-01  0.1699E-01  0.1396E+00  0.1396E+00
     -7.668  0.1594E-01  0.1594E-01  0.1415E+00  0.1415E+00
     -7.549  0.1639E-01  0.1639E-01  0.1434E+00  0.1434E+00
     -7.431  0.1577E-01  0.1577E-01  0.1453E+00  0.1453E+00
     -7.312  0.6237E-02  0.6237E-02  0.1460E+00  0.1460E+00
     -7.193  0.1446E-01  0.1446E-01  0.1477E+00  0.1477E+00
     -7.075  0.2159E-01  0.2159E-01  0.1503E+00  0.1503E+00
     -6.956  0.2266E-01  0.2266E-01  0.1530E+00  0.1530E+00
     -6.837  0.1624E-01  0.1624E-01  0.1549E+00  0.1549E+00
     -6.718  0.1006E-01  0.1006E-01  0.1561E+00  0.1561E+00
     -6.600  0.8277E-02  0.8277E-02  0.1571E+00  0.1571E+00
     -6.481  0.1624E-01  0.1624E-01  0.1590E+00  0.1590E+00
     -6.362  0.9800E-02  0.9800E-02  0.1602E+00  0.1602E+00
     -6.244  0.1238E-01  0.1238E-01  0.1616E+00  0.1616E+00
     -6.125  0.1324E-01  0.1324E-01  0.1632E+00  0.1632E+00
     -6.006  0.2005E-01  0.2005E-01  0.1656E+00  0.1656E+00
     -5.887  0.1384E-01  0.1384E-01  0.1672E+00  0.1672E+00
     -5.769  0.1606E-01  0.1606E-01  0.1691E+00  0.1691E+00
     -5.650  0.1537E-01  0.1537E-01  0.1710E+00  0.1710E+00
     -5.531  0.1464E-01  0.1464E-01  0.1727E+00  0.1727E+00
     -5.413  0.8565E-02  0.8565E-02  0.1737E+00  0.1737E+00
     -5.294  0.5735E-02  0.5735E-02  0.1744E+00  0.1744E+00
     -5.175  0.3527E-02  0.3527E-02  0.1748E+00  0.1748E+00
     -5.057  0.2061E-02  0.2061E-02  0.1751E+00  0.1751E+00
     -4.938  0.1788E-01  0.1788E-01  0.1772E+00  0.1772E+00
     -4.819  0.1937E-01  0.1937E-01  0.1795E+00  0.1795E+00
     -4.700  0.1501E-01  0.1501E-01  0.1813E+00  0.1813E+00
     -4.582  0.3987E-02  0.3987E-02  0.1817E+00  0.1817E+00
     -4.463  0.9982E-02  0.9982E-02  0.1829E+00  0.1829E+00
     -4.344  0.2689E-02  0.2689E-02  0.1833E+00  0.1833E+00
     -4.226  0.2389E-02  0.2389E-02  0.1835E+00  0.1835E+00
     -4.107  0.8488E-02  0.8488E-02  0.1845E+00  0.1845E+00
     -3.988  0.6397E-02  0.6397E-02  0.1853E+00  0.1853E+00
     -3.869  0.7670E-02  0.7670E-02  0.1862E+00  0.1862E+00
     -3.751  0.7423E-02  0.7423E-02  0.1871E+00  0.1871E+00
     -3.632  0.6640E-02  0.6640E-02  0.1879E+00  0.1879E+00
     -3.513  0.1001E-02  0.1001E-02  0.1880E+00  0.1880E+00
     -3.395  0.2512E-05  0.2512E-05  0.1880E+00  0.1880E+00
     -3.276  0.1429E-02  0.1429E-02  0.1882E+00  0.1882E+00
     -3.157  0.6003E-02  0.6003E-02  0.1889E+00  0.1889E+00
     -3.039  0.3061E-02  0.3061E-02  0.1892E+00  0.1892E+00
     -2.920  0.1505E-02  0.1505E-02  0.1894E+00  0.1894E+00
     -2.801  0.6362E-03  0.6362E-03  0.1895E+00  0.1895E+00
     -2.682  0.4882E-06  0.4882E-06  0.1895E+00  0.1895E+00
     -2.564  0.1466E-02  0.1466E-02  0.1897E+00  0.1897E+00
     -2.445  0.2739E-02  0.2739E-02  0.1900E+00  0.1900E+00
     -2.326  0.6339E-05  0.6339E-05  0.1900E+00  0.1900E+00
     -2.208  0.3136E-03  0.3136E-03  0.1900E+00  0.1900E+00
     -2.089  0.3781E-02  0.3781E-02  0.1905E+00  0.1905E+00
     -1.970  0.1172E-03  0.1172E-03  0.1905E+00  0.1905E+00
     -1.852  0.2106E-05  0.2106E-05  0.1905E+00  0.1905E+00
     -1.733  0.1290E-02  0.1290E-02  0.1907E+00  0.1907E+00
     -1.614  0.2585E-02  0.2585E-02  0.1910E+00  0.1910E+00
     -1.495  0.5810E-02  0.5810E-02  0.1916E+00  0.1916E+00
     -1.377  0.2948E-02  0.2948E-02  0.1920E+00  0.1920E+00
     -1.258  0.8259E-05  0.8259E-05  0.1920E+00  0.1920E+00
     -1.139  0.3204E-02  0.3204E-02  0.1924E+00  0.1924E+00
     -1.021  0.7533E-02  0.7533E-02  0.1933E+00  0.1933E+00
     -0.902  0.3942E-02  0.3942E-02  0.1937E+00  0.1937E+00
     -0.783  0.1167E-01  0.1167E-01  0.1951E+00  0.1951E+00
     -0.664  0.1384E-01  0.1384E-01  0.1968E+00  0.1968E+00
     -0.546  0.3971E-02  0.3971E-02  0.1972E+00  0.1972E+00
     -0.427  0.1207E-01  0.1207E-01  0.1987E+00  0.1987E+00
     -0.308  0.8376E-02  0.8376E-02  0.1997E+00  0.1997E+00
     -0.190  0.5316E-02  0.5316E-02  0.2003E+00  0.2003E+00
     -0.071  0.6563E-02  0.6563E-02  0.2011E+00  0.2011E+00
      0.048  0.9133E-02  0.9133E-02  0.2022E+00  0.2022E+00
      0.166  0.8628E-02  0.8628E-02  0.2032E+00  0.2032E+00
      0.285  0.1313E-01  0.1313E-01  0.2047E+00  0.2047E+00
      0.404  0.8654E-02  0.8654E-02  0.2058E+00  0.2058E+00
      0.523  0.2827E-02  0.2827E-02  0.2061E+00  0.2061E+00
      0.641  0.8876E-02  0.8876E-02  0.2072E+00  0.2072E+00
      0.760  0.8194E-02  0.8194E-02  0.2081E+00  0.2081E+00
      0.879  0.7874E-02  0.7874E-02  0.2091E+00  0.2091E+00
      0.997  0.6230E-02  0.6230E-02  0.2098E+00  0.2098E+00
      1.116  0.1050E-01  0.1050E-01  0.2111E+00  0.2111E+00
      1.235  0.5920E-02  0.5920E-02  0.2118E+00  0.2118E+00
      1.354  0.9500E-02  0.9500E-02  0.2129E+00  0.2129E+00
      1.472  0.8820E-02  0.8820E-02  0.2139E+00  0.2139E+00
      1.591  0.1702E-01  0.1702E-01  0.2160E+00  0.2160E+00
      1.710  0.1910E-01  0.1910E-01  0.2182E+00  0.2182E+00
      1.828  0.1371E-01  0.1371E-01  0.2198E+00  0.2198E+00
      1.947  0.7123E-02  0.7123E-02  0.2207E+00  0.2207E+00
      2.066  0.1842E-01  0.1842E-01  0.2229E+00  0.2229E+00
      2.184  0.1929E-01  0.1929E-01  0.2252E+00  0.2252E+00
      2.303  0.1589E-01  0.1589E-01  0.2271E+00  0.2271E+00
      2.422  0.2195E-01  0.2195E-01  0.2297E+00  0.2297E+00
      2.541  0.1988E-01  0.1988E-01  0.2320E+00  0.2320E+00
      2.659  0.7123E-02  0.7123E-02  0.2329E+00  0.2329E+00
      2.778  0.1920E-01  0.1920E-01  0.2351E+00  0.2351E+00
      2.897  0.2656E-01  0.2656E-01  0.2383E+00  0.2383E+00
      3.015  0.1425E-01  0.1425E-01  0.2400E+00  0.2400E+00
      3.134  0.7052E-04  0.7051E-04  0.2400E+00  0.2400E+00
      3.253  0.5137E-10  0.5135E-10  0.2400E+00  0.2400E+00
      3.371  0.0000E+00  0.0000E+00  0.2400E+00  0.2400E+00
      3.490  0.0000E+00  0.0000E+00  0.2400E+00  0.2400E+00
      3.609  0.0000E+00  0.0000E+00  0.2400E+00  0.2400E+00
      3.728  0.0000E+00  0.0000E+00  0.2400E+00  0.2400E+00
      3.846  0.0000E+00  0.0000E+00  0.2400E+00  0.2400E+00
      3.965  0.0000E+00  0.0000E+00  0.2400E+00  0.2400E+00
      4.084  0.0000E+00  0.0000E+00  0.2400E+00  0.2400E+00
      4.202  0.0000E+00  0.0000E+00  0.2400E+00  0.2400E+00
      4.321  0.0000E+00  0.0000E+00  0.2400E+00  0.2400E+00
      4.440  0.0000E+00  0.0000E+00  0.2400E+00  0.2400E+00
      4.559  0.0000E+00  0.0000E+00  0.2400E+00  0.2400E+00
