       N       E                     dE             d eps       ncg     rms          rms(c)
DAV:   1     0.355741688418E+04    0.35574E+04   -0.14464E+05  4200   0.120E+03
DAV:   2    -0.202483504887E+03   -0.37599E+04   -0.35767E+04  5630   0.290E+02
DAV:   3    -0.887567208109E+03   -0.68508E+03   -0.68214E+03  4600   0.130E+02
DAV:   4    -0.912785876110E+03   -0.25219E+02   -0.25069E+02  4580   0.316E+01
DAV:   5    -0.913568246543E+03   -0.78237E+00   -0.78070E+00  5300   0.484E+00    0.438E+01
DAV:   6    -0.880375672590E+03    0.33193E+02   -0.21235E+01  4370   0.924E+00    0.335E+01
DAV:   7    -0.851871509787E+03    0.28504E+02   -0.10959E+02  4270   0.189E+01    0.131E+01
DAV:   8    -0.851631614917E+03    0.23989E+00   -0.63816E+00  4520   0.589E+00    0.658E+00
DAV:   9    -0.851680676418E+03   -0.49062E-01   -0.11895E+00  4350   0.269E+00    0.245E+00
DAV:  10    -0.851567958666E+03    0.11272E+00   -0.40042E-01  4470   0.148E+00    0.106E+00
DAV:  11    -0.851552992393E+03    0.14966E-01   -0.11846E-01  4430   0.812E-01    0.316E-01
DAV:  12    -0.851551625413E+03    0.13670E-02   -0.23527E-02  4420   0.410E-01    0.158E-01
DAV:  13    -0.851551669619E+03   -0.44206E-04   -0.33908E-03  4460   0.150E-01    0.118E-01
DAV:  14    -0.851551683472E+03   -0.13853E-04   -0.21157E-03  4350   0.107E-01    0.591E-02
DAV:  15    -0.851551670140E+03    0.13332E-04   -0.23559E-04  4620   0.473E-02    0.384E-02
DAV:  16    -0.851551702597E+03   -0.32458E-04   -0.23880E-04  4550   0.494E-02    0.285E-02
DAV:  17    -0.851551693354E+03    0.92437E-05   -0.10103E-04  5070   0.327E-02    0.873E-03
DAV:  18    -0.851551696243E+03   -0.28896E-05   -0.22017E-05  4410   0.978E-03    0.539E-03
DAV:  19    -0.851551696183E+03    0.60136E-07   -0.15283E-06  3320   0.439E-03
   1 F= -.85947146E+03 E0= -.85947146E+03  d E =-.859471E+03  mag=     0.0000
       N       E                     dE             d eps       ncg     rms          rms(c)
DAV:   1    -0.851551889298E+03   -0.19305E-03   -0.13901E-02  4060   0.206E-01    0.230E-02
DAV:   2    -0.851551909136E+03   -0.19838E-04   -0.32549E-04  4080   0.269E-02    0.197E-02
DAV:   3    -0.851551903393E+03    0.57435E-05   -0.48349E-06  3820   0.421E-03    0.159E-02
DAV:   4    -0.851551908348E+03   -0.49554E-05   -0.13770E-05  3620   0.671E-03    0.485E-03
DAV:   5    -0.851551909868E+03   -0.15196E-05   -0.36892E-06  3230   0.250E-03    0.246E-03
DAV:   6    -0.851551910134E+03   -0.26642E-06   -0.36781E-07  2580   0.148E-03
   2 F= -.85947167E+03 E0= -.85947167E+03  d E =-.206009E-03  mag=     0.0000
       N       E                     dE             d eps       ncg     rms          rms(c)
DAV:   1    -0.851552111089E+03   -0.20122E-03   -0.31590E-02  4060   0.340E-01    0.328E-02
DAV:   2    -0.851552151591E+03   -0.40502E-04   -0.65128E-04  4080   0.439E-02    0.262E-02
DAV:   3    -0.851552142662E+03    0.89299E-05   -0.10633E-05  4400   0.689E-03    0.207E-02
DAV:   4    -0.851552156534E+03   -0.13872E-04   -0.25428E-05  3780   0.102E-02    0.525E-03
DAV:   5    -0.851552158415E+03   -0.18807E-05   -0.53578E-06  3660   0.364E-03    0.335E-03
DAV:   6    -0.851552158857E+03   -0.44273E-06   -0.63642E-07  2660   0.201E-03
   3 F= -.85947190E+03 E0= -.85947190E+03  d E =-.229829E-03  mag=    -0.0000
       N       E                     dE             d eps       ncg     rms          rms(c)
DAV:   1    -0.851552556316E+03   -0.39790E-03   -0.45644E-02  4040   0.434E-01    0.393E-02
DAV:   2    -0.851552622457E+03   -0.66141E-04   -0.89754E-04  4010   0.550E-02    0.293E-02
DAV:   3    -0.851552616055E+03    0.64020E-05   -0.14812E-05  4580   0.867E-03    0.227E-02
DAV:   4    -0.851552628111E+03   -0.12056E-04   -0.27339E-05  3860   0.124E-02    0.480E-03
DAV:   5    -0.851552628834E+03   -0.72351E-06   -0.57291E-06  4180   0.464E-03
   4 F= -.85947234E+03 E0= -.85947234E+03  d E =-.436574E-03  mag=    -0.0000
       N       E                     dE             d eps       ncg     rms          rms(c)
DAV:   1    -0.851553044778E+03   -0.41667E-03   -0.74004E-02  4020   0.558E-01    0.517E-02
DAV:   2    -0.851553159824E+03   -0.11505E-03   -0.15090E-03  3990   0.714E-02    0.389E-02
DAV:   3    -0.851553151307E+03    0.85171E-05   -0.26189E-05  4600   0.117E-02    0.300E-02
DAV:   4    -0.851553165551E+03   -0.14244E-04   -0.41265E-05  3910   0.157E-02    0.725E-03
DAV:   5    -0.851553167145E+03   -0.15941E-05   -0.90153E-06  4280   0.593E-03    0.476E-03
DAV:   6    -0.851553167290E+03   -0.14558E-06   -0.23987E-06  3300   0.393E-03
   5 F= -.85947283E+03 E0= -.85947283E+03  d E =-.493463E-03  mag=     0.0000
       N       E                     dE             d eps       ncg     rms          rms(c)
DAV:   1    -0.851553636270E+03   -0.46912E-03   -0.11995E-01  3960   0.704E-01    0.632E-02
DAV:   2    -0.851553804143E+03   -0.16787E-03   -0.23549E-03  3960   0.897E-02    0.482E-02
DAV:   3    -0.851553785994E+03    0.18149E-04   -0.39188E-05  4620   0.141E-02    0.374E-02
DAV:   4    -0.851553821715E+03   -0.35721E-04   -0.82017E-05  4150   0.204E-02    0.814E-03
DAV:   5    -0.851553823268E+03   -0.15528E-05   -0.15416E-05  4340   0.759E-03    0.595E-03
DAV:   6    -0.851553823914E+03   -0.64603E-06   -0.27789E-06  3340   0.420E-03
   6 F= -.85947344E+03 E0= -.85947344E+03  d E =-.606089E-03  mag=    -0.0000
       N       E                     dE             d eps       ncg     rms          rms(c)
DAV:   1    -0.851554319973E+03   -0.49671E-03   -0.18743E-01  3920   0.867E-01    0.785E-02
DAV:   2    -0.851554583067E+03   -0.26309E-03   -0.37589E-03  4000   0.112E-01    0.616E-02
DAV:   3    -0.851554552422E+03    0.30645E-04   -0.58503E-05  4650   0.169E-02    0.486E-02
DAV:   4    -0.851554607415E+03   -0.54993E-04   -0.15882E-04  4310   0.265E-02    0.997E-03
DAV:   5    -0.851554610028E+03   -0.26127E-05   -0.27889E-05  4360   0.943E-03    0.758E-03
DAV:   6    -0.851554611827E+03   -0.17992E-05   -0.32091E-06  3540   0.454E-03    0.379E-03
DAV:   7    -0.851554612372E+03   -0.54474E-06   -0.12271E-06  2720   0.238E-03
   7 F= -.85947417E+03 E0= -.85947417E+03  d E =-.734529E-03  mag=    -0.0000
       N       E                     dE             d eps       ncg     rms          rms(c)
DAV:   1    -0.851555155945E+03   -0.54412E-03   -0.27139E-01  3920   0.107E+00    0.959E-02
DAV:   2    -0.851555544474E+03   -0.38853E-03   -0.53824E-03  3910   0.137E-01    0.744E-02
DAV:   3    -0.851555504472E+03    0.40002E-04   -0.90844E-05  4600   0.214E-02    0.577E-02
DAV:   4    -0.851555566046E+03   -0.61574E-04   -0.19981E-04  4360   0.313E-02    0.124E-02
DAV:   5    -0.851555570596E+03   -0.45500E-05   -0.36194E-05  4340   0.113E-02    0.894E-03
DAV:   6    -0.851555572436E+03   -0.18404E-05   -0.54457E-06  3660   0.582E-03    0.425E-03
DAV:   7    -0.851555573148E+03   -0.71133E-06   -0.14515E-06  2800   0.260E-03
   8 F= -.85947506E+03 E0= -.85947506E+03  d E =-.889650E-03  mag=     0.0000
       N       E                     dE             d eps       ncg     rms          rms(c)
DAV:   1    -0.851556175313E+03   -0.60288E-03   -0.38793E-01  3920   0.130E+00    0.117E-01
DAV:   2    -0.851556767734E+03   -0.59242E-03   -0.78167E-03  3900   0.168E-01    0.894E-02
DAV:   3    -0.851556719289E+03    0.48445E-04   -0.13513E-04  4640   0.263E-02    0.689E-02
DAV:   4    -0.851556785423E+03   -0.66134E-04   -0.24882E-04  4430   0.366E-02    0.148E-02
DAV:   5    -0.851556790231E+03   -0.48083E-05   -0.46293E-05  4340   0.134E-02    0.101E-02
DAV:   6    -0.851556790877E+03   -0.64644E-06   -0.84465E-06  3660   0.728E-03
   9 F= -.85947618E+03 E0= -.85947618E+03  d E =-.112427E-02  mag=     0.0000
       N       E                     dE             d eps       ncg     rms          rms(c)
DAV:   1    -0.851557268986E+03   -0.47875E-03   -0.65565E-01  3920   0.169E+00    0.151E-01
DAV:   2    -0.851558277858E+03   -0.10089E-02   -0.13210E-02  3900   0.218E-01    0.117E-01
DAV:   3    -0.851558182503E+03    0.95355E-04   -0.22500E-04  4720   0.340E-02    0.909E-02
DAV:   4    -0.851558272719E+03   -0.90216E-04   -0.49744E-04  4460   0.488E-02    0.197E-02
DAV:   5    -0.851558284143E+03   -0.11424E-04   -0.86180E-05  4300   0.177E-02    0.138E-02
DAV:   6    -0.851558288773E+03   -0.46303E-05   -0.15260E-05  3700   0.955E-03    0.612E-03
DAV:   7    -0.851558290305E+03   -0.15314E-05   -0.31382E-06  3700   0.363E-03    0.367E-03
DAV:   8    -0.851558290307E+03   -0.26557E-08   -0.13108E-06  3300   0.356E-03
  10 F= -.85947757E+03 E0= -.85947757E+03  d E =-.138746E-02  mag=     0.0000
       N       E                     dE             d eps       ncg     rms          rms(c)
DAV:   1    -0.851558622645E+03   -0.33234E-03   -0.10100E+00  3920   0.211E+00    0.187E-01
DAV:   2    -0.851560200288E+03   -0.15776E-02   -0.20338E-02  3900   0.273E-01    0.147E-01
DAV:   3    -0.851560050318E+03    0.14997E-03   -0.34704E-04  4700   0.425E-02    0.113E-01
DAV:   4    -0.851560154400E+03   -0.10408E-03   -0.78659E-04  4540   0.614E-02    0.239E-02
DAV:   5    -0.851560166632E+03   -0.12232E-04   -0.13606E-04  4240   0.223E-02    0.167E-02
DAV:   6    -0.851560173889E+03   -0.72572E-05   -0.20999E-05  3800   0.110E-02    0.765E-03
DAV:   7    -0.851560176496E+03   -0.26068E-05   -0.56858E-06  4200   0.478E-03    0.413E-03
DAV:   8    -0.851560176551E+03   -0.54955E-07   -0.16250E-06  3280   0.416E-03
  11 F= -.85947931E+03 E0= -.85947931E+03  d E =-.173557E-02  mag=     0.0000
       N       E                     dE             d eps       ncg     rms          rms(c)
DAV:   1    -0.851560010514E+03    0.16598E-03   -0.14131E+00  3920   0.253E+00    0.225E-01
DAV:   2    -0.851562356216E+03   -0.23457E-02   -0.29283E-02  3920   0.330E-01    0.173E-01
DAV:   3    -0.851562171370E+03    0.18485E-03   -0.51081E-04  4620   0.517E-02    0.133E-01
DAV:   4    -0.851562282933E+03   -0.11156E-03   -0.92092E-04  4480   0.709E-02    0.289E-02
DAV:   5    -0.851562296038E+03   -0.13105E-04   -0.17163E-04  4340   0.261E-02    0.189E-02
DAV:   6    -0.851562299357E+03   -0.33188E-05   -0.32839E-05  3830   0.141E-02    0.819E-03
DAV:   7    -0.851562302111E+03   -0.27541E-05   -0.76486E-06  4260   0.557E-03    0.489E-03
DAV:   8    -0.851562302197E+03   -0.85194E-07   -0.22890E-06  3480   0.517E-03
  12 F= -.85948123E+03 E0= -.85948123E+03  d E =-.191921E-02  mag=    -0.0000
       N       E                     dE             d eps       ncg     rms          rms(c)
DAV:   1    -0.851560283115E+03    0.20190E-02   -0.26264E+00  3920   0.335E+00    0.300E-01
DAV:   2    -0.851564667850E+03   -0.43847E-02   -0.54452E-02  4060   0.439E-01    0.241E-01
DAV:   3    -0.851564234458E+03    0.43339E-03   -0.85920E-04  4660   0.665E-02    0.189E-01
DAV:   4    -0.851564239448E+03   -0.49899E-05   -0.23917E-03  4600   0.102E-01    0.409E-02
DAV:   5    -0.851564279015E+03   -0.39567E-04   -0.41150E-04  4200   0.350E-02    0.288E-02
DAV:   6    -0.851564296891E+03   -0.17876E-04   -0.50891E-05  3950   0.177E-02    0.138E-02
DAV:   7    -0.851564307455E+03   -0.10565E-04   -0.18833E-05  4300   0.870E-03    0.737E-03
DAV:   8    -0.851564308003E+03   -0.54779E-06   -0.72941E-06  4110   0.864E-03
  13 F= -.85948301E+03 E0= -.85948301E+03  d E =-.177926E-02  mag=    -0.0000
       N       E                     dE             d eps       ncg     rms          rms(c)
DAV:   1    -0.851558021907E+03    0.62855E-02   -0.27264E+00  3960   0.355E+00    0.326E-01
DAV:   2    -0.851563499217E+03   -0.54773E-02   -0.65711E-02  3980   0.483E-01    0.264E-01
DAV:   3    -0.851563123938E+03    0.37528E-03   -0.11356E-03  4640   0.749E-02    0.210E-01
DAV:   4    -0.851563007666E+03    0.11627E-03   -0.18909E-03  4500   0.105E-01    0.504E-02
DAV:   5    -0.851563043837E+03   -0.36171E-04   -0.39933E-04  4320   0.382E-02    0.289E-02
DAV:   6    -0.851563032513E+03    0.11325E-04   -0.83073E-05  4160   0.235E-02    0.119E-02
DAV:   7    -0.851563036486E+03   -0.39740E-05   -0.16803E-05  4380   0.825E-03    0.780E-03
DAV:   8    -0.851563036184E+03    0.30265E-06   -0.42334E-06  3920   0.727E-03
  14 F= -.85948139E+03 E0= -.85948139E+03  d E =0.161234E-02  mag=    -0.0000
       N       E                     dE             d eps       ncg     rms          rms(c)
DAV:   1    -0.851567793974E+03   -0.47575E-02   -0.42133E-01  4080   0.967E-01    0.132E-01
DAV:   2    -0.851568763233E+03   -0.96926E-03   -0.12595E-02  4100   0.125E-01    0.128E-01
DAV:   3    -0.851568631408E+03    0.13183E-03   -0.12025E-04  4740   0.180E-02    0.113E-01
DAV:   4    -0.851568500426E+03    0.13098E-03   -0.76380E-04  4120   0.419E-02    0.310E-02
DAV:   5    -0.851568533154E+03   -0.32727E-04   -0.19007E-04  4460   0.141E-02    0.166E-02
DAV:   6    -0.851568545435E+03   -0.12281E-04   -0.15811E-05  3680   0.782E-03    0.606E-03
DAV:   7    -0.851568548326E+03   -0.28913E-05   -0.21486E-06  2960   0.291E-03    0.330E-03
DAV:   8    -0.851568548309E+03    0.17244E-07   -0.89686E-07  3300   0.257E-03
  15 F= -.85948692E+03 E0= -.85948692E+03  d E =-.552686E-02  mag=     0.0000
       N       E                     dE             d eps       ncg     rms          rms(c)
DAV:   1    -0.851568588179E+03   -0.39852E-04   -0.27192E-04  4060   0.348E-02    0.351E-03
DAV:   2    -0.851568588714E+03   -0.53536E-06   -0.70604E-06  3990   0.480E-03
  16 F= -.85948696E+03 E0= -.85948696E+03  d E =-.374902E-04  mag=    -0.0000
       N       E                     dE             d eps       ncg     rms          rms(c)
DAV:   1    -0.851568655586E+03   -0.67407E-04   -0.10004E-03  4000   0.674E-02    0.831E-03
DAV:   2    -0.851568657026E+03   -0.14401E-05   -0.24235E-05  4220   0.923E-03    0.711E-03
DAV:   3    -0.851568656633E+03    0.39321E-06   -0.63998E-07  2890   0.197E-03
  17 F= -.85948702E+03 E0= -.85948702E+03  d E =-.621774E-04  mag=     0.0000
       N       E                     dE             d eps       ncg     rms          rms(c)
DAV:   1    -0.851568736752E+03   -0.79726E-04   -0.19953E-03  3920   0.962E-02    0.958E-03
DAV:   2    -0.851568740028E+03   -0.32760E-05   -0.42567E-05  3980   0.125E-02    0.776E-03
DAV:   3    -0.851568739751E+03    0.27763E-06   -0.74794E-07  3040   0.216E-03
  18 F= -.85948710E+03 E0= -.85948710E+03  d E =-.749427E-04  mag=     0.0000
       N       E                     dE             d eps       ncg     rms          rms(c)
DAV:   1    -0.851568834044E+03   -0.94015E-04   -0.33464E-03  3880   0.125E-01    0.116E-02
DAV:   2    -0.851568839388E+03   -0.53441E-05   -0.67254E-05  3980   0.159E-02    0.901E-03
DAV:   3    -0.851568839095E+03    0.29246E-06   -0.11453E-06  3100   0.271E-03
  19 F= -.85948718E+03 E0= -.85948718E+03  d E =-.886808E-04  mag=     0.0000
       N       E                     dE             d eps       ncg     rms          rms(c)
DAV:   1    -0.851568957546E+03   -0.11816E-03   -0.52042E-03  3880   0.155E-01    0.139E-02
DAV:   2    -0.851568965453E+03   -0.79070E-05   -0.10101E-04  3840   0.195E-02    0.107E-02
DAV:   3    -0.851568965053E+03    0.40008E-06   -0.17220E-06  3400   0.318E-03
  20 F= -.85948730E+03 E0= -.85948730E+03  d E =-.113367E-03  mag=     0.0000
       N       E                     dE             d eps       ncg     rms          rms(c)
DAV:   1    -0.851569113758E+03   -0.14831E-03   -0.77670E-03  3880   0.188E-01    0.168E-02
DAV:   2    -0.851569125100E+03   -0.11342E-04   -0.15052E-04  3840   0.238E-02    0.130E-02
DAV:   3    -0.851569124450E+03    0.65023E-06   -0.25750E-06  3660   0.379E-03
  21 F= -.85948744E+03 E0= -.85948744E+03  d E =-.145175E-03  mag=     0.0000
       N       E                     dE             d eps       ncg     rms          rms(c)
DAV:   1    -0.851569304362E+03   -0.17926E-03   -0.13732E-02  3880   0.249E-01    0.221E-02
DAV:   2    -0.851569324013E+03   -0.19651E-04   -0.26932E-04  3920   0.317E-02    0.174E-02
DAV:   3    -0.851569322679E+03    0.13336E-05   -0.47358E-06  4260   0.502E-03    0.134E-02
DAV:   4    -0.851569326143E+03   -0.34638E-05   -0.89303E-06  3620   0.676E-03    0.287E-03
DAV:   5    -0.851569326270E+03   -0.12721E-06   -0.18750E-06  3240   0.260E-03
  22 F= -.85948763E+03 E0= -.85948763E+03  d E =-.183935E-03  mag=     0.0000
       N       E                     dE             d eps       ncg     rms          rms(c)
DAV:   1    -0.851569526242E+03   -0.20010E-03   -0.22463E-02  3920   0.318E-01    0.276E-02
DAV:   2    -0.851569561097E+03   -0.34855E-04   -0.46464E-04  3840   0.419E-02    0.216E-02
DAV:   3    -0.851569557816E+03    0.32810E-05   -0.84914E-06  4620   0.676E-03    0.166E-02
DAV:   4    -0.851569561411E+03   -0.35956E-05   -0.16152E-05  3700   0.906E-03    0.393E-03
DAV:   5    -0.851569561713E+03   -0.30231E-06   -0.32753E-06  3620   0.345E-03
  23 F= -.85948784E+03 E0= -.85948784E+03  d E =-.212106E-03  mag=    -0.0000
       N       E                     dE             d eps       ncg     rms          rms(c)
DAV:   1    -0.851569800177E+03   -0.23877E-03   -0.33677E-02  3920   0.392E-01    0.338E-02
DAV:   2    -0.851569853038E+03   -0.52861E-04   -0.69113E-04  3840   0.514E-02    0.263E-02
DAV:   3    -0.851569848476E+03    0.45621E-05   -0.13041E-05  4700   0.838E-03    0.200E-02
DAV:   4    -0.851569852887E+03   -0.44110E-05   -0.22406E-05  3720   0.109E-02    0.473E-03
DAV:   5    -0.851569853230E+03   -0.34259E-06   -0.47949E-06  3940   0.424E-03
  24 F= -.85948810E+03 E0= -.85948810E+03  d E =-.261515E-03  mag=     0.0000
       N       E                     dE             d eps       ncg     rms          rms(c)
DAV:   1    -0.851570139883E+03   -0.28700E-03   -0.50922E-02  3920   0.484E-01    0.416E-02
DAV:   2    -0.851570222479E+03   -0.82596E-04   -0.10535E-03  3840   0.633E-02    0.320E-02
DAV:   3    -0.851570216084E+03    0.63945E-05   -0.19843E-05  4600   0.103E-02    0.243E-02
DAV:   4    -0.851570221259E+03   -0.51751E-05   -0.32003E-05  3800   0.132E-02    0.564E-03
DAV:   5    -0.851570221610E+03   -0.35059E-06   -0.70364E-06  4200   0.518E-03
  25 F= -.85948843E+03 E0= -.85948843E+03  d E =-.330337E-03  mag=    -0.0000
       N       E                     dE             d eps       ncg     rms          rms(c)
DAV:   1    -0.851570538301E+03   -0.31704E-03   -0.78097E-02  3920   0.600E-01    0.516E-02
DAV:   2    -0.851570665217E+03   -0.12692E-03   -0.16163E-03  3860   0.787E-02    0.398E-02
DAV:   3    -0.851570655133E+03    0.10085E-04   -0.30983E-05  4560   0.129E-02    0.302E-02
DAV:   4    -0.851570662205E+03   -0.70721E-05   -0.50056E-05  4240   0.164E-02    0.698E-03
DAV:   5    -0.851570662609E+03   -0.40456E-06   -0.10180E-05  4240   0.638E-03    0.423E-03
DAV:   6    -0.851570662710E+03   -0.10095E-06   -0.17193E-06  2820   0.298E-03
  26 F= -.85948882E+03 E0= -.85948882E+03  d E =-.393175E-03  mag=     0.0000
       N       E                     dE             d eps       ncg     rms          rms(c)
DAV:   1    -0.851571019929E+03   -0.35732E-03   -0.12321E-01  3920   0.754E-01    0.639E-02
DAV:   2    -0.851571216593E+03   -0.19666E-03   -0.25328E-03  3860   0.986E-02    0.495E-02
DAV:   3    -0.851571199829E+03    0.16765E-04   -0.48309E-05  4620   0.160E-02    0.376E-02
DAV:   4    -0.851571210691E+03   -0.10863E-04   -0.81885E-05  4340   0.209E-02    0.872E-03
DAV:   5    -0.851571211557E+03   -0.86528E-06   -0.15926E-05  4300   0.791E-03    0.535E-03
DAV:   6    -0.851571211847E+03   -0.29096E-06   -0.26600E-06  3200   0.366E-03
  27 F= -.85948931E+03 E0= -.85948931E+03  d E =-.488923E-03  mag=    -0.0000
       N       E                     dE             d eps       ncg     rms          rms(c)
DAV:   1    -0.851571603190E+03   -0.39163E-03   -0.19447E-01  3920   0.946E-01    0.802E-02
DAV:   2    -0.851571909961E+03   -0.30677E-03   -0.39850E-03  3880   0.124E-01    0.625E-02
DAV:   3    -0.851571881778E+03    0.28183E-04   -0.75728E-05  4680   0.200E-02    0.476E-02
DAV:   4    -0.851571899171E+03   -0.17394E-04   -0.13692E-04  4420   0.267E-02    0.110E-02
DAV:   5    -0.851571900945E+03   -0.17734E-05   -0.25331E-05  4340   0.990E-03    0.691E-03
DAV:   6    -0.851571901659E+03   -0.71480E-06   -0.43278E-06  3620   0.469E-03
  28 F= -.85948993E+03 E0= -.85948993E+03  d E =-.615324E-03  mag=     0.0000
       N       E                     dE             d eps       ncg     rms          rms(c)
DAV:   1    -0.851572300787E+03   -0.39984E-03   -0.28703E-01  3920   0.115E+00    0.981E-02
DAV:   2    -0.851572750315E+03   -0.44953E-03   -0.58275E-03  3880   0.150E-01    0.765E-02
DAV:   3    -0.851572708692E+03    0.41624E-04   -0.11512E-04  4620   0.248E-02    0.579E-02
DAV:   4    -0.851572729544E+03   -0.20852E-04   -0.19709E-04  4460   0.323E-02    0.138E-02
DAV:   5    -0.851572732192E+03   -0.26479E-05   -0.36894E-05  4300   0.120E-02    0.852E-03
DAV:   6    -0.851572733074E+03   -0.88241E-06   -0.70312E-06  3600   0.620E-03
  29 F= -.85949067E+03 E0= -.85949067E+03  d E =-.738303E-03  mag=    -0.0000
       N       E                     dE             d eps       ncg     rms          rms(c)
DAV:   1    -0.851573097143E+03   -0.36495E-03   -0.43269E-01  3920   0.141E+00    0.121E-01
DAV:   2    -0.851573787797E+03   -0.69065E-03   -0.88490E-03  3880   0.184E-01    0.934E-02
DAV:   3    -0.851573729982E+03    0.57815E-04   -0.17302E-04  4580   0.304E-02    0.707E-02
DAV:   4    -0.851573755947E+03   -0.25965E-04   -0.28369E-04  4460   0.393E-02    0.170E-02
DAV:   5    -0.851573759760E+03   -0.38135E-05   -0.54086E-05  4280   0.146E-02    0.105E-02
DAV:   6    -0.851573760419E+03   -0.65909E-06   -0.10786E-05  3680   0.799E-03    0.436E-03
DAV:   7    -0.851573761151E+03   -0.73155E-06   -0.19258E-06  3280   0.291E-03
  30 F= -.85949158E+03 E0= -.85949158E+03  d E =-.915455E-03  mag=     0.0000
       N       E                     dE             d eps       ncg     rms          rms(c)
DAV:   1    -0.851574017261E+03   -0.25684E-03   -0.68097E-01  3920   0.177E+00    0.151E-01
DAV:   2    -0.851575108944E+03   -0.10917E-02   -0.13996E-02  3880   0.232E-01    0.116E-01
DAV:   3    -0.851575016331E+03    0.92613E-04   -0.26809E-04  4620   0.379E-02    0.883E-02
DAV:   4    -0.851575052335E+03   -0.36004E-04   -0.44262E-04  4460   0.492E-02    0.214E-02
DAV:   5    -0.851575061344E+03   -0.90097E-05   -0.84192E-05  4280   0.180E-02    0.133E-02
DAV:   6    -0.851575062707E+03   -0.13630E-05   -0.15694E-05  3740   0.973E-03    0.571E-03
DAV:   7    -0.851575064068E+03   -0.13604E-05   -0.37074E-06  3960   0.395E-03    0.331E-03
DAV:   8    -0.851575064046E+03    0.22104E-07   -0.10219E-06  3030   0.364E-03
  31 F= -.85949274E+03 E0= -.85949274E+03  d E =-.116296E-02  mag=    -0.0000
       N       E                     dE             d eps       ncg     rms          rms(c)
DAV:   1    -0.851575028984E+03    0.35083E-04   -0.10579E+00  3920   0.221E+00    0.187E-01
DAV:   2    -0.851576763704E+03   -0.17347E-02   -0.21936E-02  3920   0.289E-01    0.143E-01
DAV:   3    -0.851576620839E+03    0.14286E-03   -0.41032E-04  4660   0.467E-02    0.109E-01
DAV:   4    -0.851576669757E+03   -0.48918E-04   -0.66199E-04  4480   0.605E-02    0.271E-02
DAV:   5    -0.851576686319E+03   -0.16562E-04   -0.12628E-04  4320   0.219E-02    0.169E-02
DAV:   6    -0.851576687962E+03   -0.16429E-05   -0.25532E-05  3840   0.129E-02    0.724E-03
DAV:   7    -0.851576690175E+03   -0.22128E-05   -0.63134E-06  4220   0.516E-03    0.435E-03
DAV:   8    -0.851576690146E+03    0.28187E-07   -0.20436E-06  3440   0.506E-03
  32 F= -.85949420E+03 E0= -.85949420E+03  d E =-.145739E-02  mag=     0.0000
       N       E                     dE             d eps       ncg     rms          rms(c)
DAV:   1    -0.851576066607E+03    0.62357E-03   -0.16002E+00  3920   0.271E+00    0.229E-01
DAV:   2    -0.851578790361E+03   -0.27238E-02   -0.33684E-02  3920   0.356E-01    0.172E-01
DAV:   3    -0.851578586770E+03    0.20359E-03   -0.60688E-04  4640   0.567E-02    0.132E-01
DAV:   4    -0.851578643547E+03   -0.56777E-04   -0.95556E-04  4520   0.742E-02    0.331E-02
DAV:   5    -0.851578666365E+03   -0.22818E-04   -0.18554E-04  4320   0.268E-02    0.209E-02
DAV:   6    -0.851578666664E+03   -0.29855E-06   -0.40022E-05  3820   0.168E-02    0.880E-03
DAV:   7    -0.851578669617E+03   -0.29531E-05   -0.10090E-05  4420   0.660E-03    0.568E-03
DAV:   8    -0.851578669549E+03    0.67848E-07   -0.38431E-06  3800   0.689E-03
  33 F= -.85949597E+03 E0= -.85949597E+03  d E =-.177143E-02  mag=    -0.0000
       N       E                     dE             d eps       ncg     rms          rms(c)
DAV:   1    -0.851576776690E+03    0.18929E-02   -0.24781E+00  3920   0.337E+00    0.285E-01
DAV:   2    -0.851581044199E+03   -0.42675E-02   -0.52664E-02  4000   0.445E-01    0.215E-01
DAV:   3    -0.851580704338E+03    0.33986E-03   -0.92759E-04  4640   0.699E-02    0.166E-01
DAV:   4    -0.851580772815E+03   -0.68477E-04   -0.15396E-03  4680   0.935E-02    0.421E-02
DAV:   5    -0.851580818903E+03   -0.46089E-04   -0.30280E-04  4240   0.333E-02    0.268E-02
DAV:   6    -0.851580821791E+03   -0.28877E-05   -0.57793E-05  4020   0.206E-02    0.119E-02
DAV:   7    -0.851580828673E+03   -0.68821E-05   -0.18339E-05  4220   0.891E-03    0.738E-03
DAV:   8    -0.851580828635E+03    0.38068E-07   -0.66937E-06  4080   0.893E-03
  34 F= -.85949786E+03 E0= -.85949786E+03  d E =-.188515E-02  mag=     0.0000
       N       E                     dE             d eps       ncg     rms          rms(c)
DAV:   1    -0.851576655687E+03    0.41730E-02   -0.32715E+00  3920   0.389E+00    0.329E-01
DAV:   2    -0.851582644483E+03   -0.59888E-02   -0.71738E-02  4000   0.517E-01    0.248E-01
DAV:   3    -0.851582217448E+03    0.42704E-03   -0.12896E-03  4660   0.820E-02    0.192E-01
DAV:   4    -0.851582176490E+03    0.40957E-04   -0.19085E-03  4520   0.107E-01    0.507E-02
DAV:   5    -0.851582233465E+03   -0.56975E-04   -0.39746E-04  4340   0.391E-02    0.313E-02
DAV:   6    -0.851582229077E+03    0.43881E-05   -0.91859E-05  4060   0.263E-02    0.128E-02
DAV:   7    -0.851582234711E+03   -0.56337E-05   -0.20639E-05  4480   0.925E-03    0.861E-03
DAV:   8    -0.851582234379E+03    0.33143E-06   -0.65101E-06  3970   0.900E-03
  35 F= -.85949894E+03 E0= -.85949894E+03  d E =-.107716E-02  mag=    -0.0000
       N       E                     dE             d eps       ncg     rms          rms(c)
DAV:   1    -0.851583648158E+03   -0.14134E-02   -0.87199E-02  4100   0.535E-01    0.616E-02
DAV:   2    -0.851583835632E+03   -0.18747E-03   -0.25779E-03  4160   0.740E-02    0.588E-02
DAV:   3    -0.851583805802E+03    0.29830E-04   -0.38996E-05  4700   0.122E-02    0.510E-02
DAV:   4    -0.851583778748E+03    0.27054E-04   -0.12038E-04  3980   0.206E-02    0.177E-02
DAV:   5    -0.851583789318E+03   -0.10570E-04   -0.41923E-05  4400   0.895E-03    0.771E-03
DAV:   6    -0.851583792944E+03   -0.36255E-05   -0.47638E-06  3480   0.466E-03    0.294E-03
DAV:   7    -0.851583793578E+03   -0.63435E-06   -0.47942E-07  2760   0.166E-03
  36 F= -.85950048E+03 E0= -.85950048E+03  d E =-.154549E-02  mag=    -0.0000
       N       E                     dE             d eps       ncg     rms          rms(c)
DAV:   1    -0.851582721007E+03    0.10719E-02   -0.10169E-01  4020   0.615E-01    0.650E-02
DAV:   2    -0.851582934591E+03   -0.21358E-03   -0.28905E-03  4160   0.857E-02    0.602E-02
DAV:   3    -0.851582902800E+03    0.31791E-04   -0.47761E-05  4680   0.138E-02    0.514E-02
DAV:   4    -0.851582880208E+03    0.22592E-04   -0.12850E-04  3940   0.222E-02    0.172E-02
DAV:   5    -0.851582891118E+03   -0.10910E-04   -0.41353E-05  4460   0.928E-03    0.795E-03
DAV:   6    -0.851582894659E+03   -0.35404E-05   -0.41336E-06  3480   0.436E-03    0.331E-03
DAV:   7    -0.851582895573E+03   -0.91402E-06   -0.54074E-07  2700   0.166E-03
  37 F= -.85949955E+03 E0= -.85949955E+03  d E =0.927857E-03  mag=    -0.0000
       N       E                     dE             d eps       ncg     rms          rms(c)
DAV:   1    -0.851583377945E+03   -0.48329E-03   -0.39014E-03  4100   0.113E-01    0.129E-02
DAV:   2    -0.851583385362E+03   -0.74163E-05   -0.11631E-04  4200   0.156E-02    0.126E-02
DAV:   3    -0.851583383194E+03    0.21679E-05   -0.15212E-06  3060   0.252E-03    0.110E-02
DAV:   4    -0.851583383944E+03   -0.74993E-06   -0.76961E-06  3520   0.529E-03
  38 F= -.85950004E+03 E0= -.85950004E+03  d E =-.487025E-03  mag=    -0.0000
       N       E                     dE             d eps       ncg     rms          rms(c)
DAV:   1    -0.851583918049E+03   -0.53486E-03   -0.12307E-02  4120   0.203E-01    0.238E-02
DAV:   2    -0.851583941155E+03   -0.23106E-04   -0.37187E-04  4160   0.279E-02    0.229E-02
DAV:   3    -0.851583935773E+03    0.53821E-05   -0.52650E-06  3640   0.451E-03    0.201E-02
DAV:   4    -0.851583938496E+03   -0.27225E-05   -0.20594E-05  3680   0.862E-03    0.607E-03
DAV:   5    -0.851583940205E+03   -0.17094E-05   -0.54479E-06  3180   0.321E-03    0.304E-03
DAV:   6    -0.851583940749E+03   -0.54397E-06   -0.42095E-07  2460   0.139E-03
  39 F= -.85950059E+03 E0= -.85950059E+03  d E =-.553811E-03  mag=     0.0000
       N       E                     dE             d eps       ncg     rms          rms(c)
DAV:   1    -0.851584066109E+03   -0.12590E-03   -0.17820E-02  4100   0.249E-01    0.276E-02
DAV:   2    -0.851584102629E+03   -0.36520E-04   -0.54156E-04  4140   0.347E-02    0.263E-02
DAV:   3    -0.851584095166E+03    0.74633E-05   -0.81911E-06  4220   0.557E-03    0.228E-02
DAV:   4    -0.851584095598E+03   -0.43188E-06   -0.24961E-05  3800   0.956E-03    0.764E-03
DAV:   5    -0.851584098105E+03   -0.25075E-05   -0.78258E-06  3760   0.392E-03    0.348E-03
DAV:   6    -0.851584098748E+03   -0.64301E-06   -0.60234E-07  2540   0.158E-03
  40 F= -.85950075E+03 E0= -.85950075E+03  d E =-.152529E-03  mag=    -0.0000
       N       E                     dE             d eps       ncg     rms          rms(c)
DAV:   1    -0.851584106617E+03   -0.85119E-05   -0.17152E-05  3840   0.865E-03    0.141E-03
DAV:   2    -0.851584106632E+03   -0.15236E-07   -0.41369E-07  2520   0.127E-03
  41 F= -.85950075E+03 E0= -.85950075E+03  d E =-.747211E-05  mag=    -0.0000
       N       E                     dE             d eps       ncg     rms          rms(c)
DAV:   1    -0.851584120934E+03   -0.14316E-04   -0.66964E-05  4000   0.171E-02    0.223E-03
DAV:   2    -0.851584120976E+03   -0.42164E-07   -0.15219E-06  2780   0.234E-03
  42 F= -.85950077E+03 E0= -.85950077E+03  d E =-.134751E-04  mag=     0.0000
       N       E                     dE             d eps       ncg     rms          rms(c)
DAV:   1    -0.851584140591E+03   -0.19657E-04   -0.14423E-04  4000   0.252E-02    0.352E-03
DAV:   2    -0.851584140619E+03   -0.28216E-07   -0.31992E-06  3230   0.338E-03
  43 F= -.85950079E+03 E0= -.85950079E+03  d E =-.183393E-04  mag=     0.0000
       N       E                     dE             d eps       ncg     rms          rms(c)
DAV:   1    -0.851584163728E+03   -0.23137E-04   -0.24176E-04  3940   0.328E-02    0.478E-03
DAV:   2    -0.851584163787E+03   -0.59321E-07   -0.53997E-06  3990   0.439E-03
  44 F= -.85950081E+03 E0= -.85950081E+03  d E =-.213710E-04  mag=     0.0000
       N       E                     dE             d eps       ncg     rms          rms(c)
DAV:   1    -0.851584188858E+03   -0.25130E-04   -0.35096E-04  3940   0.397E-02    0.594E-03
DAV:   2    -0.851584188915E+03   -0.57305E-07   -0.75207E-06  4210   0.524E-03
  45 F= -.85950083E+03 E0= -.85950083E+03  d E =-.227566E-04  mag=    -0.0000
       N       E                     dE             d eps       ncg     rms          rms(c)
DAV:   1    -0.851584215110E+03   -0.26252E-04   -0.46498E-04  3920   0.460E-02    0.689E-03
DAV:   2    -0.851584215223E+03   -0.11303E-06   -0.96978E-06  4330   0.604E-03
  46 F= -.85950085E+03 E0= -.85950085E+03  d E =-.233801E-04  mag=     0.0000
       N       E                     dE             d eps       ncg     rms          rms(c)
DAV:   1    -0.851584246217E+03   -0.31107E-04   -0.71983E-04  3880   0.576E-02    0.812E-03
DAV:   2    -0.851584246569E+03   -0.35229E-06   -0.14728E-05  4250   0.752E-03    0.678E-03
DAV:   3    -0.851584246707E+03   -0.13756E-06   -0.49647E-07  2580   0.175E-03
  47 F= -.85950088E+03 E0= -.85950088E+03  d E =-.275531E-04  mag=    -0.0000
       N       E                     dE             d eps       ncg     rms          rms(c)
DAV:   1    -0.851584284615E+03   -0.38046E-04   -0.10798E-03  3880   0.707E-02    0.639E-03
DAV:   2    -0.851584286138E+03   -0.15230E-05   -0.21455E-05  4120   0.899E-03    0.498E-03
DAV:   3    -0.851584286078E+03    0.60412E-07   -0.31533E-07  2560   0.141E-03
  48 F= -.85950092E+03 E0= -.85950092E+03  d E =-.341680E-04  mag=     0.0000
       N       E                     dE             d eps       ncg     rms          rms(c)
DAV:   1    -0.851584334504E+03   -0.48366E-04   -0.16530E-03  3880   0.875E-02    0.767E-03
DAV:   2    -0.851584337015E+03   -0.25106E-05   -0.33240E-05  3940   0.112E-02    0.588E-03
DAV:   3    -0.851584336882E+03    0.13271E-06   -0.49933E-07  2640   0.178E-03
  49 F= -.85950096E+03 E0= -.85950096E+03  d E =-.440994E-04  mag=     0.0000
       N       E                     dE             d eps       ncg     rms          rms(c)
DAV:   1    -0.851584400107E+03   -0.63092E-04   -0.25058E-03  3880   0.108E-01    0.944E-03
DAV:   2    -0.851584403974E+03   -0.38673E-05   -0.50085E-05  3840   0.137E-02    0.719E-03
DAV:   3    -0.851584403796E+03    0.17858E-06   -0.75355E-07  2780   0.218E-03
  50 F= -.85950102E+03 E0= -.85950102E+03  d E =-.582849E-04  mag=     0.0000
       N       E                     dE             d eps       ncg     rms          rms(c)
DAV:   1    -0.851584486333E+03   -0.82359E-04   -0.38812E-03  3880   0.134E-01    0.118E-02
DAV:   2    -0.851584492448E+03   -0.61146E-05   -0.78026E-05  3840   0.171E-02    0.895E-03
DAV:   3    -0.851584492187E+03    0.26076E-06   -0.12880E-06  3140   0.272E-03
  51 F= -.85950110E+03 E0= -.85950110E+03  d E =-.776305E-04  mag=     0.0000
       N       E                     dE             d eps       ncg     rms          rms(c)
DAV:   1    -0.851584593114E+03   -0.10067E-03   -0.60825E-03  3880   0.168E-01    0.148E-02
DAV:   2    -0.851584602839E+03   -0.97253E-05   -0.12327E-04  3840   0.215E-02    0.113E-02
DAV:   3    -0.851584602423E+03    0.41640E-06   -0.21192E-06  3460   0.343E-03
  52 F= -.85950119E+03 E0= -.85950119E+03  d E =-.968279E-04  mag=     0.0000
       N       E                     dE             d eps       ncg     rms          rms(c)
DAV:   1    -0.851584716618E+03   -0.11378E-03   -0.94105E-03  3880   0.209E-01    0.185E-02
DAV:   2    -0.851584731541E+03   -0.14923E-04   -0.19001E-04  3840   0.267E-02    0.142E-02
DAV:   3    -0.851584730873E+03    0.66868E-06   -0.34532E-06  3860   0.430E-03
  53 F= -.85950130E+03 E0= -.85950130E+03  d E =-.112115E-03  mag=    -0.0000
       N       E                     dE             d eps       ncg     rms          rms(c)
DAV:   1    -0.851584864323E+03   -0.13278E-03   -0.14436E-02  3880   0.258E-01    0.230E-02
DAV:   2    -0.851584886804E+03   -0.22482E-04   -0.28888E-04  3840   0.329E-02    0.176E-02
DAV:   3    -0.851584885820E+03    0.98448E-06   -0.54030E-06  4380   0.533E-03
  54 F= -.85950144E+03 E0= -.85950144E+03  d E =-.134924E-03  mag=    -0.0000
       N       E                     dE             d eps       ncg     rms          rms(c)
DAV:   1    -0.851585043767E+03   -0.15696E-03   -0.21795E-02  3880   0.317E-01    0.283E-02
DAV:   2    -0.851585076628E+03   -0.32861E-04   -0.43079E-04  3840   0.403E-02    0.217E-02
DAV:   3    -0.851585075051E+03    0.15762E-05   -0.82642E-06  4680   0.657E-03    0.163E-02
DAV:   4    -0.851585078671E+03   -0.36192E-05   -0.10417E-05  3700   0.790E-03    0.382E-03
DAV:   5    -0.851585079025E+03   -0.35480E-06   -0.26475E-06  3420   0.307E-03
  55 F= -.85950161E+03 E0= -.85950161E+03  d E =-.167940E-03  mag=     0.0000
       N       E                     dE             d eps       ncg     rms          rms(c)
DAV:   1    -0.851585261097E+03   -0.18243E-03   -0.34245E-02  3920   0.397E-01    0.335E-02
DAV:   2    -0.851585317044E+03   -0.55947E-04   -0.72167E-04  3840   0.524E-02    0.254E-02
DAV:   3    -0.851585312835E+03    0.42097E-05   -0.13481E-05  4720   0.842E-03    0.194E-02
DAV:   4    -0.851585316859E+03   -0.40242E-05   -0.20175E-05  3700   0.108E-02    0.485E-03
DAV:   5    -0.851585317415E+03   -0.55596E-06   -0.44571E-06  3940   0.402E-03
  56 F= -.85950181E+03 E0= -.85950181E+03  d E =-.206786E-03  mag=    -0.0000
       N       E                     dE             d eps       ncg     rms          rms(c)
DAV:   1    -0.851585508598E+03   -0.19174E-03   -0.51978E-02  3920   0.489E-01    0.413E-02
DAV:   2    -0.851585593358E+03   -0.84759E-04   -0.10988E-03  3840   0.645E-02    0.313E-02
DAV:   3    -0.851585587038E+03    0.63196E-05   -0.20135E-05  4720   0.103E-02    0.239E-02
DAV:   4    -0.851585593943E+03   -0.69054E-05   -0.30846E-05  3800   0.134E-02    0.588E-03
DAV:   5    -0.851585594795E+03   -0.85159E-06   -0.67643E-06  4140   0.498E-03
  57 F= -.85950205E+03 E0= -.85950205E+03  d E =-.238413E-03  mag=    -0.0000
       N       E                     dE             d eps       ncg     rms          rms(c)
DAV:   1    -0.851585798310E+03   -0.20437E-03   -0.77035E-02  3920   0.595E-01    0.501E-02
DAV:   2    -0.851585925274E+03   -0.12696E-03   -0.16280E-03  3840   0.783E-02    0.378E-02
DAV:   3    -0.851585916474E+03    0.88004E-05   -0.29522E-05  4680   0.125E-02    0.289E-02
DAV:   4    -0.851585925995E+03   -0.95212E-05   -0.45267E-05  4060   0.161E-02    0.699E-03
DAV:   5    -0.851585927040E+03   -0.10447E-05   -0.93858E-06  4320   0.598E-03    0.441E-03
DAV:   6    -0.851585927101E+03   -0.61293E-07   -0.18440E-06  3040   0.348E-03
  58 F= -.85950234E+03 E0= -.85950234E+03  d E =-.284988E-03  mag=     0.0000
       N       E                     dE             d eps       ncg     rms          rms(c)
DAV:   1    -0.851586150335E+03   -0.22329E-03   -0.11496E-01  3920   0.727E-01    0.604E-02
DAV:   2    -0.851586342787E+03   -0.19245E-03   -0.24359E-03  3840   0.956E-02    0.453E-02
DAV:   3    -0.851586329643E+03    0.13143E-04   -0.43546E-05  4640   0.152E-02    0.345E-02
DAV:   4    -0.851586340624E+03   -0.10980E-04   -0.67116E-05  4240   0.195E-02    0.843E-03
DAV:   5    -0.851586341994E+03   -0.13706E-05   -0.13452E-05  4280   0.723E-03    0.526E-03
DAV:   6    -0.851586342161E+03   -0.16699E-06   -0.26174E-06  3220   0.409E-03
  59 F= -.85950269E+03 E0= -.85950269E+03  d E =-.357044E-03  mag=    -0.0000
       N       E                     dE             d eps       ncg     rms          rms(c)
DAV:   1    -0.851586551768E+03   -0.20977E-03   -0.17289E-01  3920   0.891E-01    0.741E-02
DAV:   2    -0.851586841515E+03   -0.28975E-03   -0.36828E-03  3860   0.118E-01    0.554E-02
DAV:   3    -0.851586822114E+03    0.19401E-04   -0.65125E-05  4640   0.186E-02    0.423E-02
DAV:   4    -0.851586840019E+03   -0.17905E-04   -0.99850E-05  4340   0.240E-02    0.104E-02
DAV:   5    -0.851586842365E+03   -0.23458E-05   -0.19739E-05  4300   0.877E-03    0.653E-03
DAV:   6    -0.851586842535E+03   -0.16960E-06   -0.40397E-06  3540   0.516E-03
  60 F= -.85950313E+03 E0= -.85950313E+03  d E =-.430706E-03  mag=    -0.0000
       N       E                     dE             d eps       ncg     rms          rms(c)
DAV:   1    -0.851587037391E+03   -0.19503E-03   -0.25928E-01  3920   0.109E+00    0.906E-02
DAV:   2    -0.851587468225E+03   -0.43083E-03   -0.55185E-03  3880   0.144E-01    0.678E-02
DAV:   3    -0.851587437760E+03    0.30465E-04   -0.97727E-05  4680   0.227E-02    0.519E-02
DAV:   4    -0.851587467356E+03   -0.29595E-04   -0.14925E-04  4400   0.293E-02    0.130E-02
DAV:   5    -0.851587471792E+03   -0.44362E-05   -0.28933E-05  4320   0.106E-02    0.809E-03
DAV:   6    -0.851587472312E+03   -0.52043E-06   -0.61474E-06  3600   0.639E-03
  61 F= -.85950367E+03 E0= -.85950367E+03  d E =-.545497E-03  mag=    -0.0000
       N       E                     dE             d eps       ncg     rms          rms(c)
DAV:   1    -0.851587589514E+03   -0.11772E-03   -0.38815E-01  3920   0.134E+00    0.111E-01
DAV:   2    -0.851588235285E+03   -0.64577E-03   -0.82402E-03  3880   0.176E-01    0.830E-02
DAV:   3    -0.851588187833E+03    0.47452E-04   -0.14626E-04  4680   0.277E-02    0.636E-02
DAV:   4    -0.851588228807E+03   -0.40974E-04   -0.22710E-04  4480   0.362E-02    0.158E-02
DAV:   5    -0.851588235246E+03   -0.64387E-05   -0.43661E-05  4280   0.131E-02    0.995E-03
DAV:   6    -0.851588236143E+03   -0.89737E-06   -0.92134E-06  3620   0.786E-03
  62 F= -.85950433E+03 E0= -.85950433E+03  d E =-.655360E-03  mag=     0.0000
       N       E                     dE             d eps       ncg     rms          rms(c)
DAV:   1    -0.851588219669E+03    0.15577E-04   -0.57919E-01  3920   0.163E+00    0.135E-01
DAV:   2    -0.851589205105E+03   -0.98544E-03   -0.12311E-02  3880   0.215E-01    0.101E-01
DAV:   3    -0.851589133919E+03    0.71186E-04   -0.21611E-04  4640   0.337E-02    0.769E-02
DAV:   4    -0.851589179572E+03   -0.45653E-04   -0.33430E-04  4460   0.439E-02    0.191E-02
DAV:   5    -0.851589189171E+03   -0.95993E-05   -0.64189E-05  4260   0.159E-02    0.120E-02
DAV:   6    -0.851589190243E+03   -0.10723E-05   -0.13753E-05  3760   0.964E-03    0.504E-03
DAV:   7    -0.851589191377E+03   -0.11334E-05   -0.30255E-06  3880   0.362E-03    0.316E-03
DAV:   8    -0.851589191329E+03    0.47898E-07   -0.88158E-07  2900   0.354E-03
  63 F= -.85950514E+03 E0= -.85950514E+03  d E =-.817875E-03  mag=    -0.0000
       N       E                     dE             d eps       ncg     rms          rms(c)
DAV:   1    -0.851588851046E+03    0.34033E-03   -0.87000E-01  3920   0.200E+00    0.165E-01
DAV:   2    -0.851590366305E+03   -0.15153E-02   -0.18549E-02  3920   0.263E-01    0.122E-01
DAV:   3    -0.851590258908E+03    0.10740E-03   -0.32134E-04  4640   0.409E-02    0.934E-02
DAV:   4    -0.851590297824E+03   -0.38915E-04   -0.48293E-04  4460   0.524E-02    0.235E-02
DAV:   5    -0.851590314350E+03   -0.16527E-04   -0.93320E-05  4280   0.190E-02    0.145E-02
DAV:   6    -0.851590316508E+03   -0.21581E-05   -0.20014E-05  3800   0.115E-02    0.605E-03
DAV:   7    -0.851590318425E+03   -0.19172E-05   -0.44094E-06  4080   0.433E-03    0.379E-03
DAV:   8    -0.851590318435E+03   -0.91313E-08   -0.13905E-06  3220   0.432E-03
  64 F= -.85950611E+03 E0= -.85950611E+03  d E =-.964013E-03  mag=    -0.0000
       N       E                     dE             d eps       ncg     rms          rms(c)
DAV:   1    -0.851589462420E+03    0.85601E-03   -0.12532E+00  3920   0.240E+00    0.198E-01
DAV:   2    -0.851591660251E+03   -0.21978E-02   -0.26659E-02  3940   0.315E-01    0.147E-01
DAV:   3    -0.851591502653E+03    0.15760E-03   -0.47036E-04  4680   0.494E-02    0.113E-01
DAV:   4    -0.851591532684E+03   -0.30032E-04   -0.70493E-04  4500   0.631E-02    0.286E-02
DAV:   5    -0.851591555666E+03   -0.22982E-04   -0.13613E-04  4280   0.229E-02    0.175E-02
DAV:   6    -0.851591559245E+03   -0.35790E-05   -0.29270E-05  3760   0.138E-02    0.735E-03
DAV:   7    -0.851591562642E+03   -0.33974E-05   -0.62941E-06  4240   0.516E-03    0.449E-03
DAV:   8    -0.851591562784E+03   -0.14156E-06   -0.18761E-06  3460   0.492E-03
  65 F= -.85950714E+03 E0= -.85950714E+03  d E =-.103240E-02  mag=     0.0000
       N       E                     dE             d eps       ncg     rms          rms(c)
DAV:   1    -0.851590184092E+03    0.13786E-02   -0.17417E+00  3920   0.283E+00    0.235E-01
DAV:   2    -0.851593221040E+03   -0.30369E-02   -0.36694E-02  3940   0.372E-01    0.176E-01
DAV:   3    -0.851592993594E+03    0.22745E-03   -0.66795E-04  4600   0.592E-02    0.134E-01
DAV:   4    -0.851593009281E+03   -0.15687E-04   -0.10179E-03  4460   0.759E-02    0.334E-02
DAV:   5    -0.851593035327E+03   -0.26046E-04   -0.19938E-04  4280   0.279E-02    0.206E-02
DAV:   6    -0.851593038457E+03   -0.31300E-05   -0.40158E-05  3900   0.160E-02    0.863E-03
DAV:   7    -0.851593041897E+03   -0.34406E-05   -0.84231E-06  4400   0.594E-03    0.527E-03
DAV:   8    -0.851593041965E+03   -0.67819E-07   -0.25084E-06  3540   0.572E-03
  66 F= -.85950836E+03 E0= -.85950836E+03  d E =-.122166E-02  mag=     0.0000
       N       E                     dE             d eps       ncg     rms          rms(c)
DAV:   1    -0.851590739011E+03    0.23029E-02   -0.23887E+00  3920   0.332E+00    0.279E-01
DAV:   2    -0.851594784429E+03   -0.40454E-02   -0.49639E-02  3960   0.437E-01    0.213E-01
DAV:   3    -0.851594438980E+03    0.34545E-03   -0.98761E-04  4700   0.716E-02    0.162E-01
DAV:   4    -0.851594419846E+03    0.19134E-04   -0.14326E-03  4540   0.897E-02    0.428E-02
DAV:   5    -0.851594464514E+03   -0.44668E-04   -0.29046E-04  4320   0.330E-02    0.255E-02
DAV:   6    -0.851594470657E+03   -0.61428E-05   -0.59062E-05  4000   0.191E-02    0.107E-02
DAV:   7    -0.851594475975E+03   -0.53176E-05   -0.12294E-05  4280   0.711E-03    0.640E-03
DAV:   8    -0.851594475975E+03   -0.87311E-10   -0.36516E-06  3900   0.663E-03
  67 F= -.85950951E+03 E0= -.85950951E+03  d E =-.114772E-02  mag=     0.0000
       N       E                     dE             d eps       ncg     rms          rms(c)
DAV:   1    -0.851589542879E+03    0.49331E-02   -0.33339E+00  3920   0.395E+00    0.329E-01
DAV:   2    -0.851595491854E+03   -0.59490E-02   -0.71755E-02  4000   0.530E-01    0.257E-01
DAV:   3    -0.851594989699E+03    0.50215E-03   -0.14396E-03  4760   0.869E-02    0.197E-01
DAV:   4    -0.851594849446E+03    0.14025E-03   -0.21204E-03  4500   0.113E-01    0.532E-02
DAV:   5    -0.851594904118E+03   -0.54673E-04   -0.46793E-04  4280   0.420E-02    0.319E-02
DAV:   6    -0.851594906085E+03   -0.19666E-05   -0.84242E-05  4080   0.241E-02    0.131E-02
DAV:   7    -0.851594912488E+03   -0.64025E-05   -0.18072E-05  4460   0.856E-03    0.858E-03
DAV:   8    -0.851594912498E+03   -0.10514E-07   -0.54867E-06  3880   0.814E-03
  68 F= -.85950958E+03 E0= -.85950958E+03  d E =-.720809E-04  mag=    -0.0000
       N       E                     dE             d eps       ncg     rms          rms(c)
DAV:   1    -0.851596715683E+03   -0.18032E-02   -0.10332E-01  4040   0.684E-01    0.700E-02
DAV:   2    -0.851596922929E+03   -0.20725E-03   -0.29517E-03  4360   0.992E-02    0.650E-02
DAV:   3    -0.851596884298E+03    0.38631E-04   -0.85102E-05  4980   0.191E-02    0.542E-02
DAV:   4    -0.851596846505E+03    0.37793E-04   -0.10173E-04  4100   0.223E-02    0.236E-02
DAV:   5    -0.851596853990E+03   -0.74853E-05   -0.46834E-05  4120   0.125E-02    0.921E-03
DAV:   6    -0.851596856407E+03   -0.24167E-05   -0.68989E-06  3960   0.597E-03    0.337E-03
DAV:   7    -0.851596856636E+03   -0.22915E-06   -0.47266E-07  2640   0.195E-03
  69 F= -.85951153E+03 E0= -.85951153E+03  d E =-.195169E-02  mag=     0.0000
       N       E                     dE             d eps       ncg     rms          rms(c)
DAV:   1    -0.851595354763E+03    0.15016E-02   -0.10016E-01  4040   0.693E-01    0.676E-02
DAV:   2    -0.851595555592E+03   -0.20083E-03   -0.28113E-03  4300   0.101E-01    0.618E-02
DAV:   3    -0.851595521643E+03    0.33949E-04   -0.87429E-05  4960   0.194E-02    0.512E-02
DAV:   4    -0.851595492621E+03    0.29022E-04   -0.85736E-05  4080   0.212E-02    0.228E-02
DAV:   5    -0.851595500431E+03   -0.78102E-05   -0.42757E-05  4100   0.123E-02    0.915E-03
DAV:   6    -0.851595502142E+03   -0.17113E-05   -0.73172E-06  4000   0.662E-03    0.352E-03
DAV:   7    -0.851595502428E+03   -0.28513E-06   -0.62505E-07  2640   0.215E-03
  70 F= -.85951018E+03 E0= -.85951018E+03  d E =0.135347E-02  mag=    -0.0000
       N       E                     dE             d eps       ncg     rms          rms(c)
DAV:   1    -0.851596157505E+03   -0.65536E-03   -0.51185E-03  4040   0.152E-01    0.153E-02
DAV:   2    -0.851596167161E+03   -0.96567E-05   -0.14397E-04  4220   0.218E-02    0.144E-02
DAV:   3    -0.851596164946E+03    0.22152E-05   -0.36321E-06  3500   0.403E-03    0.122E-02
DAV:   4    -0.851596163828E+03    0.11182E-05   -0.84155E-06  3780   0.623E-03    0.449E-03
DAV:   5    -0.851596164164E+03   -0.33613E-06   -0.17222E-06  2820   0.235E-03
  71 F= -.85951084E+03 E0= -.85951084E+03  d E =-.659989E-03  mag=    -0.0000
       N       E                     dE             d eps       ncg     rms          rms(c)
DAV:   1    -0.851596866599E+03   -0.70277E-03   -0.15984E-02  4040   0.268E-01    0.272E-02
DAV:   2    -0.851596897795E+03   -0.31196E-04   -0.45516E-04  4300   0.387E-02    0.251E-02
DAV:   3    -0.851596891337E+03    0.64583E-05   -0.12666E-05  4920   0.728E-03    0.210E-02
DAV:   4    -0.851596888666E+03    0.26710E-05   -0.16512E-05  3860   0.894E-03    0.870E-03
DAV:   5    -0.851596890094E+03   -0.14285E-05   -0.63563E-06  3680   0.452E-03    0.355E-03
DAV:   6    -0.851596890477E+03   -0.38296E-06   -0.58340E-07  2520   0.164E-03
  72 F= -.85951156E+03 E0= -.85951156E+03  d E =-.722643E-03  mag=    -0.0000
       N       E                     dE             d eps       ncg     rms          rms(c)
DAV:   1    -0.851597002359E+03   -0.11226E-03   -0.22866E-02  3980   0.323E-01    0.322E-02
DAV:   2    -0.851597047911E+03   -0.45551E-04   -0.65420E-04  4400   0.467E-02    0.298E-02
DAV:   3    -0.851597039003E+03    0.89078E-05   -0.18289E-05  4920   0.874E-03    0.249E-02
DAV:   4    -0.851597034729E+03    0.42738E-05   -0.23263E-05  3940   0.107E-02    0.103E-02
DAV:   5    -0.851597036782E+03   -0.20531E-05   -0.91819E-06  3900   0.541E-03    0.418E-03
DAV:   6    -0.851597037258E+03   -0.47528E-06   -0.84005E-07  2580   0.190E-03
  73 F= -.85951170E+03 E0= -.85951170E+03  d E =-.140493E-03  mag=     0.0000
       N       E                     dE             d eps       ncg     rms          rms(c)
DAV:   1    -0.851597047569E+03   -0.10786E-04   -0.20570E-05  3860   0.101E-02    0.163E-03
DAV:   2    -0.851597047590E+03   -0.21064E-07   -0.53755E-07  2460   0.157E-03
  74 F= -.85951171E+03 E0= -.85951171E+03  d E =-.992426E-05  mag=     0.0000
       N       E                     dE             d eps       ncg     rms          rms(c)
DAV:   1    -0.851597066317E+03   -0.18749E-04   -0.78687E-05  4060   0.197E-02    0.248E-03
DAV:   2    -0.851597066390E+03   -0.72912E-07   -0.18702E-06  2740   0.282E-03
  75 F= -.85951173E+03 E0= -.85951173E+03  d E =-.179838E-04  mag=     0.0000
       N       E                     dE             d eps       ncg     rms          rms(c)
DAV:   1    -0.851597090505E+03   -0.24188E-04   -0.16728E-04  4000   0.288E-02    0.397E-03
DAV:   2    -0.851597090621E+03   -0.11586E-06   -0.41114E-06  3780   0.408E-03
  76 F= -.85951175E+03 E0= -.85951175E+03  d E =-.230324E-04  mag=    -0.0000
       N       E                     dE             d eps       ncg     rms          rms(c)
DAV:   1    -0.851597116972E+03   -0.26466E-04   -0.27419E-04  4040   0.368E-02    0.541E-03
DAV:   2    -0.851597117120E+03   -0.14821E-06   -0.64986E-06  4260   0.510E-03
  77 F= -.85951178E+03 E0= -.85951178E+03  d E =-.249030E-04  mag=    -0.0000
       N       E                     dE             d eps       ncg     rms          rms(c)
DAV:   1    -0.851597142767E+03   -0.25795E-04   -0.38878E-04  3980   0.439E-02    0.658E-03
DAV:   2    -0.851597142960E+03   -0.19300E-06   -0.89827E-06  4340   0.603E-03
  78 F= -.85951180E+03 E0= -.85951180E+03  d E =-.238867E-04  mag=    -0.0000
       N       E                     dE             d eps       ncg     rms          rms(c)
DAV:   1    -0.851597166303E+03   -0.23536E-04   -0.50239E-04  3900   0.499E-02    0.752E-03
DAV:   2    -0.851597166566E+03   -0.26292E-06   -0.11221E-05  4440   0.678E-03    0.645E-03
DAV:   3    -0.851597166470E+03    0.96661E-07   -0.54256E-07  2460   0.183E-03
  79 F= -.85951182E+03 E0= -.85951182E+03  d E =-.211827E-04  mag=    -0.0000
       N       E                     dE             d eps       ncg     rms          rms(c)
DAV:   1    -0.851597189406E+03   -0.22840E-04   -0.74421E-04  3880   0.604E-02    0.556E-03
DAV:   2    -0.851597190526E+03   -0.11198E-05   -0.15833E-05  4300   0.794E-03    0.456E-03
DAV:   3    -0.851597190450E+03    0.75474E-07   -0.28695E-07  2300   0.133E-03
  80 F= -.85951184E+03 E0= -.85951184E+03  d E =-.209834E-04  mag=    -0.0000
       N       E                     dE             d eps       ncg     rms          rms(c)
DAV:   1    -0.851597215076E+03   -0.24550E-04   -0.10745E-03  3880   0.722E-02    0.641E-03
DAV:   2    -0.851597216725E+03   -0.16490E-05   -0.22610E-05  4180   0.948E-03    0.513E-03
DAV:   3    -0.851597216605E+03    0.12008E-06   -0.40393E-07  2440   0.160E-03
  81 F= -.85951187E+03 E0= -.85951187E+03  d E =-.224195E-04  mag=    -0.0000
       N       E                     dE             d eps       ncg     rms          rms(c)
DAV:   1    -0.851597250558E+03   -0.33833E-04   -0.15443E-03  3880   0.860E-02    0.759E-03
DAV:   2    -0.851597252885E+03   -0.23268E-05   -0.31376E-05  3920   0.111E-02    0.596E-03
DAV:   3    -0.851597252750E+03    0.13549E-06   -0.51621E-07  2700   0.184E-03
  82 F= -.85951190E+03 E0= -.85951190E+03  d E =-.316263E-04  mag=    -0.0000
       N       E                     dE             d eps       ncg     rms          rms(c)
DAV:   1    -0.851597301359E+03   -0.48474E-04   -0.23155E-03  3880   0.105E-01    0.913E-03
DAV:   2    -0.851597304893E+03   -0.35340E-05   -0.46541E-05  3840   0.135E-02    0.710E-03
DAV:   3    -0.851597304703E+03    0.18960E-06   -0.74806E-07  2720   0.222E-03
  83 F= -.85951195E+03 E0= -.85951195E+03  d E =-.464830E-04  mag=    -0.0000
       N       E                     dE             d eps       ncg     rms          rms(c)
DAV:   1    -0.851597370256E+03   -0.65363E-04   -0.35963E-03  3880   0.131E-01    0.113E-02
DAV:   2    -0.851597375855E+03   -0.55986E-05   -0.73051E-05  3840   0.170E-02    0.888E-03
DAV:   3    -0.851597375536E+03    0.31901E-06   -0.12580E-06  3100   0.277E-03
  84 F= -.85951201E+03 E0= -.85951201E+03  d E =-.641674E-04  mag=    -0.0000
       N       E                     dE             d eps       ncg     rms          rms(c)
DAV:   1    -0.851597452935E+03   -0.77080E-04   -0.56573E-03  3880   0.164E-01    0.143E-02
DAV:   2    -0.851597461758E+03   -0.88230E-05   -0.11553E-04  3880   0.213E-02    0.113E-02
DAV:   3    -0.851597461218E+03    0.54014E-06   -0.21047E-06  3380   0.350E-03
  85 F= -.85951209E+03 E0= -.85951209E+03  d E =-.772474E-04  mag=     0.0000
       N       E                     dE             d eps       ncg     rms          rms(c)
DAV:   1    -0.851597546646E+03   -0.84888E-04   -0.87771E-03  3880   0.205E-01    0.179E-02
DAV:   2    -0.851597560212E+03   -0.13566E-04   -0.17861E-04  3860   0.265E-02    0.141E-02
DAV:   3    -0.851597559426E+03    0.78537E-06   -0.34588E-06  3840   0.436E-03
  86 F= -.85951217E+03 E0= -.85951217E+03  d E =-.872996E-04  mag=    -0.0000
       N       E                     dE             d eps       ncg     rms          rms(c)
DAV:   1    -0.851597654948E+03   -0.94737E-04   -0.13153E-02  3880   0.250E-01    0.220E-02
DAV:   2    -0.851597674816E+03   -0.19868E-04   -0.26326E-04  3840   0.322E-02    0.172E-02
DAV:   3    -0.851597673702E+03    0.11147E-05   -0.52347E-06  4380   0.533E-03    0.131E-02
DAV:   4    -0.851597675831E+03   -0.21290E-05   -0.65820E-06  3620   0.647E-03    0.331E-03
DAV:   5    -0.851597676131E+03   -0.30070E-06   -0.17280E-06  3040   0.251E-03
  87 F= -.85951228E+03 E0= -.85951228E+03  d E =-.102651E-03  mag=     0.0000
       N       E                     dE             d eps       ncg     rms          rms(c)
DAV:   1    -0.851597799602E+03   -0.12377E-03   -0.19972E-02  3900   0.307E-01    0.254E-02
DAV:   2    -0.851597832490E+03   -0.32888E-04   -0.42135E-04  3840   0.408E-02    0.195E-02
DAV:   3    -0.851597830119E+03    0.23707E-05   -0.82117E-06  4640   0.668E-03    0.150E-02
DAV:   4    -0.851597831859E+03   -0.17399E-05   -0.11170E-05  3680   0.830E-03    0.405E-03
DAV:   5    -0.851597832258E+03   -0.39877E-06   -0.25864E-06  3200   0.309E-03
  88 F= -.85951241E+03 E0= -.85951241E+03  d E =-.137904E-03  mag=     0.0000
       N       E                     dE             d eps       ncg     rms          rms(c)
DAV:   1    -0.851597986822E+03   -0.15496E-03   -0.30445E-02  3900   0.379E-01    0.313E-02
DAV:   2    -0.851598037218E+03   -0.50396E-04   -0.64509E-04  3840   0.504E-02    0.242E-02
DAV:   3    -0.851598033523E+03    0.36950E-05   -0.12583E-05  4680   0.823E-03    0.186E-02
DAV:   4    -0.851598036177E+03   -0.26547E-05   -0.17079E-05  3720   0.103E-02    0.501E-03
DAV:   5    -0.851598036841E+03   -0.66384E-06   -0.40490E-06  3700   0.385E-03
  89 F= -.85951260E+03 E0= -.85951260E+03  d E =-.180800E-03  mag=    -0.0000
       N       E                     dE             d eps       ncg     rms          rms(c)
DAV:   1    -0.851598197007E+03   -0.16083E-03   -0.46914E-02  3900   0.471E-01    0.388E-02
DAV:   2    -0.851598275523E+03   -0.78516E-04   -0.99687E-04  3860   0.625E-02    0.298E-02
DAV:   3    -0.851598269978E+03    0.55448E-05   -0.19026E-05  4700   0.101E-02    0.230E-02
DAV:   4    -0.851598273987E+03   -0.40090E-05   -0.26408E-05  3740   0.127E-02    0.606E-03
DAV:   5    -0.851598274939E+03   -0.95148E-06   -0.62541E-06  4080   0.478E-03
  90 F= -.85951280E+03 E0= -.85951280E+03  d E =-.207418E-03  mag=     0.0000
       N       E                     dE             d eps       ncg     rms          rms(c)
DAV:   1    -0.851598428569E+03   -0.15458E-03   -0.69147E-02  3900   0.570E-01    0.469E-02
DAV:   2    -0.851598544810E+03   -0.11624E-03   -0.14597E-03  3860   0.754E-02    0.359E-02
DAV:   3    -0.851598536868E+03    0.79417E-05   -0.27216E-05  4600   0.122E-02    0.276E-02
DAV:   4    -0.851598542417E+03   -0.55486E-05   -0.39727E-05  3840   0.155E-02    0.696E-03
DAV:   5    -0.851598543502E+03   -0.10851E-05   -0.90027E-06  4240   0.581E-03    0.438E-03
DAV:   6    -0.851598543457E+03    0.45264E-07   -0.16804E-06  2960   0.341E-03
  91 F= -.85951303E+03 E0= -.85951303E+03  d E =-.230828E-03  mag=     0.0000
       N       E                     dE             d eps       ncg     rms          rms(c)
DAV:   1    -0.851598716504E+03   -0.17300E-03   -0.10016E-01  3920   0.687E-01    0.557E-02
DAV:   2    -0.851598882841E+03   -0.16634E-03   -0.20894E-03  3880   0.906E-02    0.430E-02
DAV:   3    -0.851598869735E+03    0.13106E-04   -0.40078E-05  4580   0.148E-02    0.328E-02
DAV:   4    -0.851598875546E+03   -0.58112E-05   -0.62238E-05  4040   0.189E-02    0.818E-03
DAV:   5    -0.851598876623E+03   -0.10772E-05   -0.13221E-05  4320   0.716E-03    0.507E-03
DAV:   6    -0.851598876774E+03   -0.15103E-06   -0.22665E-06  3080   0.367E-03
  92 F= -.85951332E+03 E0= -.85951332E+03  d E =-.286123E-03  mag=    -0.0000
       N       E                     dE             d eps       ncg     rms          rms(c)
DAV:   1    -0.851599025007E+03   -0.14838E-03   -0.14999E-01  3920   0.840E-01    0.681E-02
DAV:   2    -0.851599273588E+03   -0.24858E-03   -0.31074E-03  3880   0.110E-01    0.526E-02
DAV:   3    -0.851599253524E+03    0.20064E-04   -0.60164E-05  4600   0.181E-02    0.400E-02
DAV:   4    -0.851599261299E+03   -0.77749E-05   -0.93947E-05  4200   0.229E-02    0.986E-03
DAV:   5    -0.851599262643E+03   -0.13436E-05   -0.19352E-05  4300   0.880E-03    0.598E-03
DAV:   6    -0.851599262981E+03   -0.33792E-06   -0.33100E-06  3460   0.422E-03
  93 F= -.85951364E+03 E0= -.85951364E+03  d E =-.322986E-03  mag=    -0.0000
       N       E                     dE             d eps       ncg     rms          rms(c)
DAV:   1    -0.851599370670E+03   -0.10803E-03   -0.21011E-01  3920   0.993E-01    0.811E-02
DAV:   2    -0.851599707178E+03   -0.33651E-03   -0.42566E-03  3880   0.130E-01    0.635E-02
DAV:   3    -0.851599677181E+03    0.29997E-04   -0.87693E-05  4600   0.218E-02    0.480E-02
DAV:   4    -0.851599686745E+03   -0.95633E-05   -0.13627E-04  4360   0.272E-02    0.118E-02
DAV:   5    -0.851599688308E+03   -0.15639E-05   -0.27716E-05  4260   0.105E-02    0.698E-03
DAV:   6    -0.851599688848E+03   -0.54003E-06   -0.47702E-06  3600   0.488E-03
  94 F= -.85951399E+03 E0= -.85951399E+03  d E =-.344624E-03  mag=     0.0000
       N       E                     dE             d eps       ncg     rms          rms(c)
DAV:   1    -0.851599735161E+03   -0.46853E-04   -0.29874E-01  3920   0.118E+00    0.973E-02
DAV:   2    -0.851600200269E+03   -0.46511E-03   -0.59471E-03  3880   0.154E-01    0.771E-02
DAV:   3    -0.851600155527E+03    0.44742E-04   -0.12883E-04  4640   0.263E-02    0.581E-02
DAV:   4    -0.851600167098E+03   -0.11571E-04   -0.20118E-04  4480   0.328E-02    0.143E-02
DAV:   5    -0.851600168912E+03   -0.18147E-05   -0.40462E-05  4260   0.127E-02    0.827E-03
DAV:   6    -0.851600169713E+03   -0.80021E-06   -0.68591E-06  3640   0.575E-03
  95 F= -.85951437E+03 E0= -.85951437E+03  d E =-.380174E-03  mag=    -0.0000
       N       E                     dE             d eps       ncg     rms          rms(c)
DAV:   1    -0.851600125926E+03    0.42987E-04   -0.43298E-01  3920   0.143E+00    0.117E-01
DAV:   2    -0.851600800266E+03   -0.67434E-03   -0.86101E-03  3880   0.186E-01    0.931E-02
DAV:   3    -0.851600735306E+03    0.64960E-04   -0.18619E-04  4560   0.316E-02    0.702E-02
DAV:   4    -0.851600749234E+03   -0.13928E-04   -0.29835E-04  4500   0.402E-02    0.170E-02
DAV:   5    -0.851600751702E+03   -0.24685E-05   -0.58868E-05  4280   0.153E-02    0.101E-02
DAV:   6    -0.851600752897E+03   -0.11944E-05   -0.10176E-05  3660   0.720E-03    0.417E-03
DAV:   7    -0.851600753594E+03   -0.69682E-06   -0.14568E-06  2960   0.252E-03
  96 F= -.85951483E+03 E0= -.85951483E+03  d E =-.466821E-03  mag=     0.0000
       N       E                     dE             d eps       ncg     rms          rms(c)
DAV:   1    -0.851600569294E+03    0.18360E-03   -0.62894E-01  3920   0.172E+00    0.141E-01
DAV:   2    -0.851601543957E+03   -0.97466E-03   -0.12478E-02  3900   0.224E-01    0.113E-01
DAV:   3    -0.851601448732E+03    0.95225E-04   -0.27137E-04  4580   0.381E-02    0.847E-02
DAV:   4    -0.851601464306E+03   -0.15574E-04   -0.42854E-04  4520   0.482E-02    0.207E-02
DAV:   5    -0.851601468293E+03   -0.39871E-05   -0.84579E-05  4300   0.182E-02    0.122E-02
DAV:   6    -0.851601469510E+03   -0.12171E-05   -0.14617E-05  3740   0.866E-03    0.501E-03
DAV:   7    -0.851601470537E+03   -0.10268E-05   -0.22763E-06  3200   0.315E-03    0.296E-03
DAV:   8    -0.851601470572E+03   -0.35405E-07   -0.46051E-07  2500   0.231E-03
  97 F= -.85951541E+03 E0= -.85951541E+03  d E =-.573716E-03  mag=    -0.0000
       N       E                     dE             d eps       ncg     rms          rms(c)
DAV:   1    -0.851601081055E+03    0.38948E-03   -0.90947E-01  3920   0.207E+00    0.171E-01
DAV:   2    -0.851602483038E+03   -0.14020E-02   -0.17997E-02  3900   0.271E-01    0.136E-01
DAV:   3    -0.851602345911E+03    0.13713E-03   -0.39563E-04  4600   0.461E-02    0.102E-01
DAV:   4    -0.851602365539E+03   -0.19628E-04   -0.59865E-04  4540   0.573E-02    0.257E-02
DAV:   5    -0.851602374337E+03   -0.87979E-05   -0.11917E-04  4300   0.214E-02    0.151E-02
DAV:   6    -0.851602375088E+03   -0.75111E-06   -0.21737E-05  3780   0.109E-02    0.615E-03
DAV:   7    -0.851602376555E+03   -0.14676E-05   -0.39813E-06  4080   0.407E-03    0.366E-03
DAV:   8    -0.851602376527E+03    0.27918E-07   -0.80056E-07  2720   0.333E-03
  98 F= -.85951613E+03 E0= -.85951613E+03  d E =-.726546E-03  mag=    -0.0000
       N       E                     dE             d eps       ncg     rms          rms(c)
DAV:   1    -0.851601507562E+03    0.86899E-03   -0.13229E+00  3920   0.250E+00    0.207E-01
DAV:   2    -0.851603566675E+03   -0.20591E-02   -0.26333E-02  3900   0.328E-01    0.164E-01
DAV:   3    -0.851603360413E+03    0.20626E-03   -0.57370E-04  4540   0.559E-02    0.124E-01
DAV:   4    -0.851603383403E+03   -0.22990E-04   -0.88676E-04  4540   0.707E-02    0.314E-02
DAV:   5    -0.851603398387E+03   -0.14984E-04   -0.17897E-04  4300   0.263E-02    0.191E-02
DAV:   6    -0.851603399441E+03   -0.10537E-05   -0.31930E-05  3900   0.139E-02    0.802E-03
DAV:   7    -0.851603401737E+03   -0.22962E-05   -0.70247E-06  4340   0.544E-03    0.482E-03
DAV:   8    -0.851603401714E+03    0.23683E-07   -0.18494E-06  3320   0.480E-03
  99 F= -.85951695E+03 E0= -.85951695E+03  d E =-.816997E-03  mag=     0.0000
       N       E                     dE             d eps       ncg     rms          rms(c)
DAV:   1    -0.851601791297E+03    0.16104E-02   -0.18772E+00  3920   0.299E+00    0.248E-01
DAV:   2    -0.851604740393E+03   -0.29491E-02   -0.37688E-02  3900   0.393E-01    0.198E-01
DAV:   3    -0.851604442739E+03    0.29765E-03   -0.85826E-04  4620   0.675E-02    0.150E-01
DAV:   4    -0.851604443747E+03   -0.10074E-05   -0.11806E-03  4560   0.821E-02    0.410E-02
DAV:   5    -0.851604475432E+03   -0.31686E-04   -0.25112E-04  4320   0.305E-02    0.234E-02
DAV:   6    -0.851604474503E+03    0.92974E-06   -0.46900E-05  4080   0.169E-02    0.962E-03
DAV:   7    -0.851604477836E+03   -0.33332E-05   -0.10768E-05  4380   0.660E-03    0.577E-03
DAV:   8    -0.851604477676E+03    0.15958E-06   -0.25998E-06  3620   0.574E-03
 100 F= -.85951779E+03 E0= -.85951779E+03  d E =-.836872E-03  mag=    -0.0000
       N       E                     dE             d eps       ncg     rms          rms(c)
DAV:   1    -0.851600003400E+03    0.44744E-02   -0.28425E+00  3900   0.368E+00    0.303E-01
DAV:   2    -0.851604845495E+03   -0.48421E-02   -0.60274E-02  4000   0.491E-01    0.247E-01
DAV:   3    -0.851604363355E+03    0.48214E-03   -0.13138E-03  4760   0.827E-02    0.192E-01
DAV:   4    -0.851604245477E+03    0.11788E-03   -0.20547E-03  4540   0.109E-01    0.532E-02
DAV:   5    -0.851604305030E+03   -0.59552E-04   -0.45077E-04  4280   0.404E-02    0.320E-02
DAV:   6    -0.851604310883E+03   -0.58535E-05   -0.71687E-05  4100   0.217E-02    0.132E-02
DAV:   7    -0.851604316017E+03   -0.51336E-05   -0.16059E-05  4420   0.818E-03    0.819E-03
DAV:   8    -0.851604315856E+03    0.16049E-06   -0.52865E-06  3880   0.774E-03
 101 F= -.85951733E+03 E0= -.85951733E+03  d E =0.458239E-03  mag=    -0.0000
       N       E                     dE             d eps       ncg     rms          rms(c)
DAV:   1    -0.851606298476E+03   -0.19825E-02   -0.11935E-01  4060   0.725E-01    0.762E-02
DAV:   2    -0.851606536061E+03   -0.23758E-03   -0.34009E-03  4340   0.105E-01    0.711E-02
DAV:   3    -0.851606488710E+03    0.47350E-04   -0.93356E-05  4860   0.197E-02    0.593E-02
DAV:   4    -0.851606441420E+03    0.47290E-04   -0.13875E-04  4160   0.257E-02    0.251E-02
DAV:   5    -0.851606449599E+03   -0.81792E-05   -0.51276E-05  4220   0.128E-02    0.102E-02
DAV:   6    -0.851606453063E+03   -0.34633E-05   -0.53054E-06  3600   0.489E-03    0.363E-03
DAV:   7    -0.851606453197E+03   -0.13480E-06   -0.41404E-07  2720   0.164E-03
 102 F= -.85951947E+03 E0= -.85951947E+03  d E =-.213496E-02  mag=     0.0000
       N       E                     dE             d eps       ncg     rms          rms(c)
DAV:   1    -0.851604752180E+03    0.17009E-02   -0.10138E-01  4040   0.688E-01    0.692E-02
DAV:   2    -0.851604953412E+03   -0.20123E-03   -0.28468E-03  4340   0.995E-02    0.641E-02
DAV:   3    -0.851604915313E+03    0.38099E-04   -0.81860E-05  4880   0.185E-02    0.534E-02
DAV:   4    -0.851604880668E+03    0.34645E-04   -0.11578E-04  4120   0.240E-02    0.221E-02
DAV:   5    -0.851604888182E+03   -0.75136E-05   -0.40396E-05  4260   0.115E-02    0.939E-03
DAV:   6    -0.851604890591E+03   -0.24089E-05   -0.40601E-06  3240   0.441E-03    0.346E-03
DAV:   7    -0.851604890752E+03   -0.16180E-06   -0.46224E-07  2660   0.167E-03
 103 F= -.85951789E+03 E0= -.85951789E+03  d E =0.157934E-02  mag=    -0.0000
       N       E                     dE             d eps       ncg     rms          rms(c)
DAV:   1    -0.851605641893E+03   -0.75130E-03   -0.61594E-03  4060   0.164E-01    0.170E-02
DAV:   2    -0.851605653127E+03   -0.11234E-04   -0.17243E-04  4220   0.234E-02    0.160E-02
DAV:   3    -0.851605650254E+03    0.28733E-05   -0.44340E-06  3820   0.437E-03    0.134E-02
DAV:   4    -0.851605649190E+03    0.10634E-05   -0.91807E-06  3680   0.649E-03    0.526E-03
DAV:   5    -0.851605649656E+03   -0.46623E-06   -0.22429E-06  3000   0.267E-03
 104 F= -.85951864E+03 E0= -.85951864E+03  d E =-.757361E-03  mag=     0.0000
       N       E                     dE             d eps       ncg     rms          rms(c)
DAV:   1    -0.851606425028E+03   -0.77584E-03   -0.18987E-02  4000   0.287E-01    0.300E-02
DAV:   2    -0.851606461008E+03   -0.35981E-04   -0.53784E-04  4380   0.412E-02    0.277E-02
DAV:   3    -0.851606452943E+03    0.80651E-05   -0.14198E-05  4800   0.767E-03    0.231E-02
DAV:   4    -0.851606450018E+03    0.29251E-05   -0.21870E-05  3860   0.102E-02    0.954E-03
DAV:   5    -0.851606451912E+03   -0.18941E-05   -0.74354E-06  3800   0.481E-03    0.407E-03
DAV:   6    -0.851606452431E+03   -0.51881E-06   -0.60055E-07  2520   0.168E-03
 105 F= -.85951944E+03 E0= -.85951944E+03  d E =-.799420E-03  mag=     0.0000
       N       E                     dE             d eps       ncg     rms          rms(c)
DAV:   1    -0.851606520910E+03   -0.68998E-04   -0.26563E-02  4000   0.341E-01    0.352E-02
DAV:   2    -0.851606572344E+03   -0.51433E-04   -0.75587E-04  4380   0.491E-02    0.325E-02
DAV:   3    -0.851606561656E+03    0.10688E-04   -0.19826E-05  4800   0.907E-03    0.271E-02
DAV:   4    -0.851606556495E+03    0.51603E-05   -0.30430E-05  3980   0.120E-02    0.112E-02
DAV:   5    -0.851606559210E+03   -0.27153E-05   -0.10337E-05  3900   0.566E-03    0.476E-03
DAV:   6    -0.851606559921E+03   -0.71032E-06   -0.82011E-07  2640   0.190E-03
 106 F= -.85951954E+03 E0= -.85951954E+03  d E =-.101119E-03  mag=     0.0000
       N       E                     dE             d eps       ncg     rms          rms(c)
DAV:   1    -0.851606572690E+03   -0.13480E-04   -0.24228E-05  4000   0.108E-02    0.174E-03
DAV:   2    -0.851606572699E+03   -0.86147E-08   -0.60628E-07  2420   0.166E-03
 107 F= -.85951956E+03 E0= -.85951956E+03  d E =-.123593E-04  mag=    -0.0000
       N       E                     dE             d eps       ncg     rms          rms(c)
DAV:   1    -0.851606595566E+03   -0.22876E-04   -0.92067E-05  4100   0.212E-02    0.273E-03
DAV:   2    -0.851606595642E+03   -0.75510E-07   -0.22187E-06  2780   0.304E-03
 108 F= -.85951958E+03 E0= -.85951958E+03  d E =-.220936E-04  mag=    -0.0000
       N       E                     dE             d eps       ncg     rms          rms(c)
DAV:   1    -0.851606624112E+03   -0.28546E-04   -0.19316E-04  4100   0.307E-02    0.450E-03
DAV:   2    -0.851606624232E+03   -0.12016E-06   -0.48838E-06  3860   0.439E-03
 109 F= -.85951961E+03 E0= -.85951961E+03  d E =-.273016E-04  mag=     0.0000
       N       E                     dE             d eps       ncg     rms          rms(c)
DAV:   1    -0.851606652624E+03   -0.28512E-04   -0.30549E-04  4100   0.387E-02    0.606E-03
DAV:   2    -0.851606652733E+03   -0.10958E-06   -0.73468E-06  4200   0.539E-03
 110 F= -.85951963E+03 E0= -.85951963E+03  d E =-.267465E-04  mag=    -0.0000
       N       E                     dE             d eps       ncg     rms          rms(c)
DAV:   1    -0.851606677230E+03   -0.24606E-04   -0.41484E-04  4040   0.453E-02    0.721E-03
DAV:   2    -0.851606677381E+03   -0.15077E-06   -0.96472E-06  4360   0.623E-03
 111 F= -.85951965E+03 E0= -.85951965E+03  d E =-.224070E-04  mag=     0.0000
       N       E                     dE             d eps       ncg     rms          rms(c)
DAV:   1    -0.851606695934E+03   -0.18703E-04   -0.50682E-04  4000   0.502E-02    0.800E-03
DAV:   2    -0.851606696152E+03   -0.21851E-06   -0.11286E-05  4380   0.681E-03    0.693E-03
DAV:   3    -0.851606695944E+03    0.20847E-06   -0.76699E-07  2620   0.213E-03
 112 F= -.85951967E+03 E0= -.85951967E+03  d E =-.157923E-04  mag=    -0.0000
       N       E                     dE             d eps       ncg     rms          rms(c)
DAV:   1    -0.851606710304E+03   -0.14152E-04   -0.69813E-04  3920   0.587E-02    0.560E-03
DAV:   2    -0.851606711372E+03   -0.10676E-05   -0.14737E-05  4300   0.773E-03    0.479E-03
DAV:   3    -0.851606711253E+03    0.11884E-06   -0.29620E-07  2400   0.133E-03
 113 F= -.85951968E+03 E0= -.85951968E+03  d E =-.115950E-04  mag=     0.0000
       N       E                     dE             d eps       ncg     rms          rms(c)
DAV:   1    -0.851606726420E+03   -0.15048E-04   -0.95026E-04  3880   0.681E-02    0.602E-03
DAV:   2    -0.851606727883E+03   -0.14630E-05   -0.19325E-05  4220   0.886E-03    0.497E-03
DAV:   3    -0.851606727738E+03    0.14456E-06   -0.36859E-07  2420   0.151E-03
 114 F= -.85951969E+03 E0= -.85951969E+03  d E =-.117385E-04  mag=     0.0000
       N       E                     dE             d eps       ncg     rms          rms(c)
DAV:   1    -0.851606752029E+03   -0.24146E-04   -0.13441E-03  3880   0.802E-02    0.696E-03
DAV:   2    -0.851606754071E+03   -0.20418E-05   -0.26254E-05  3920   0.102E-02    0.556E-03
DAV:   3    -0.851606753914E+03    0.15678E-06   -0.43955E-07  2680   0.168E-03
 115 F= -.85951971E+03 E0= -.85951971E+03  d E =-.201276E-04  mag=    -0.0000
       N       E                     dE             d eps       ncg     rms          rms(c)
DAV:   1    -0.851606795227E+03   -0.41156E-04   -0.20298E-03  3880   0.982E-02    0.833E-03
DAV:   2    -0.851606798372E+03   -0.31453E-05   -0.39550E-05  3840   0.125E-02    0.654E-03
DAV:   3    -0.851606798164E+03    0.20822E-06   -0.62714E-07  2480   0.202E-03
 116 F= -.85951975E+03 E0= -.85951975E+03  d E =-.367520E-04  mag=     0.0000
       N       E                     dE             d eps       ncg     rms          rms(c)
DAV:   1    -0.851606856833E+03   -0.58461E-04   -0.32254E-03  3880   0.124E-01    0.104E-02
DAV:   2    -0.851606861952E+03   -0.51195E-05   -0.64348E-05  3860   0.159E-02    0.830E-03
DAV:   3    -0.851606861595E+03    0.35774E-06   -0.10698E-06  3000   0.256E-03
 117 F= -.85951980E+03 E0= -.85951980E+03  d E =-.541562E-04  mag=    -0.0000
       N       E                     dE             d eps       ncg     rms          rms(c)
DAV:   1    -0.851606927321E+03   -0.65369E-04   -0.51224E-03  3880   0.156E-01    0.133E-02
DAV:   2    -0.851606935423E+03   -0.81018E-05   -0.10305E-04  3920   0.201E-02    0.107E-02
DAV:   3    -0.851606934838E+03    0.58511E-06   -0.18751E-06  3320   0.325E-03
 118 F= -.85951987E+03 E0= -.85951987E+03  d E =-.617349E-04  mag=     0.0000
       N       E                     dE             d eps       ncg     rms          rms(c)
DAV:   1    -0.851606997722E+03   -0.62299E-04   -0.78788E-03  3880   0.194E-01    0.166E-02
DAV:   2    -0.851607010049E+03   -0.12327E-04   -0.15725E-04  3920   0.249E-02    0.133E-02
DAV:   3    -0.851607009186E+03    0.86232E-06   -0.30032E-06  3780   0.403E-03
 119 F= -.85951993E+03 E0= -.85951993E+03  d E =-.599484E-04  mag=     0.0000
       N       E                     dE             d eps       ncg     rms          rms(c)
DAV:   1    -0.851607076076E+03   -0.66028E-04   -0.11464E-02  3880   0.233E-01    0.201E-02
DAV:   2    -0.851607093652E+03   -0.17576E-04   -0.22333E-04  3840   0.297E-02    0.159E-02
DAV:   3    -0.851607092567E+03    0.10855E-05   -0.42858E-06  4000   0.481E-03    0.121E-02
DAV:   4    -0.851607094049E+03   -0.14827E-05   -0.68674E-06  3540   0.637E-03    0.272E-03
DAV:   5    -0.851607094123E+03   -0.73480E-07   -0.16088E-06  3000   0.249E-03
 120 F= -.85951999E+03 E0= -.85951999E+03  d E =-.676691E-04  mag=    -0.0000
       N       E                     dE             d eps       ncg     rms          rms(c)
DAV:   1    -0.851607185224E+03   -0.91175E-04   -0.16860E-02  3920   0.282E-01    0.232E-02
DAV:   2    -0.851607212838E+03   -0.27614E-04   -0.34627E-04  3840   0.372E-02    0.181E-02
DAV:   3    -0.851607210667E+03    0.21714E-05   -0.67783E-06  4380   0.607E-03    0.138E-02
DAV:   4    -0.851607211476E+03   -0.80906E-06   -0.10662E-05  3580   0.786E-03    0.346E-03
DAV:   5    -0.851607211603E+03   -0.12786E-06   -0.23448E-06  3120   0.299E-03
 121 F= -.85952009E+03 E0= -.85952009E+03  d E =-.972695E-04  mag=    -0.0000
       N       E                     dE             d eps       ncg     rms          rms(c)
DAV:   1    -0.851607321827E+03   -0.11035E-03   -0.25300E-02  3920   0.346E-01    0.287E-02
DAV:   2    -0.851607363745E+03   -0.41918E-04   -0.52594E-04  3840   0.457E-02    0.224E-02
DAV:   3    -0.851607360469E+03    0.32761E-05   -0.10592E-05  4720   0.751E-03    0.172E-02
DAV:   4    -0.851607361503E+03   -0.10345E-05   -0.15238E-05  3700   0.953E-03    0.451E-03
DAV:   5    -0.851607361797E+03   -0.29396E-06   -0.35117E-06  3580   0.361E-03
 122 F= -.85952022E+03 E0= -.85952022E+03  d E =-.126332E-03  mag=    -0.0000
       N       E                     dE             d eps       ncg     rms          rms(c)
DAV:   1    -0.851607465663E+03   -0.10416E-03   -0.38505E-02  3920   0.426E-01    0.355E-02
DAV:   2    -0.851607529940E+03   -0.64277E-04   -0.80502E-04  3840   0.564E-02    0.276E-02
DAV:   3    -0.851607525199E+03    0.47406E-05   -0.15967E-05  4740   0.923E-03    0.211E-02
DAV:   4    -0.851607527044E+03   -0.18454E-05   -0.22518E-05  3720   0.117E-02    0.555E-03
DAV:   5    -0.851607527571E+03   -0.52653E-06   -0.52986E-06  4010   0.439E-03
 123 F= -.85952035E+03 E0= -.85952035E+03  d E =-.135980E-03  mag=     0.0000
       N       E                     dE             d eps       ncg     rms          rms(c)
DAV:   1    -0.851607642389E+03   -0.11534E-03   -0.57720E-02  3920   0.520E-01    0.432E-02
DAV:   2    -0.851607739352E+03   -0.96964E-04   -0.12066E-03  3840   0.688E-02    0.332E-02
DAV:   3    -0.851607732576E+03    0.67766E-05   -0.22630E-05  4660   0.111E-02    0.254E-02
DAV:   4    -0.851607736291E+03   -0.37156E-05   -0.33682E-05  3780   0.143E-02    0.636E-03
DAV:   5    -0.851607736966E+03   -0.67444E-06   -0.76251E-06  4260   0.533E-03
 124 F= -.85952053E+03 E0= -.85952053E+03  d E =-.172882E-03  mag=     0.0000
       N       E                     dE             d eps       ncg     rms          rms(c)
DAV:   1    -0.851607850928E+03   -0.11464E-03   -0.88896E-02  3920   0.645E-01    0.531E-02
DAV:   2    -0.851608003917E+03   -0.15299E-03   -0.18916E-03  3860   0.857E-02    0.408E-02
DAV:   3    -0.851607993213E+03    0.10704E-04   -0.34067E-05  4680   0.136E-02    0.314E-02
DAV:   4    -0.851607999950E+03   -0.67370E-05   -0.52865E-05  3980   0.179E-02    0.783E-03
DAV:   5    -0.851608001035E+03   -0.10853E-05   -0.11412E-05  4320   0.659E-03    0.502E-03
DAV:   6    -0.851608000951E+03    0.84248E-07   -0.21845E-06  3100   0.395E-03
 125 F= -.85952075E+03 E0= -.85952075E+03  d E =-.220087E-03  mag=    -0.0000
       N       E                     dE             d eps       ncg     rms          rms(c)
DAV:   1    -0.851608068770E+03   -0.67735E-04   -0.13338E-01  3920   0.790E-01    0.642E-02
DAV:   2    -0.851608296509E+03   -0.22774E-03   -0.28209E-03  3860   0.104E-01    0.491E-02
DAV:   3    -0.851608279745E+03    0.16763E-04   -0.50837E-05  4660   0.166E-02    0.378E-02
DAV:   4    -0.851608288454E+03   -0.87083E-05   -0.80566E-05  4220   0.218E-02    0.948E-03
DAV:   5    -0.851608289844E+03   -0.13899E-05   -0.16317E-05  4340   0.800E-03    0.602E-03
DAV:   6    -0.851608289812E+03    0.31912E-07   -0.33118E-06  3540   0.475E-03
 126 F= -.85952098E+03 E0= -.85952098E+03  d E =-.235284E-03  mag=    -0.0000
       N       E                     dE             d eps       ncg     rms          rms(c)
[...]
       N       E                     dE             d eps       ncg     rms          rms(c)
DAV:   1    -0.851636883265E+03    0.34602E-06   -0.39159E-06  3580   0.466E-03    0.175E-03
DAV:   2    -0.851636883256E+03    0.87457E-08   -0.43133E-07  2100   0.145E-03
 401 F= -.85954078E+03 E0= -.85954078E+03  d E =-.191959E-06  mag=     0.0000
       N       E                     dE             d eps       ncg     rms          rms(c)
DAV:   1    -0.851636884518E+03   -0.12526E-05   -0.34396E-06  3420   0.429E-03    0.776E-04
DAV:   2    -0.851636884528E+03   -0.10477E-07   -0.11177E-07  1980   0.774E-04
 402 F= -.85954078E+03 E0= -.85954078E+03  d E =-.111458E-05  mag=    -0.0000
       N       E                     dE             d eps       ncg     rms          rms(c)
DAV:   1    -0.851636886282E+03   -0.17648E-05   -0.74078E-06  3600   0.633E-03    0.802E-04
DAV:   2    -0.851636886291E+03   -0.84692E-08   -0.17931E-07  1920   0.961E-04
 403 F= -.85954078E+03 E0= -.85954078E+03  d E =-.152397E-05  mag=    -0.0000
       N       E                     dE             d eps       ncg     rms          rms(c)
DAV:   1    -0.851636888386E+03   -0.21040E-05   -0.12289E-05  3640   0.809E-03    0.112E-03
DAV:   2    -0.851636888398E+03   -0.11220E-07   -0.28822E-07  1920   0.121E-03
 404 F= -.85954079E+03 E0= -.85954079E+03  d E =-.177237E-05  mag=     0.0000
       N       E                     dE             d eps       ncg     rms          rms(c)
DAV:   1    -0.851636890664E+03   -0.22778E-05   -0.17215E-05  3800   0.952E-03    0.136E-03
DAV:   2    -0.851636890679E+03   -0.15010E-07   -0.36314E-07  1940   0.135E-03
 405 F= -.85954079E+03 E0= -.85954079E+03  d E =-.186046E-05  mag=    -0.0000
       N       E                     dE             d eps       ncg     rms          rms(c)
DAV:   1    -0.851636893203E+03   -0.25389E-05   -0.22379E-05  3800   0.108E-02    0.152E-03
DAV:   2    -0.851636893224E+03   -0.21326E-07   -0.45028E-07  2080   0.148E-03
 406 F= -.85954079E+03 E0= -.85954079E+03  d E =-.201774E-05  mag=    -0.0000
       N       E                     dE             d eps       ncg     rms          rms(c)
DAV:   1    -0.851636896079E+03   -0.28761E-05   -0.33690E-05  3840   0.131E-02    0.178E-03
DAV:   2    -0.851636896114E+03   -0.34801E-07   -0.63462E-07  2140   0.175E-03
 407 F= -.85954079E+03 E0= -.85954079E+03  d E =-.217766E-05  mag=     0.0000
       N       E                     dE             d eps       ncg     rms          rms(c)
DAV:   1    -0.851636899610E+03   -0.35310E-05   -0.50399E-05  3840   0.158E-02    0.213E-03
DAV:   2    -0.851636899664E+03   -0.53871E-07   -0.92342E-07  2200   0.209E-03
 408 F= -.85954079E+03 E0= -.85954079E+03  d E =-.258813E-05  mag=    -0.0000
       N       E                     dE             d eps       ncg     rms          rms(c)
DAV:   1    -0.851636904211E+03   -0.46003E-05   -0.72760E-05  3840   0.189E-02    0.254E-03
DAV:   2    -0.851636904273E+03   -0.62631E-07   -0.12917E-06  2400   0.248E-03
 409 F= -.85954080E+03 E0= -.85954080E+03  d E =-.328128E-05  mag=     0.0000
       N       E                     dE             d eps       ncg     rms          rms(c)
DAV:   1    -0.851636910306E+03   -0.60951E-05   -0.10911E-04  3840   0.230E-02    0.306E-03
DAV:   2    -0.851636910397E+03   -0.91437E-07   -0.19504E-06  2920   0.301E-03
 410 F= -.85954080E+03 E0= -.85954080E+03  d E =-.438860E-05  mag=    -0.0000
       N       E                     dE             d eps       ncg     rms          rms(c)
DAV:   1    -0.851636918100E+03   -0.77944E-05   -0.16781E-04  3860   0.285E-02    0.380E-03
DAV:   2    -0.851636918244E+03   -0.14345E-06   -0.30317E-06  3440   0.368E-03
 411 F= -.85954081E+03 E0= -.85954081E+03  d E =-.558388E-05  mag=    -0.0000
       N       E                     dE             d eps       ncg     rms          rms(c)
DAV:   1    -0.851636927852E+03   -0.97520E-05   -0.25958E-04  3880   0.354E-02    0.478E-03
DAV:   2    -0.851636928060E+03   -0.20801E-06   -0.46279E-06  3960   0.453E-03
 412 F= -.85954082E+03 E0= -.85954082E+03  d E =-.708243E-05  mag=    -0.0000
       N       E                     dE             d eps       ncg     rms          rms(c)
DAV:   1    -0.851636939382E+03   -0.11530E-04   -0.39809E-04  3880   0.438E-02    0.592E-03
DAV:   2    -0.851636939694E+03   -0.31185E-06   -0.70333E-06  3880   0.557E-03
 413 F= -.85954082E+03 E0= -.85954082E+03  d E =-.837383E-05  mag=    -0.0000
       N       E                     dE             d eps       ncg     rms          rms(c)
DAV:   1    -0.851636953547E+03   -0.14164E-04   -0.59420E-04  3880   0.533E-02    0.724E-03
DAV:   2    -0.851636953977E+03   -0.43083E-06   -0.10292E-05  4040   0.672E-03    0.603E-03
DAV:   3    -0.851636953870E+03    0.10719E-06   -0.51179E-07  2480   0.188E-03
 414 F= -.85954083E+03 E0= -.85954083E+03  d E =-.989196E-05  mag=     0.0000
       N       E                     dE             d eps       ncg     rms          rms(c)
DAV:   1    -0.851636970103E+03   -0.16125E-04   -0.88536E-04  3880   0.649E-02    0.593E-03
DAV:   2    -0.851636971222E+03   -0.11191E-05   -0.15231E-05  3860   0.805E-03    0.490E-03
DAV:   3    -0.851636971121E+03    0.10065E-06   -0.32472E-07  2300   0.147E-03
 415 F= -.85954085E+03 E0= -.85954085E+03  d E =-.122647E-04  mag=     0.0000
       N       E                     dE             d eps       ncg     rms          rms(c)
DAV:   1    -0.851636990398E+03   -0.19176E-04   -0.12873E-03  3880   0.782E-02    0.707E-03
DAV:   2    -0.851636991953E+03   -0.15547E-05   -0.21821E-05  3880   0.965E-03    0.590E-03
DAV:   3    -0.851636991768E+03    0.18496E-06   -0.49910E-07  2640   0.183E-03
 416 F= -.85954086E+03 E0= -.85954086E+03  d E =-.145811E-04  mag=    -0.0000
       N       E                     dE             d eps       ncg     rms          rms(c)
DAV:   1    -0.851637015169E+03   -0.23216E-04   -0.19076E-03  3880   0.950E-02    0.863E-03
DAV:   2    -0.851637017405E+03   -0.22364E-05   -0.31799E-05  3900   0.116E-02    0.726E-03
DAV:   3    -0.851637017138E+03    0.26706E-06   -0.75422E-07  2660   0.225E-03
 417 F= -.85954088E+03 E0= -.85954088E+03  d E =-.184515E-04  mag=     0.0000
       N       E                     dE             d eps       ncg     rms          rms(c)
DAV:   1    -0.851637046229E+03   -0.28824E-04   -0.28606E-03  3880   0.116E-01    0.105E-02
DAV:   2    -0.851637049522E+03   -0.32936E-05   -0.47134E-05  3880   0.142E-02    0.886E-03
DAV:   3    -0.851637049147E+03    0.37580E-06   -0.12023E-06  2940   0.274E-03
 418 F= -.85954090E+03 E0= -.85954090E+03  d E =-.226855E-04  mag=    -0.0000
       N       E                     dE             d eps       ncg     rms          rms(c)
DAV:   1    -0.851637085265E+03   -0.35742E-04   -0.43141E-03  3900   0.142E-01    0.129E-02
DAV:   2    -0.851637090159E+03   -0.48948E-05   -0.70762E-05  3880   0.174E-02    0.109E-02
DAV:   3    -0.851637089561E+03    0.59811E-06   -0.18894E-06  3100   0.338E-03
 419 F= -.85954093E+03 E0= -.85954093E+03  d E =-.277271E-04  mag=    -0.0000
       N       E                     dE             d eps       ncg     rms          rms(c)
DAV:   1    -0.851637130327E+03   -0.40167E-04   -0.64832E-03  3880   0.175E-01    0.159E-02
DAV:   2    -0.851637137710E+03   -0.73833E-05   -0.10747E-04  3880   0.215E-02    0.134E-02
DAV:   3    -0.851637136844E+03    0.86629E-06   -0.30136E-06  3560   0.416E-03
 420 F= -.85954096E+03 E0= -.85954096E+03  d E =-.314650E-04  mag=    -0.0000
       N       E                     dE             d eps       ncg     rms          rms(c)
DAV:   1    -0.851637184030E+03   -0.46321E-04   -0.96239E-03  3880   0.213E-01    0.195E-02
DAV:   2    -0.851637194988E+03   -0.10958E-04   -0.16075E-04  3880   0.262E-02    0.164E-02
DAV:   3    -0.851637193767E+03    0.12209E-05   -0.45921E-06  3920   0.508E-03    0.118E-02
DAV:   4    -0.851637195233E+03   -0.14658E-05   -0.63991E-06  3540   0.608E-03    0.270E-03
DAV:   5    -0.851637195279E+03   -0.45809E-07   -0.17300E-06  2980   0.251E-03
 421 F= -.85954100E+03 E0= -.85954100E+03  d E =-.407940E-04  mag=    -0.0000
       N       E                     dE             d eps       ncg     rms          rms(c)
DAV:   1    -0.851637244352E+03   -0.49119E-04   -0.14510E-02  3900   0.262E-01    0.228E-02
DAV:   2    -0.851637262944E+03   -0.18592E-04   -0.26648E-04  3860   0.337E-02    0.190E-02
DAV:   3    -0.851637260324E+03    0.26200E-05   -0.72721E-06  4280   0.636E-03    0.140E-02
DAV:   4    -0.851637261364E+03   -0.10401E-05   -0.10607E-05  3600   0.780E-03    0.358E-03
DAV:   5    -0.851637261558E+03   -0.19414E-06   -0.25516E-06  3020   0.305E-03
 422 F= -.85954105E+03 E0= -.85954105E+03  d E =-.480920E-04  mag=     0.0000
       N       E                     dE             d eps       ncg     rms          rms(c)
DAV:   1    -0.851637316065E+03   -0.54701E-04   -0.20775E-02  3900   0.313E-01    0.273E-02
DAV:   2    -0.851637342693E+03   -0.26628E-04   -0.38285E-04  3860   0.404E-02    0.227E-02
DAV:   3    -0.851637339069E+03    0.36236E-05   -0.10285E-05  4400   0.756E-03    0.168E-02
DAV:   4    -0.851637340705E+03   -0.16362E-05   -0.14935E-05  3680   0.929E-03    0.431E-03
DAV:   5    -0.851637341013E+03   -0.30731E-06   -0.35969E-06  3500   0.364E-03
 423 F= -.85954111E+03 E0= -.85954111E+03  d E =-.572702E-04  mag=    -0.0000
       N       E                     dE             d eps       ncg     rms          rms(c)
DAV:   1    -0.851637399903E+03   -0.59198E-04   -0.29612E-02  3900   0.374E-01    0.324E-02
DAV:   2    -0.851637438294E+03   -0.38391E-04   -0.54921E-04  3860   0.483E-02    0.270E-02
DAV:   3    -0.851637433212E+03    0.50820E-05   -0.14593E-05  4520   0.902E-03    0.200E-02
DAV:   4    -0.851637435939E+03   -0.27275E-05   -0.21861E-05  3700   0.113E-02    0.502E-03
DAV:   5    -0.851637436257E+03   -0.31765E-06   -0.52634E-06  3900   0.445E-03
 424 F= -.85954117E+03 E0= -.85954117E+03  d E =-.653329E-04  mag=    -0.0000
       N       E                     dE             d eps       ncg     rms          rms(c)
DAV:   1    -0.851637490396E+03   -0.54457E-04   -0.41683E-02  3900   0.445E-01    0.386E-02
DAV:   2    -0.851637545746E+03   -0.55349E-04   -0.78678E-04  3860   0.579E-02    0.321E-02
DAV:   3    -0.851637538844E+03    0.69015E-05   -0.20778E-05  4580   0.107E-02    0.239E-02
DAV:   4    -0.851637542595E+03   -0.37502E-05   -0.30138E-05  3740   0.134E-02    0.610E-03
DAV:   5    -0.851637543231E+03   -0.63670E-06   -0.73701E-06  4120   0.520E-03
 425 F= -.85954124E+03 E0= -.85954124E+03  d E =-.719904E-04  mag=    -0.0000
       N       E                     dE             d eps       ncg     rms          rms(c)
DAV:   1    -0.851637588630E+03   -0.46036E-04   -0.53590E-02  3900   0.503E-01    0.439E-02
DAV:   2    -0.851637656868E+03   -0.68238E-04   -0.97992E-04  3860   0.648E-02    0.370E-02
DAV:   3    -0.851637647208E+03    0.96597E-05   -0.28133E-05  4620   0.124E-02    0.275E-02
DAV:   4    -0.851637651237E+03   -0.40285E-05   -0.39120E-05  3800   0.150E-02    0.725E-03
DAV:   5    -0.851637652170E+03   -0.93298E-06   -0.94793E-06  4220   0.588E-03
 426 F= -.85954132E+03 E0= -.85954132E+03  d E =-.721136E-04  mag=    -0.0000
       N       E                     dE             d eps       ncg     rms          rms(c)
DAV:   1    -0.851637697332E+03   -0.46095E-04   -0.70505E-02  3900   0.577E-01    0.505E-02
DAV:   2    -0.851637784859E+03   -0.87527E-04   -0.12812E-03  3860   0.740E-02    0.432E-02
DAV:   3    -0.851637771202E+03    0.13657E-04   -0.39057E-05  4640   0.146E-02    0.317E-02
DAV:   4    -0.851637776345E+03   -0.51431E-05   -0.56115E-05  4020   0.180E-02    0.816E-03
DAV:   5    -0.851637777114E+03   -0.76884E-06   -0.13893E-05  4280   0.732E-03    0.499E-03
DAV:   6    -0.851637777389E+03   -0.27522E-06   -0.19354E-06  2880   0.341E-03
 427 F= -.85954139E+03 E0= -.85954139E+03  d E =-.689005E-04  mag=    -0.0000
       N       E                     dE             d eps       ncg     rms          rms(c)
DAV:   1    -0.851637749031E+03    0.28083E-04   -0.98888E-02  3880   0.689E-01    0.598E-02
DAV:   2    -0.851637877677E+03   -0.12865E-03   -0.18718E-03  3900   0.897E-02    0.515E-02
DAV:   3    -0.851637856204E+03    0.21473E-04   -0.62523E-05  4820   0.177E-02    0.384E-02
DAV:   4    -0.851637857651E+03   -0.14466E-05   -0.75130E-05  4200   0.208E-02    0.113E-02
DAV:   5    -0.851637860128E+03   -0.24776E-05   -0.18697E-05  4280   0.817E-03    0.636E-03
DAV:   6    -0.851637860477E+03   -0.34874E-06   -0.26966E-06  3080   0.376E-03
 428 F= -.85954141E+03 E0= -.85954141E+03  d E =-.225806E-04  mag=    -0.0000
       N       E                     dE             d eps       ncg     rms          rms(c)
DAV:   1    -0.851637946223E+03   -0.86095E-04   -0.40093E-03  3920   0.146E-01    0.147E-02
DAV:   2    -0.851637953114E+03   -0.68905E-05   -0.10356E-04  4720   0.212E-02    0.133E-02
DAV:   3    -0.851637950857E+03    0.22568E-05   -0.53144E-06  4100   0.500E-03    0.997E-03
DAV:   4    -0.851637949091E+03    0.17663E-05   -0.51923E-06  3740   0.527E-03    0.416E-03
DAV:   5    -0.851637949032E+03    0.58768E-07   -0.11236E-06  2380   0.225E-03
 429 F= -.85954149E+03 E0= -.85954149E+03  d E =-.871643E-04  mag=    -0.0000
       N       E                     dE             d eps       ncg     rms          rms(c)
DAV:   1    -0.851637896689E+03    0.52402E-04   -0.42017E-03  3840   0.150E-01    0.146E-02
DAV:   2    -0.851637904036E+03   -0.73472E-05   -0.10424E-04  4780   0.214E-02    0.130E-02
DAV:   3    -0.851637902068E+03    0.19685E-05   -0.48526E-06  3840   0.484E-03    0.987E-03
DAV:   4    -0.851637900651E+03    0.14167E-05   -0.57950E-06  3780   0.545E-03    0.407E-03
DAV:   5    -0.851637900620E+03    0.30996E-07   -0.10416E-06  2300   0.225E-03
 430 F= -.85954144E+03 E0= -.85954144E+03  d E =0.521264E-04  mag=     0.0000
       N       E                     dE             d eps       ncg     rms          rms(c)
DAV:   1    -0.851637927701E+03   -0.27050E-04   -0.18939E-04  3880   0.318E-02    0.325E-03
DAV:   2    -0.851637928037E+03   -0.33636E-06   -0.53025E-06  4220   0.480E-03
 431 F= -.85954147E+03 E0= -.85954147E+03  d E =-.272412E-04  mag=    -0.0000
       N       E                     dE             d eps       ncg     rms          rms(c)
DAV:   1    -0.851637959399E+03   -0.31698E-04   -0.58434E-04  3920   0.558E-02    0.767E-03
DAV:   2    -0.851637959951E+03   -0.55222E-06   -0.14809E-05  4740   0.808E-03    0.670E-03
DAV:   3    -0.851637959131E+03    0.82026E-06   -0.15236E-06  2340   0.297E-03
 432 F= -.85954150E+03 E0= -.85954150E+03  d E =-.307212E-04  mag=    -0.0000
       N       E                     dE             d eps       ncg     rms          rms(c)
DAV:   1    -0.851637967192E+03   -0.72407E-05   -0.82465E-04  3920   0.663E-02    0.773E-03
DAV:   2    -0.851637968512E+03   -0.13200E-05   -0.19372E-05  4720   0.916E-03    0.684E-03
DAV:   3    -0.851637967954E+03    0.55781E-06   -0.96655E-07  2360   0.240E-03
 433 F= -.85954151E+03 E0= -.85954151E+03  d E =-.809252E-05  mag=     0.0000
       N       E                     dE             d eps       ncg     rms          rms(c)
DAV:   1    -0.851637968250E+03    0.26225E-06   -0.31613E-06  3140   0.415E-03    0.166E-03
DAV:   2    -0.851637968238E+03    0.11474E-07   -0.37811E-07  1980   0.139E-03
 434 F= -.85954151E+03 E0= -.85954151E+03  d E =-.207464E-06  mag=     0.0000
       N       E                     dE             d eps       ncg     rms          rms(c)
DAV:   1    -0.851637969199E+03   -0.94900E-06   -0.25117E-06  2920   0.370E-03    0.683E-04
DAV:   2    -0.851637969207E+03   -0.83455E-08   -0.99043E-08  1920   0.764E-04
 435 F= -.85954151E+03 E0= -.85954151E+03  d E =-.814135E-06  mag=    -0.0000
       N       E                     dE             d eps       ncg     rms          rms(c)
DAV:   1    -0.851637970487E+03   -0.12880E-05   -0.51888E-06  3420   0.530E-03    0.680E-04
DAV:   2    -0.851637970495E+03   -0.79599E-08   -0.13525E-07  1920   0.856E-04
 436 F= -.85954151E+03 E0= -.85954151E+03  d E =-.107931E-05  mag=    -0.0000
       N       E                     dE             d eps       ncg     rms          rms(c)
DAV:   1    -0.851637971969E+03   -0.14821E-05   -0.80234E-06  3600   0.653E-03    0.948E-04
DAV:   2    -0.851637971979E+03   -0.10579E-07   -0.18753E-07  1920   0.985E-04
 437 F= -.85954151E+03 E0= -.85954151E+03  d E =-.117423E-05  mag=    -0.0000
       N       E                     dE             d eps       ncg     rms          rms(c)
DAV:   1    -0.851637973567E+03   -0.15981E-05   -0.10681E-05  3620   0.750E-03    0.107E-03
DAV:   2    -0.851637973581E+03   -0.13977E-07   -0.22965E-07  1920   0.108E-03
 438 F= -.85954151E+03 E0= -.85954151E+03  d E =-.119101E-05  mag=    -0.0000
       N       E                     dE             d eps       ncg     rms          rms(c)
DAV:   1    -0.851637975190E+03   -0.16235E-05   -0.13135E-05  3680   0.826E-03    0.117E-03
DAV:   2    -0.851637975205E+03   -0.14690E-07   -0.26464E-07  1920   0.115E-03
 439 F= -.85954151E+03 E0= -.85954151E+03  d E =-.111023E-05  mag=     0.0000
       N       E                     dE             d eps       ncg     rms          rms(c)
DAV:   1    -0.851637976945E+03   -0.17547E-05   -0.18576E-05  3760   0.971E-03    0.131E-03
DAV:   2    -0.851637976962E+03   -0.16626E-07   -0.33390E-07  1920   0.129E-03
 440 F= -.85954152E+03 E0= -.85954152E+03  d E =-.114551E-05  mag=    -0.0000
       N       E                     dE             d eps       ncg     rms          rms(c)
DAV:   1    -0.851637979211E+03   -0.22661E-05   -0.25198E-05  3820   0.111E-02    0.148E-03
DAV:   2    -0.851637979232E+03   -0.20700E-07   -0.39778E-07  1920   0.140E-03
 441 F= -.85954152E+03 E0= -.85954152E+03  d E =-.146972E-05  mag=     0.0000
       N       E                     dE             d eps       ncg     rms          rms(c)
DAV:   1    -0.851637982099E+03   -0.28879E-05   -0.35356E-05  3840   0.130E-02    0.165E-03
DAV:   2    -0.851637982124E+03   -0.24767E-07   -0.50756E-07  1950   0.159E-03
 442 F= -.85954152E+03 E0= -.85954152E+03  d E =-.192015E-05  mag=    -0.0000
       N       E                     dE             d eps       ncg     rms          rms(c)
DAV:   1    -0.851637985663E+03   -0.35642E-05   -0.52350E-05  3840   0.158E-02    0.194E-03
DAV:   2    -0.851637985699E+03   -0.35710E-07   -0.76745E-07  2300   0.192E-03
 443 F= -.85954152E+03 E0= -.85954152E+03  d E =-.237809E-05  mag=    -0.0000
       N       E                     dE             d eps       ncg     rms          rms(c)
DAV:   1    -0.851637990586E+03   -0.49228E-05   -0.78365E-05  3840   0.193E-02    0.240E-03
DAV:   2    -0.851637990636E+03   -0.49455E-07   -0.11074E-06  2320   0.231E-03
 444 F= -.85954152E+03 E0= -.85954152E+03  d E =-.338955E-05  mag=     0.0000
       N       E                     dE             d eps       ncg     rms          rms(c)
DAV:   1    -0.851637996401E+03   -0.58147E-05   -0.11982E-04  3860   0.238E-02    0.290E-03
DAV:   2    -0.851637996471E+03   -0.70475E-07   -0.17661E-06  2700   0.286E-03
 445 F= -.85954153E+03 E0= -.85954153E+03  d E =-.381230E-05  mag=    -0.0000
       N       E                     dE             d eps       ncg     rms          rms(c)
DAV:   1    -0.851638003118E+03   -0.67170E-05   -0.18155E-04  3860   0.293E-02    0.365E-03
DAV:   2    -0.851638003218E+03   -0.99906E-07   -0.26982E-06  3060   0.352E-03
 446 F= -.85954153E+03 E0= -.85954153E+03  d E =-.425051E-05  mag=     0.0000
       N       E                     dE             d eps       ncg     rms          rms(c)
DAV:   1    -0.851638011047E+03   -0.79287E-05   -0.25992E-04  3860   0.347E-02    0.446E-03
DAV:   2    -0.851638011171E+03   -0.12458E-06   -0.37760E-06  3470   0.409E-03
 447 F= -.85954154E+03 E0= -.85954154E+03  d E =-.517105E-05  mag=    -0.0000
