unknown system                          
           1
    17.271038    0.000000    0.000000
    -8.635519   14.957158    0.000000
     0.000000    0.000000   15.000000
   C    H    F    O 
    88     8     2     1
Direct configuration=     1
   0.99896303  0.99991909  0.50158244
   0.99841107  0.14253572  0.50260638
   0.99845103  0.28565860  0.50372966
   0.99908280  0.42895514  0.50333976
   0.00004048  0.57211771  0.50225941
   0.00094124  0.71531775  0.50062141
   0.00050327  0.85816858  0.50039139
   0.14241245  0.00063030  0.50695234
   0.14130055  0.14265047  0.50677357
   0.14030509  0.28474025  0.50840097
   0.14082581  0.42839701  0.50907087
   0.14245427  0.57176655  0.50779968
   0.14297729  0.71496854  0.50783646
   0.14293284  0.85800884  0.50728331
   0.28528279  0.00063302  0.50809673
   0.28476750  0.14298184  0.50828001
   0.28372306  0.28615487  0.51353718
   0.28109686  0.42568617  0.52045654
   0.28527305  0.57141594  0.51589411
   0.28537076  0.71526385  0.51036025
   0.28539484  0.85817802  0.50872549
   0.42827876  0.00127825  0.50611554
   0.42800672  0.14372389  0.50450959
   0.42587948  0.28317542  0.50448800
   0.42685039  0.71790671  0.50557167
   0.42809485  0.85876682  0.50598296
   0.57092483  0.00134676  0.50217079
   0.57093850  0.14380976  0.50186555
   0.57187620  0.28732953  0.49487431
   0.57171028  0.85893527  0.49705767
   0.71368594  0.00060403  0.49644943
   0.71376622  0.14363290  0.50044745
   0.71387906  0.28657597  0.49648190
   0.71410900  0.42868842  0.48289079
   0.72191020  0.57496737  0.45612479
   0.72382038  0.71933596  0.45554012
   0.71285257  0.85773595  0.48378245
   0.85624879  0.00025372  0.49482642
   0.85605914  0.14311374  0.49984695
   0.85625193  0.28608712  0.50023655
   0.85704454  0.42918564  0.49556625
   0.85848174  0.57270138  0.48863492
   0.86020809  0.71629926  0.48366111
   0.85736754  0.85754479  0.48868626
   0.04628037  0.09507992  0.50379140
   0.04533900  0.23741266  0.50476265
   0.04580542  0.38089242  0.50527559
   0.04734450  0.52427012  0.50462044
   0.04788505  0.66742279  0.50411186
   0.04791531  0.81041015  0.50331076
   0.04725300  0.95291569  0.50355167
   0.18950077  0.09534810  0.50782853
   0.18824387  0.23754471  0.50922765
   0.18657792  0.37945379  0.51170818
   0.18929680  0.52362974  0.51021022
   0.19023436  0.66738515  0.50931449
   0.19045263  0.81042038  0.50852479
   0.19027024  0.95309069  0.50795333
   0.33285437  0.09600657  0.50717724
   0.33283113  0.23808661  0.50917555
   0.32762144  0.37841568  0.52209386
   0.32512240  0.51937408  0.52575678
   0.33399993  0.66852736  0.51153475
   0.33300202  0.81047704  0.50857937
   0.33289484  0.95327359  0.50789636
   0.47578353  0.09625519  0.50415420
   0.47495295  0.23888738  0.50113591
   0.47513410  0.81104041  0.50281432
   0.47584453  0.95395329  0.50487910
   0.61844015  0.09627810  0.50171975
   0.61875988  0.23907533  0.49786271
   0.62089147  0.38047539  0.48544077
   0.61988178  0.81392044  0.48908324
   0.61866079  0.95377810  0.49845273
   0.76120136  0.09593206  0.49925794
   0.76133477  0.23865861  0.49942095
   0.76190450  0.38162853  0.49168053
   0.76376877  0.52596669  0.47522783
   0.76721312  0.66882758  0.46344839
   0.76206951  0.80978470  0.47555973
   0.76120914  0.95296978  0.49129068
   0.90337246  0.09501576  0.49927024
   0.90346415  0.23822793  0.50147545
   0.90396933  0.38146916  0.49999308
   0.90514789  0.52469782  0.49629531
   0.90624217  0.66779545  0.49142112
   0.90575199  0.81076845  0.49136075
   0.90394575  0.95233401  0.49583567
   0.46157018  0.35564134  0.50284055
   0.39975207  0.41639442  0.52805380
   0.65139451  0.54078064  0.43998867
   0.58517020  0.41712358  0.48118619
   0.58336539  0.74175027  0.48732517
   0.46362036  0.68275933  0.50280496
   0.55451441  0.53414686  0.55601905
   0.51467088  0.54234014  0.46774351
   0.41537885  0.55948816  0.54191480
   0.63641132  0.67254773  0.42729035
   0.53004474  0.50310050  0.50009081
Direct configuration=     2
   0.99896296  0.99992020  0.50157857
   0.99841118  0.14253618  0.50260335
   0.99845078  0.28565778  0.50372805
   0.99908237  0.42895421  0.50333580
   0.00004076  0.57211791  0.50225616
   0.00094170  0.71531914  0.50061686
   0.00050477  0.85817051  0.50038384
   0.14241377  0.00063140  0.50695114
   0.14130159  0.14265093  0.50677618
   0.14030692  0.28474021  0.50840978
   0.14082720  0.42839631  0.50907896
   0.14245306  0.57176421  0.50780486
   0.14297742  0.71496836  0.50784130
   0.14293431  0.85800976  0.50728221
   0.28528256  0.00063287  0.50809607
   0.28476867  0.14298255  0.50828521
   0.28372412  0.28615494  0.51355346
   0.28109813  0.42568763  0.52048890
   0.28527192  0.57141395  0.51591747
   0.28537049  0.71526307  0.51037055
   0.28539524  0.85817809  0.50872762
   0.42827926  0.00127830  0.50611465
   0.42800836  0.14372466  0.50450978
   0.42588050  0.28317545  0.50449019
   0.42685030  0.71790532  0.50557839
   0.42809547  0.85876561  0.50598250
   0.57092480  0.00134617  0.50216596
   0.57093854  0.14381008  0.50186193
   0.57187593  0.28732893  0.49486596
   0.57171028  0.85893449  0.49704739
   0.71368471  0.00060359  0.49644013
   0.71376771  0.14363393  0.50044004
   0.71387908  0.28657610  0.49647172
   0.71410871  0.42868826  0.48287991
   0.72191250  0.57496884  0.45611429
   0.72381851  0.71933754  0.45553283
   0.71285248  0.85773726  0.48377243
   0.85624808  0.00025604  0.49481815
   0.85605849  0.14311343  0.49983734
   0.85625094  0.28608490  0.50022874
   0.85704554  0.42918560  0.49555851
   0.85848275  0.57270199  0.48862678
   0.86020946  0.71630236  0.48364968
   0.85736752  0.85754569  0.48867668
   0.04628033  0.09508061  0.50378885
   0.04533990  0.23741314  0.50476440
   0.04580625  0.38089177  0.50527615
   0.04734441  0.52426910  0.50461948
   0.04788543  0.66742306  0.50411107
   0.04791651  0.81041128  0.50330480
   0.04725332  0.95291731  0.50354643
   0.18950105  0.09534831  0.50783186
   0.18824469  0.23754526  0.50923671
   0.18657999  0.37945486  0.51172370
   0.18929684  0.52362824  0.51022258
   0.19023412  0.66738342  0.50932279
   0.19045365  0.81042027  0.50852810
   0.19027109  0.95309116  0.50795256
   0.33285516  0.09600671  0.50717809
   0.33283214  0.23808716  0.50918523
   0.32762183  0.37841454  0.52213078
   0.32512376  0.51937671  0.52580027
   0.33399982  0.66852620  0.51155061
   0.33300245  0.81047597  0.50858314
   0.33289458  0.95327354  0.50789607
   0.47578401  0.09625404  0.50415179
   0.47495421  0.23888741  0.50113419
   0.47513417  0.81103793  0.50281208
   0.47584416  0.95395095  0.50487566
   0.61843954  0.09627668  0.50171434
   0.61876012  0.23907542  0.49785631
   0.62089151  0.38047472  0.48543015
   0.61988123  0.81392139  0.48907100
   0.61866015  0.95377718  0.49844426
   0.76120054  0.09593131  0.49924807
   0.76133499  0.23865778  0.49941098
   0.76190577  0.38162938  0.49167057
   0.76376872  0.52596651  0.47522045
   0.76721299  0.66882795  0.46343694
   0.76206836  0.80978430  0.47555097
   0.76120861  0.95297099  0.49127901
   0.90337271  0.09501706  0.49926252
   0.90346419  0.23822717  0.50146810
   0.90396958  0.38146828  0.49998524
   0.90514839  0.52469807  0.49628820
   0.90624235  0.66779647  0.49141290
   0.90575281  0.81077082  0.49135333
   0.90394557  0.95233551  0.49582597
   0.46156958  0.35564142  0.50283987
   0.39975204  0.41639318  0.52810804
   0.65139926  0.54078561  0.43997319
   0.58516948  0.41712322  0.48117497
   0.58336646  0.74175098  0.48731500
   0.46361882  0.68275588  0.50280757
   0.55452809  0.53416919  0.55601706
   0.51466836  0.54231544  0.46772563
   0.41537792  0.55949191  0.54197287
   0.63640366  0.67255182  0.42729475
   0.53001209  0.50308796  0.50021037
Direct configuration=     3
   0.99896269  0.99992176  0.50157222
   0.99841172  0.14253729  0.50259874
   0.99845116  0.28565714  0.50372557
   0.99908254  0.42895270  0.50332993
   0.00004146  0.57211810  0.50225128
   0.00094233  0.71532054  0.50060985
   0.00050676  0.85817328  0.50037265
   0.14241479  0.00063240  0.50694932
   0.14130230  0.14265155  0.50678016
   0.14030909  0.28474114  0.50842311
   0.14082671  0.42839474  0.50909039
   0.14245245  0.57176153  0.50781286
   0.14297794  0.71496765  0.50784839
   0.14293568  0.85801118  0.50728029
   0.28528193  0.00063267  0.50809518
   0.28476999  0.14298312  0.50829318
   0.28372483  0.28615509  0.51357823
   0.28110021  0.42569003  0.52053842
   0.28527145  0.57141260  0.51595323
   0.28537045  0.71526147  0.51038607
   0.28539642  0.85817786  0.50873089
   0.42827820  0.00127771  0.50611481
   0.42801002  0.14372465  0.50451006
   0.42588198  0.28317580  0.50449362
   0.42684982  0.71790202  0.50558839
   0.42809595  0.85876294  0.50598180
   0.57092440  0.00134460  0.50215850
   0.57093909  0.14380972  0.50185638
   0.57187620  0.28732844  0.49485384
   0.57170931  0.85893353  0.49703235
   0.71368267  0.00060289  0.49642645
   0.71376674  0.14363338  0.50042951
   0.71388150  0.28657761  0.49645672
   0.71410909  0.42868826  0.48286407
   0.72191530  0.57497097  0.45609902
   0.72381644  0.71933777  0.45552210
   0.71285244  0.85773899  0.48375720
   0.85624754  0.00025854  0.49480525
   0.85605650  0.14311370  0.49982410
   0.85624990  0.28608186  0.50021722
   0.85704694  0.42918566  0.49554668
   0.85848360  0.57270279  0.48861473
   0.86021082  0.71630565  0.48363283
   0.85736751  0.85754775  0.48866239
   0.04628109  0.09508199  0.50378528
   0.04533991  0.23741246  0.50476674
   0.04580720  0.38089093  0.50527685
   0.04734372  0.52426769  0.50461790
   0.04788582  0.66742375  0.50410991
   0.04791857  0.81041336  0.50329616
   0.04725460  0.95291977  0.50353880
   0.18950249  0.09534931  0.50783684
   0.18824675  0.23754572  0.50925032
   0.18658330  0.37945579  0.51174709
   0.18929662  0.52362605  0.51024101
   0.19023444  0.66738212  0.50933434
   0.19045486  0.81042017  0.50853293
   0.19027229  0.95309192  0.50795136
   0.33285688  0.09600755  0.50717959
   0.33283398  0.23808796  0.50919986
   0.32762328  0.37841158  0.52218463
   0.32512526  0.51937898  0.52586378
   0.33399933  0.66852441  0.51157438
   0.33300301  0.81047506  0.50858893
   0.33289496  0.95327372  0.50789566
   0.47578493  0.09625359  0.50414842
   0.47495578  0.23888761  0.50113167
   0.47513473  0.81103548  0.50280872
   0.47584391  0.95394901  0.50487071
   0.61843935  0.09627611  0.50170628
   0.61876048  0.23907552  0.49784652
   0.62089093  0.38047389  0.48541399
   0.61988054  0.81392229  0.48905417
   0.61865959  0.95377696  0.49843272
   0.76119988  0.09593039  0.49923451
   0.76133493  0.23865727  0.49939619
   0.76190702  0.38163000  0.49165568
   0.76376891  0.52596638  0.47520897
   0.76721390  0.66882973  0.46342126
   0.76206752  0.80978497  0.47553807
   0.76120811  0.95297267  0.49126189
   0.90337305  0.09501897  0.49925098
   0.90346397  0.23822607  0.50145707
   0.90396961  0.38146670  0.49997364
   0.90514944  0.52469850  0.49627766
   0.90624304  0.66779876  0.49140106
   0.90575393  0.81077327  0.49134344
   0.90394498  0.95233769  0.49581185
   0.46156888  0.35564157  0.50283936
   0.39975134  0.41639104  0.52818919
   0.65140515  0.54079198  0.43995090
   0.58516861  0.41712278  0.48115901
   0.58336800  0.74175234  0.48730021
   0.46361656  0.68275087  0.50281158
   0.55457416  0.53423949  0.55607400
   0.51467384  0.54225891  0.46771822
   0.41537708  0.55949948  0.54205662
   0.63639245  0.67255688  0.42730165
   0.52992973  0.50305072  0.50030171
Direct configuration=     4
   0.99896241  0.99992390  0.50156286
   0.99841244  0.14253876  0.50259249
   0.99845196  0.28565652  0.50372215
   0.99908313  0.42895072  0.50332222
   0.00004256  0.57211846  0.50224472
   0.00094334  0.71532217  0.50060022
   0.00050857  0.85817591  0.50035918
   0.14241570  0.00063367  0.50694695
   0.14130304  0.14265251  0.50678576
   0.14031133  0.28474276  0.50844135
   0.14082565  0.42839245  0.50910474
   0.14245301  0.57175953  0.50782283
   0.14297891  0.71496676  0.50785770
   0.14293784  0.85801161  0.50727808
   0.28528398  0.00063402  0.50809437
   0.28477134  0.14298370  0.50830297
   0.28372721  0.28615426  0.51361018
   0.28110355  0.42569262  0.52060407
   0.28527196  0.57141163  0.51600009
   0.28536999  0.71526007  0.51040637
   0.28539833  0.85817741  0.50873550
   0.42827757  0.00127567  0.50611483
   0.42801168  0.14372415  0.50451036
   0.42588387  0.28317663  0.50449851
   0.42684896  0.71789713  0.50560181
   0.42809627  0.85875938  0.50598095
   0.57092346  0.00134272  0.50214829
   0.57094032  0.14380906  0.50184869
   0.57187716  0.28732829  0.49483806
   0.57170757  0.85893288  0.49701276
   0.71368063  0.00060250  0.49640798
   0.71376360  0.14363120  0.50041539
   0.71388314  0.28657839  0.49643676
   0.71410973  0.42868819  0.48284327
   0.72191829  0.57497404  0.45607945
   0.72381662  0.71933817  0.45550818
   0.71285236  0.85774107  0.48373639
   0.85624670  0.00026016  0.49478831
   0.85605488  0.14311293  0.49980828
   0.85624960  0.28607954  0.50020145
   0.85704846  0.42918451  0.49553155
   0.85848440  0.57270418  0.48859877
   0.86021234  0.71630892  0.48361092
   0.85736766  0.85755108  0.48864335
   0.04628259  0.09508402  0.50378095
   0.04534048  0.23741206  0.50476970
   0.04580782  0.38088971  0.50527757
   0.04734289  0.52426608  0.50461572
   0.04788626  0.66742476  0.50410847
   0.04791893  0.81041418  0.50328528
   0.04725660  0.95292300  0.50352888
   0.18950485  0.09535098  0.50784357
   0.18824937  0.23754619  0.50926872
   0.18658756  0.37945701  0.51177893
   0.18929643  0.52362355  0.51026590
   0.19023479  0.66738076  0.50934961
   0.19045602  0.81042025  0.50853931
   0.19027327  0.95309308  0.50794968
   0.33285906  0.09600869  0.50718204
   0.33283650  0.23808888  0.50921971
   0.32762449  0.37840880  0.52225577
   0.32512793  0.51938261  0.52594766
   0.33399891  0.66852216  0.51160655
   0.33300368  0.81047399  0.50859712
   0.33289545  0.95327388  0.50789539
   0.47578608  0.09625381  0.50414444
   0.47495725  0.23888786  0.50112833
   0.47513509  0.81103245  0.50280425
   0.47584338  0.95394762  0.50486456
   0.61843944  0.09627612  0.50169561
   0.61876184  0.23907594  0.49783298
   0.62089029  0.38047350  0.48539188
   0.61987770  0.81392431  0.48903318
   0.61865856  0.95377677  0.49841772
   0.76119867  0.09592969  0.49921721
   0.76133453  0.23865692  0.49937671
   0.76190851  0.38163072  0.49163563
   0.76376932  0.52596664  0.47519256
   0.76721506  0.66883303  0.46340094
   0.76206753  0.80978715  0.47552073
   0.76120718  0.95297506  0.49124193
   0.90337323  0.09502145  0.49923555
   0.90346326  0.23822601  0.50144372
   0.90396948  0.38146435  0.49995834
   0.90515124  0.52469983  0.49626490
   0.90624417  0.66780197  0.49138519
   0.90575577  0.81077404  0.49132971
   0.90394380  0.95234129  0.49579483
   0.46156819  0.35564183  0.50283935
   0.39974976  0.41638786  0.52829802
   0.65141080  0.54079877  0.43992205
   0.58516756  0.41712248  0.48113861
   0.58336981  0.74175442  0.48728090
   0.46361363  0.68274414  0.50281727
   0.55464282  0.53434836  0.55616758
   0.51468365  0.54218358  0.46771367
   0.41537407  0.55950822  0.54216535
   0.63637760  0.67256152  0.42731162
   0.52981287  0.50298469  0.50038998
Direct configuration=     5
   0.99896250  0.99992667  0.50154983
   0.99841303  0.14254009  0.50258433
   0.99845216  0.28565538  0.50371765
   0.99908245  0.42894901  0.50331343
   0.00004383  0.57211907  0.50223635
   0.00094430  0.71532186  0.50058838
   0.00051024  0.85817808  0.50034315
   0.14241704  0.00063554  0.50694379
   0.14130457  0.14265395  0.50679298
   0.14031394  0.28474438  0.50846458
   0.14082584  0.42838992  0.50912311
   0.14245449  0.57175971  0.50783446
   0.14297975  0.71496601  0.50786892
   0.14293905  0.85801218  0.50727478
   0.28528594  0.00063561  0.50809352
   0.28477345  0.14298466  0.50831464
   0.28373102  0.28615352  0.51365007
   0.28110792  0.42569399  0.52068641
   0.28527187  0.57140870  0.51605771
   0.28536976  0.71525887  0.51043164
   0.28540026  0.85817691  0.50874148
   0.42827746  0.00127433  0.50611465
   0.42801355  0.14372404  0.50451017
   0.42588618  0.28317773  0.50450456
   0.42684787  0.71789155  0.50561855
   0.42809651  0.85875592  0.50597979
   0.57092171  0.00134198  0.50213627
   0.57094181  0.14380893  0.50183828
   0.57187849  0.28732842  0.49481812
   0.57170493  0.85893304  0.49698886
   0.71367889  0.00060292  0.49638436
   0.71376045  0.14362898  0.50039693
   0.71388296  0.28657807  0.49641276
   0.71411015  0.42868788  0.48281679
   0.72192064  0.57497750  0.45605674
   0.72381851  0.71934075  0.45549196
   0.71285107  0.85774333  0.48370961
   0.85624556  0.00026204  0.49476657
   0.85605406  0.14311208  0.49978940
   0.85624950  0.28607852  0.50018072
   0.85705005  0.42918323  0.49551223
   0.85848479  0.57270587  0.48857985
   0.86021472  0.71631203  0.48358543
   0.85736874  0.85755503  0.48861927
   0.04628407  0.09508617  0.50377576
   0.04534216  0.23741299  0.50477178
   0.04580795  0.38088778  0.50527796
   0.04734296  0.52426447  0.50461275
   0.04788712  0.66742566  0.50410656
   0.04791752  0.81041561  0.50327341
   0.04725796  0.95292565  0.50351783
   0.18950712  0.09535278  0.50785164
   0.18825197  0.23754695  0.50929154
   0.18659204  0.37945891  0.51181916
   0.18929664  0.52362098  0.51029705
   0.19023564  0.66737933  0.50936744
   0.19045744  0.81042004  0.50854702
   0.19027435  0.95309433  0.50794724
   0.33286128  0.09600967  0.50718533
   0.33283955  0.23808938  0.50924411
   0.32762436  0.37840624  0.52234458
   0.32512891  0.51938585  0.52604946
   0.33399885  0.66851934  0.51164551
   0.33300609  0.81047424  0.50860752
   0.33289595  0.95327334  0.50789531
   0.47578720  0.09625342  0.50413991
   0.47495853  0.23888798  0.50112351
   0.47513396  0.81102762  0.50279853
   0.47584232  0.95394555  0.50485729
   0.61843860  0.09627495  0.50168209
   0.61876404  0.23907622  0.49781489
   0.62089017  0.38047351  0.48536437
   0.61987756  0.81392584  0.48900645
   0.61865650  0.95377605  0.49839838
   0.76119628  0.09592908  0.49919594
   0.76133357  0.23865575  0.49935250
   0.76191030  0.38163142  0.49160984
   0.76376978  0.52596489  0.47517026
   0.76721572  0.66883664  0.46337491
   0.76206857  0.80979034  0.47549789
   0.76120754  0.95297820  0.49121985
   0.90337320  0.09502350  0.49921615
   0.90346286  0.23822613  0.50142790
   0.90397300  0.38146342  0.49994053
   0.90515290  0.52470111  0.49624932
   0.90624534  0.66780482  0.49136435
   0.90575706  0.81077763  0.49131094
   0.90394287  0.95234529  0.49577459
   0.46156749  0.35564202  0.50283945
   0.39974674  0.41638327  0.52843181
   0.65141476  0.54080477  0.43988634
   0.58516623  0.41712245  0.48111349
   0.58337145  0.74175729  0.48725685
   0.46361012  0.68273542  0.50282470
   0.55470690  0.53446037  0.55623593
   0.51469086  0.54211491  0.46769902
   0.41536721  0.55951819  0.54230319
   0.63636018  0.67256444  0.42732483
   0.52970578  0.50290680  0.50055667
Direct configuration=     6
   0.99896309  0.99992969  0.50153284
   0.99841374  0.14254149  0.50257390
   0.99845166  0.28565405  0.50371181
   0.99908286  0.42894821  0.50330349
   0.00004519  0.57211950  0.50222608
   0.00094487  0.71532113  0.50057386
   0.00051288  0.85818014  0.50032515
   0.14241655  0.00063742  0.50694074
   0.14130706  0.14265585  0.50680163
   0.14031739  0.28474605  0.50849250
   0.14082843  0.42838791  0.50914511
   0.14245552  0.57176131  0.50784683
   0.14298050  0.71496574  0.50788150
   0.14293851  0.85801222  0.50727172
   0.28528729  0.00063658  0.50809254
   0.28477298  0.14298330  0.50832786
   0.28373500  0.28615392  0.51369861
   0.28111122  0.42569379  0.52078551
   0.28527157  0.57140442  0.51612549
   0.28537117  0.71525805  0.51046177
   0.28539966  0.85817440  0.50874815
   0.42827826  0.00127399  0.50611339
   0.42801418  0.14372382  0.50450827
   0.42588891  0.28317878  0.50451122
   0.42684681  0.71788547  0.50563819
   0.42809717  0.85875334  0.50597816
   0.57091939  0.00134191  0.50212188
   0.57094302  0.14380942  0.50182468
   0.57187994  0.28732875  0.49479359
   0.57170209  0.85893294  0.49696080
   0.71367738  0.00060394  0.49635560
   0.71375899  0.14362808  0.50037351
   0.71388135  0.28657782  0.49638537
   0.71411046  0.42868703  0.48278393
   0.72192051  0.57498093  0.45603117
   0.72381914  0.71934580  0.45547241
   0.71284987  0.85774576  0.48367827
   0.85624477  0.00026508  0.49473968
   0.85605353  0.14311214  0.49976691
   0.85624950  0.28607859  0.50015471
   0.85705238  0.42918306  0.49548800
   0.85848449  0.57270653  0.48855862
   0.86021770  0.71631580  0.48355578
   0.85737094  0.85755981  0.48858995
   0.04628450  0.09508834  0.50377087
   0.04534534  0.23741526  0.50477304
   0.04580806  0.38088554  0.50527767
   0.04734460  0.52426391  0.50460872
   0.04788909  0.66742621  0.50410537
   0.04791515  0.81041465  0.50326170
   0.04725840  0.95292773  0.50350519
   0.18950903  0.09535454  0.50786048
   0.18825511  0.23754844  0.50931835
   0.18659705  0.37946130  0.51186745
   0.18929739  0.52361894  0.51033378
   0.19023657  0.66737840  0.50938660
   0.19045892  0.81041896  0.50855423
   0.19027577  0.95309548  0.50794369
   0.33286344  0.09601038  0.50718915
   0.33284320  0.23808955  0.50927213
   0.32762322  0.37840285  0.52245094
   0.32513047  0.51939035  0.52616670
   0.33399892  0.66851624  0.51169095
   0.33300875  0.81047406  0.50862018
   0.33289648  0.95327237  0.50789542
   0.47578848  0.09625226  0.50413472
   0.47496013  0.23888821  0.50111657
   0.47513135  0.81102118  0.50279138
   0.47584089  0.95394244  0.50484899
   0.61843636  0.09627244  0.50166549
   0.61876577  0.23907597  0.49779170
   0.62089046  0.38047354  0.48533052
   0.61987737  0.81392922  0.48897556
   0.61865241  0.95377294  0.49837529
   0.76119363  0.09592874  0.49917045
   0.76133178  0.23865461  0.49932478
   0.76190950  0.38163267  0.49157997
   0.76376967  0.52596418  0.47514340
   0.76721628  0.66883945  0.46334300
   0.76207119  0.80979427  0.47547015
   0.76120860  0.95298222  0.49119586
   0.90337340  0.09502472  0.49919283
   0.90346291  0.23822538  0.50140933
   0.90397808  0.38146406  0.49992128
   0.90515369  0.52470159  0.49623034
   0.90624648  0.66780631  0.49133811
   0.90575763  0.81078348  0.49128584
   0.90394325  0.95234905  0.49575052
   0.46156693  0.35564220  0.50283945
   0.39974189  0.41637710  0.52858756
   0.65141672  0.54080923  0.43984423
   0.58516482  0.41712285  0.48108377
   0.58337251  0.74176056  0.48722790
   0.46360607  0.68272482  0.50283387
   0.55476223  0.53456887  0.55626965
   0.51470049  0.54204680  0.46768627
   0.41536098  0.55953084  0.54247219
   0.63634147  0.67256426  0.42734171
   0.52961675  0.50283334  0.50080400
Direct configuration=     7
   0.99896374  0.99993256  0.50150944
   0.99841512  0.14254394  0.50255938
   0.99845140  0.28565303  0.50370347
   0.99908770  0.42894897  0.50329112
   0.00004661  0.57211909  0.50221258
   0.00094477  0.71532104  0.50055638
   0.00051393  0.85818219  0.50030235
   0.14241505  0.00063877  0.50693760
   0.14131140  0.14266017  0.50681209
   0.14032226  0.28474847  0.50852996
   0.14083236  0.42838684  0.50917652
   0.14245662  0.57176151  0.50786311
   0.14298157  0.71496550  0.50789698
   0.14293743  0.85800978  0.50726944
   0.28528809  0.00063581  0.50809176
   0.28477229  0.14298114  0.50834574
   0.28373620  0.28615455  0.51376526
   0.28111395  0.42569461  0.52091840
   0.28526941  0.57140106  0.51621245
   0.28537492  0.71525700  0.51050198
   0.28539897  0.85817179  0.50875501
   0.42827926  0.00127308  0.50611035
   0.42801473  0.14372367  0.50450455
   0.42589192  0.28317927  0.50451984
   0.42684607  0.71787749  0.50566190
   0.42809792  0.85875063  0.50597625
   0.57091726  0.00134147  0.50210403
   0.57094432  0.14380747  0.50180816
   0.57188111  0.28732899  0.49476045
   0.57169770  0.85893062  0.49692498
   0.71367431  0.00060433  0.49631769
   0.71375935  0.14362830  0.50034273
   0.71388255  0.28658023  0.49634988
   0.71411026  0.42868653  0.48273914
   0.72191729  0.57498310  0.45600030
   0.72381651  0.71935195  0.45544625
   0.71285039  0.85774693  0.48364068
   0.85624546  0.00026948  0.49470351
   0.85605218  0.14311272  0.49973672
   0.85624968  0.28607902  0.50011951
   0.85705591  0.42918536  0.49545645
   0.85848300  0.57270563  0.48853087
   0.86021801  0.71632056  0.48351758
   0.85737444  0.85756676  0.48855068
   0.04628528  0.09509110  0.50376533
   0.04534993  0.23741826  0.50477411
   0.04580969  0.38088383  0.50527661
   0.04734755  0.52426518  0.50460286
   0.04789133  0.66742574  0.50410445
   0.04791404  0.81041168  0.50324868
   0.04725798  0.95292940  0.50348887
   0.18950901  0.09535534  0.50787156
   0.18825976  0.23755087  0.50935421
   0.18660221  0.37946105  0.51193256
   0.18929839  0.52361769  0.51038166
   0.19024119  0.66738469  0.50940620
   0.19045840  0.81041720  0.50856216
   0.19027395  0.95309548  0.50794014
   0.33286430  0.09601013  0.50719432
   0.33284658  0.23808886  0.50930843
   0.32761906  0.37839516  0.52259325
   0.32513225  0.51939549  0.52631719
   0.33399875  0.66851217  0.51175079
   0.33301007  0.81046912  0.50863432
   0.33289634  0.95327058  0.50789617
   0.47578965  0.09625115  0.50412813
   0.47496243  0.23888848  0.50110619
   0.47512721  0.81101621  0.50278300
   0.47583929  0.95393884  0.50483886
   0.61843343  0.09627005  0.50164295
   0.61876516  0.23907496  0.49775953
   0.62088868  0.38047327  0.48528576
   0.61987643  0.81393389  0.48893527
   0.61864874  0.95377321  0.49834581
   0.76119202  0.09592928  0.49913629
   0.76132907  0.23865523  0.49929075
   0.76190799  0.38163333  0.49154140
   0.76376796  0.52596536  0.47510882
   0.76721684  0.66884262  0.46330128
   0.76207440  0.80980030  0.47543264
   0.76121047  0.95298634  0.49116528
   0.90337584  0.09502762  0.49916385
   0.90346251  0.23822352  0.50138462
   0.90398075  0.38146532  0.49989690
   0.90515346  0.52470087  0.49620463
   0.90624752  0.66780623  0.49130258
   0.90575962  0.81078706  0.49124886
   0.90394554  0.95235323  0.49571801
   0.46156648  0.35564230  0.50284059
   0.39973363  0.41636790  0.52878938
   0.65141603  0.54081143  0.43979140
   0.58516340  0.41712365  0.48104627
   0.58337271  0.74176502  0.48719012
   0.46360054  0.68271084  0.50284692
   0.55484200  0.53472427  0.55633063
   0.51472833  0.54193419  0.46770622
   0.41535636  0.55955000  0.54268799
   0.63632045  0.67255753  0.42736208
   0.52950321  0.50276335  0.50106946
Direct configuration=     8
   0.99896370  0.99993560  0.50148244
   0.99842030  0.14255008  0.50254405
   0.99845164  0.28565188  0.50369336
   0.99909550  0.42895074  0.50327497
   0.00004748  0.57211813  0.50219471
   0.00094540  0.71531732  0.50053893
   0.00051305  0.85818244  0.50027240
   0.14241665  0.00063911  0.50693209
   0.14131428  0.14266460  0.50682501
   0.14032779  0.28475044  0.50857878
   0.14083587  0.42838544  0.50922148
   0.14246111  0.57176345  0.50788485
   0.14298298  0.71496593  0.50791417
   0.14293623  0.85800621  0.50726756
   0.28528643  0.00063212  0.50809124
   0.28477366  0.14298029  0.50836985
   0.28373592  0.28615317  0.51385641
   0.28111002  0.42569366  0.52109184
   0.28526726  0.57139936  0.51632385
   0.28537869  0.71525719  0.51054783
   0.28539984  0.85816829  0.50876199
   0.42827912  0.00126996  0.50610447
   0.42801909  0.14372487  0.50449993
   0.42589406  0.28317881  0.50453052
   0.42684468  0.71786821  0.50569081
   0.42809660  0.85874634  0.50597396
   0.57091845  0.00133907  0.50208043
   0.57094414  0.14380461  0.50178623
   0.57188078  0.28732833  0.49471565
   0.57169186  0.85892872  0.49688018
   0.71366934  0.00060393  0.49627199
   0.71375804  0.14363084  0.50030348
   0.71388379  0.28658354  0.49630268
   0.71410773  0.42868688  0.48267910
   0.72191160  0.57498759  0.45596244
   0.72381298  0.71935853  0.45541439
   0.71285354  0.85775115  0.48359514
   0.85624956  0.00027497  0.49465613
   0.85604940  0.14311468  0.49969963
   0.85624960  0.28607917  0.50007367
   0.85705395  0.42918447  0.49541634
   0.85848028  0.57270407  0.48849237
   0.86021334  0.71632385  0.48346732
   0.85738122  0.85757637  0.48850154
   0.04628918  0.09509533  0.50375704
   0.04535514  0.23742147  0.50477520
   0.04581563  0.38088433  0.50527454
   0.04735175  0.52426740  0.50459432
   0.04789137  0.66742344  0.50410233
   0.04791502  0.81040981  0.50323306
   0.04725658  0.95293031  0.50346703
   0.18950698  0.09535497  0.50788508
   0.18826475  0.23755384  0.50939932
   0.18660949  0.37946170  0.51201931
   0.18929908  0.52361692  0.51044256
   0.19024582  0.66739104  0.50942718
   0.19045541  0.81041573  0.50856903
   0.19026939  0.95309318  0.50793654
   0.33286328  0.09600774  0.50720051
   0.33284806  0.23808772  0.50935484
   0.32761588  0.37838371  0.52277439
   0.32513760  0.51940132  0.52651110
   0.33399998  0.66850695  0.51182817
   0.33300908  0.81046681  0.50865138
   0.33289559  0.95326741  0.50789702
   0.47578983  0.09625042  0.50412113
   0.47496481  0.23888814  0.50109075
   0.47512350  0.81101009  0.50277236
   0.47583825  0.95393613  0.50482620
   0.61843395  0.09626959  0.50161265
   0.61876307  0.23907256  0.49771835
   0.62088787  0.38047375  0.48522980
   0.61987552  0.81393738  0.48888202
   0.61864601  0.95377537  0.49830619
   0.76119228  0.09593042  0.49909017
   0.76132814  0.23865945  0.49925177
   0.76191051  0.38163505  0.49149054
   0.76376303  0.52596743  0.47506304
   0.76721352  0.66884804  0.46325032
   0.76207701  0.80980870  0.47538205
   0.76120823  0.95298767  0.49112633
   0.90337918  0.09503281  0.49912660
   0.90346153  0.23822270  0.50135078
   0.90397947  0.38146608  0.49986583