  95  95   0   0
  0.4078826E+02  0.1727104E-08  0.1727104E-08  0.1500000E-08  0.0000000E+00
  1.000000000000000E-004
  CAR 
 unknown system                          
      5.68773679    -23.97294128  301     -2.73569175      1.00000000
    -23.973  0.0000E+00  0.0000E+00  0.0000E+00  0.0000E+00
    -23.874  0.0000E+00  0.0000E+00  0.0000E+00  0.0000E+00
    -23.775  0.0000E+00  0.0000E+00  0.0000E+00  0.0000E+00
    -23.676  0.0000E+00  0.0000E+00  0.0000E+00  0.0000E+00
    -23.577  0.0000E+00  0.0000E+00  0.0000E+00  0.0000E+00
    -23.479  0.0000E+00  0.0000E+00  0.0000E+00  0.0000E+00
    -23.380  0.0000E+00  0.0000E+00  0.0000E+00  0.0000E+00
    -23.281  0.0000E+00  0.0000E+00  0.0000E+00  0.0000E+00
    -23.182  0.0000E+00  0.0000E+00  0.0000E+00  0.0000E+00
    -23.083  0.0000E+00  0.0000E+00  0.0000E+00  0.0000E+00
    -22.984  0.0000E+00  0.0000E+00  0.0000E+00  0.0000E+00
    -22.885  0.7811E-15  0.7811E-15  0.7723E-16  0.7723E-16
    -22.787  0.2275E-07  0.2275E-07  0.2250E-08  0.2250E-08
    -22.688  0.3710E-03  0.3710E-03  0.3669E-04  0.3669E-04
    -22.589  0.8153E-02  0.8153E-02  0.8428E-03  0.8428E-03
    -22.490  0.1639E-02  0.1639E-02  0.1005E-02  0.1005E-02
    -22.391  0.6185E-02  0.6185E-02  0.1616E-02  0.1616E-02
    -22.292  0.1913E-01  0.1913E-01  0.3508E-02  0.3508E-02
    -22.193  0.1225E-01  0.1225E-01  0.4719E-02  0.4719E-02
    -22.094  0.2838E-02  0.2838E-02  0.5000E-02  0.5000E-02
    -21.996  0.4078E-05  0.4078E-05  0.5000E-02  0.5000E-02
    -21.897  0.3411E-09  0.3411E-09  0.5000E-02  0.5000E-02
    -21.798  0.4203E-04  0.4203E-04  0.5004E-02  0.5004E-02
    -21.699  0.6064E-02  0.6064E-02  0.5604E-02  0.5604E-02
    -21.600  0.1162E-01  0.1162E-01  0.6753E-02  0.6753E-02
    -21.501  0.4722E-02  0.4722E-02  0.7219E-02  0.7219E-02
    -21.402  0.4701E-02  0.4701E-02  0.7684E-02  0.7684E-02
    -21.303  0.3789E-02  0.3789E-02  0.8059E-02  0.8059E-02
    -21.205  0.4517E-02  0.4517E-02  0.8505E-02  0.8505E-02
    -21.106  0.5929E-02  0.5929E-02  0.9092E-02  0.9092E-02
    -21.007  0.6633E-02  0.6633E-02  0.9747E-02  0.9747E-02
    -20.908  0.5758E-02  0.5758E-02  0.1032E-01  0.1032E-01
    -20.809  0.5497E-02  0.5497E-02  0.1086E-01  0.1086E-01
    -20.710  0.8067E-02  0.8067E-02  0.1166E-01  0.1166E-01
    -20.611  0.6331E-02  0.6331E-02  0.1228E-01  0.1228E-01
    -20.513  0.6487E-02  0.6487E-02  0.1292E-01  0.1292E-01
    -20.414  0.6818E-02  0.6818E-02  0.1360E-01  0.1360E-01
    -20.315  0.9247E-02  0.9247E-02  0.1451E-01  0.1451E-01
    -20.216  0.6525E-02  0.6525E-02  0.1516E-01  0.1516E-01
    -20.117  0.3390E-02  0.3390E-02  0.1549E-01  0.1549E-01
    -20.018  0.2310E-03  0.2310E-03  0.1552E-01  0.1552E-01
    -19.919  0.1011E-01  0.1011E-01  0.1652E-01  0.1652E-01
    -19.820  0.7425E-02  0.7425E-02  0.1725E-01  0.1725E-01
    -19.722  0.4741E-02  0.4741E-02  0.1772E-01  0.1772E-01
    -19.623  0.1096E-01  0.1096E-01  0.1880E-01  0.1880E-01
    -19.524  0.1079E-01  0.1079E-01  0.1987E-01  0.1987E-01
    -19.425  0.7492E-02  0.7492E-02  0.2061E-01  0.2061E-01
    -19.326  0.6593E-02  0.6593E-02  0.2126E-01  0.2126E-01
    -19.227  0.2565E-02  0.2565E-02  0.2152E-01  0.2152E-01
    -19.128  0.6052E-02  0.6052E-02  0.2211E-01  0.2211E-01
    -19.029  0.4224E-02  0.4224E-02  0.2253E-01  0.2253E-01
    -18.931  0.3392E-02  0.3392E-02  0.2287E-01  0.2287E-01
    -18.832  0.4694E-02  0.4694E-02  0.2333E-01  0.2333E-01
    -18.733  0.1521E-01  0.1521E-01  0.2484E-01  0.2484E-01
    -18.634  0.1617E-01  0.1617E-01  0.2643E-01  0.2643E-01
    -18.535  0.3784E-02  0.3784E-02  0.2681E-01  0.2681E-01
    -18.436  0.2701E-02  0.2701E-02  0.2708E-01  0.2708E-01
    -18.337  0.1080E-01  0.1080E-01  0.2814E-01  0.2814E-01
    -18.239  0.7063E-02  0.7063E-02  0.2884E-01  0.2884E-01
    -18.140  0.3856E-02  0.3856E-02  0.2922E-01  0.2922E-01
    -18.041  0.3197E-02  0.3197E-02  0.2954E-01  0.2954E-01
    -17.942  0.5188E-02  0.5188E-02  0.3005E-01  0.3005E-01
    -17.843  0.8222E-02  0.8222E-02  0.3086E-01  0.3086E-01
    -17.744  0.7765E-02  0.7765E-02  0.3163E-01  0.3163E-01
    -17.645  0.9213E-02  0.9213E-02  0.3254E-01  0.3254E-01
    -17.546  0.1452E-01  0.1452E-01  0.3398E-01  0.3398E-01
    -17.448  0.1120E-01  0.1120E-01  0.3509E-01  0.3509E-01
    -17.349  0.1013E-01  0.1013E-01  0.3609E-01  0.3609E-01
    -17.250  0.4895E-02  0.4895E-02  0.3657E-01  0.3657E-01
    -17.151  0.6080E-02  0.6080E-02  0.3717E-01  0.3717E-01
    -17.052  0.8214E-02  0.8214E-02  0.3799E-01  0.3799E-01
    -16.953  0.4326E-02  0.4326E-02  0.3841E-01  0.3841E-01
    -16.854  0.3723E-02  0.3723E-02  0.3878E-01  0.3878E-01
    -16.756  0.7028E-02  0.7028E-02  0.3948E-01  0.3948E-01
    -16.657  0.5769E-02  0.5769E-02  0.4005E-01  0.4005E-01
    -16.558  0.1846E-01  0.1846E-01  0.4187E-01  0.4187E-01
    -16.459  0.1419E-01  0.1419E-01  0.4327E-01  0.4327E-01
    -16.360  0.4055E-02  0.4055E-02  0.4368E-01  0.4368E-01
    -16.261  0.2983E-02  0.2983E-02  0.4397E-01  0.4397E-01
    -16.162  0.3042E-03  0.3042E-03  0.4400E-01  0.4400E-01
    -16.063  0.4795E-06  0.4795E-06  0.4400E-01  0.4400E-01
    -15.965  0.5281E-03  0.5281E-03  0.4405E-01  0.4405E-01
    -15.866  0.3193E-02  0.3193E-02  0.4437E-01  0.4437E-01
    -15.767  0.6368E-02  0.6368E-02  0.4500E-01  0.4500E-01
    -15.668  0.5600E-02  0.5600E-02  0.4555E-01  0.4555E-01
    -15.569  0.6408E-02  0.6408E-02  0.4618E-01  0.4618E-01
    -15.470  0.7054E-02  0.7054E-02  0.4688E-01  0.4688E-01
    -15.371  0.5673E-02  0.5673E-02  0.4744E-01  0.4744E-01
    -15.272  0.7005E-02  0.7005E-02  0.4814E-01  0.4814E-01
    -15.174  0.1633E-01  0.1633E-01  0.4975E-01  0.4975E-01
    -15.075  0.1055E-01  0.1055E-01  0.5079E-01  0.5079E-01
    -14.976  0.3852E-02  0.3852E-02  0.5117E-01  0.5117E-01
    -14.877  0.7005E-02  0.7005E-02  0.5187E-01  0.5187E-01
    -14.778  0.1078E-01  0.1078E-01  0.5293E-01  0.5293E-01
    -14.679  0.8921E-02  0.8921E-02  0.5381E-01  0.5381E-01
    -14.580  0.6889E-02  0.6889E-02  0.5450E-01  0.5450E-01
    -14.482  0.7796E-02  0.7796E-02  0.5527E-01  0.5527E-01
    -14.383  0.1328E-01  0.1328E-01  0.5658E-01  0.5658E-01
    -14.284  0.1035E-01  0.1035E-01  0.5760E-01  0.5760E-01
    -14.185  0.5755E-02  0.5755E-02  0.5817E-01  0.5817E-01
    -14.086  0.5307E-02  0.5307E-02  0.5870E-01  0.5870E-01
    -13.987  0.2545E-02  0.2545E-02  0.5895E-01  0.5895E-01
    -13.888  0.3875E-02  0.3875E-02  0.5933E-01  0.5933E-01
    -13.789  0.6171E-02  0.6171E-02  0.5994E-01  0.5994E-01
    -13.691  0.1058E-01  0.1058E-01  0.6099E-01  0.6099E-01
    -13.592  0.1193E-01  0.1193E-01  0.6217E-01  0.6217E-01
    -13.493  0.7085E-02  0.7085E-02  0.6287E-01  0.6287E-01
    -13.394  0.6847E-02  0.6847E-02  0.6354E-01  0.6354E-01
    -13.295  0.4916E-02  0.4916E-02  0.6403E-01  0.6403E-01
    -13.196  0.4630E-02  0.4630E-02  0.6449E-01  0.6449E-01
    -13.097  0.1728E-02  0.1728E-02  0.6466E-01  0.6466E-01
    -12.998  0.6159E-02  0.6159E-02  0.6527E-01  0.6527E-01
    -12.900  0.6893E-02  0.6893E-02  0.6595E-01  0.6595E-01
    -12.801  0.7236E-02  0.7236E-02  0.6667E-01  0.6667E-01
    -12.702  0.9273E-02  0.9273E-02  0.6758E-01  0.6758E-01
    -12.603  0.1715E-01  0.1715E-01  0.6928E-01  0.6928E-01
    -12.504  0.1010E-01  0.1010E-01  0.7028E-01  0.7028E-01
    -12.405  0.1085E-01  0.1085E-01  0.7135E-01  0.7135E-01
    -12.306  0.4202E-02  0.4202E-02  0.7176E-01  0.7176E-01
    -12.208  0.5565E-02  0.5565E-02  0.7231E-01  0.7231E-01
    -12.109  0.3600E-02  0.3600E-02  0.7267E-01  0.7267E-01
    -12.010  0.7730E-02  0.7730E-02  0.7343E-01  0.7343E-01
    -11.911  0.5681E-02  0.5681E-02  0.7400E-01  0.7400E-01
    -11.812  0.8052E-02  0.8052E-02  0.7479E-01  0.7479E-01
    -11.713  0.9884E-02  0.9884E-02  0.7577E-01  0.7577E-01
    -11.614  0.1053E-01  0.1053E-01  0.7681E-01  0.7681E-01
    -11.515  0.1047E-01  0.1047E-01  0.7785E-01  0.7785E-01
    -11.417  0.1490E-01  0.1490E-01  0.7932E-01  0.7932E-01
    -11.318  0.8832E-02  0.8832E-02  0.8019E-01  0.8019E-01
    -11.219  0.8896E-02  0.8896E-02  0.8107E-01  0.8107E-01
    -11.120  0.1072E-01  0.1072E-01  0.8213E-01  0.8213E-01
    -11.021  0.1163E-01  0.1163E-01  0.8328E-01  0.8328E-01
    -10.922  0.8045E-02  0.8045E-02  0.8408E-01  0.8408E-01
    -10.823  0.7826E-02  0.7826E-02  0.8485E-01  0.8485E-01
    -10.725  0.8994E-02  0.8994E-02  0.8574E-01  0.8574E-01
    -10.626  0.9413E-02  0.9413E-02  0.8667E-01  0.8667E-01
    -10.527  0.4871E-02  0.4871E-02  0.8715E-01  0.8715E-01
    -10.428  0.8475E-02  0.8475E-02  0.8799E-01  0.8799E-01
    -10.329  0.1295E-01  0.1295E-01  0.8927E-01  0.8927E-01
    -10.230  0.1531E-01  0.1531E-01  0.9079E-01  0.9079E-01
    -10.131  0.1540E-01  0.1540E-01  0.9231E-01  0.9231E-01
    -10.032  0.2025E-01  0.2025E-01  0.9431E-01  0.9431E-01
     -9.934  0.1657E-01  0.1657E-01  0.9595E-01  0.9595E-01
     -9.835  0.1544E-01  0.1544E-01  0.9747E-01  0.9747E-01
     -9.736  0.1312E-01  0.1312E-01  0.9877E-01  0.9877E-01
     -9.637  0.1968E-01  0.1968E-01  0.1007E+00  0.1007E+00
     -9.538  0.1826E-01  0.1826E-01  0.1025E+00  0.1025E+00
     -9.439  0.1751E-01  0.1751E-01  0.1043E+00  0.1043E+00
     -9.340  0.1498E-01  0.1498E-01  0.1057E+00  0.1057E+00
     -9.241  0.1622E-01  0.1622E-01  0.1073E+00  0.1073E+00
     -9.143  0.2388E-01  0.2388E-01  0.1097E+00  0.1097E+00
     -9.044  0.2810E-01  0.2810E-01  0.1125E+00  0.1125E+00
     -8.945  0.2472E-01  0.2472E-01  0.1149E+00  0.1149E+00
     -8.846  0.2276E-01  0.2276E-01  0.1172E+00  0.1172E+00
     -8.747  0.1677E-01  0.1677E-01  0.1188E+00  0.1188E+00
     -8.648  0.1504E-01  0.1504E-01  0.1203E+00  0.1203E+00
     -8.549  0.1671E-01  0.1671E-01  0.1220E+00  0.1220E+00
     -8.451  0.1573E-01  0.1573E-01  0.1235E+00  0.1235E+00
     -8.352  0.1898E-01  0.1898E-01  0.1254E+00  0.1254E+00
     -8.253  0.2588E-01  0.2588E-01  0.1280E+00  0.1280E+00
     -8.154  0.1805E-01  0.1805E-01  0.1297E+00  0.1297E+00
     -8.055  0.1458E-01  0.1458E-01  0.1312E+00  0.1312E+00
     -7.956  0.1658E-01  0.1658E-01  0.1328E+00  0.1328E+00
     -7.857  0.1735E-01  0.1735E-01  0.1345E+00  0.1345E+00
     -7.758  0.5157E-02  0.5157E-02  0.1351E+00  0.1351E+00
     -7.660  0.1161E-01  0.1161E-01  0.1362E+00  0.1362E+00
     -7.561  0.1177E-01  0.1177E-01  0.1374E+00  0.1374E+00
     -7.462  0.2161E-01  0.2161E-01  0.1395E+00  0.1395E+00
     -7.363  0.1968E-01  0.1968E-01  0.1414E+00  0.1414E+00
     -7.264  0.1843E-01  0.1843E-01  0.1433E+00  0.1433E+00
     -7.165  0.1363E-01  0.1363E-01  0.1446E+00  0.1446E+00
     -7.066  0.1326E-01  0.1326E-01  0.1459E+00  0.1459E+00
     -6.967  0.1486E-01  0.1486E-01  0.1474E+00  0.1474E+00
     -6.869  0.1010E-01  0.1010E-01  0.1484E+00  0.1484E+00
     -6.770  0.9214E-02  0.9214E-02  0.1493E+00  0.1493E+00
     -6.671  0.1447E-01  0.1447E-01  0.1507E+00  0.1507E+00
     -6.572  0.1272E-01  0.1272E-01  0.1520E+00  0.1520E+00
     -6.473  0.1384E-01  0.1384E-01  0.1534E+00  0.1534E+00
     -6.374  0.1759E-01  0.1759E-01  0.1551E+00  0.1551E+00
     -6.275  0.2261E-01  0.2261E-01  0.1573E+00  0.1573E+00
     -6.177  0.1510E-01  0.1510E-01  0.1588E+00  0.1588E+00
     -6.078  0.6218E-02  0.6218E-02  0.1594E+00  0.1594E+00
     -5.979  0.1202E-01  0.1202E-01  0.1606E+00  0.1606E+00
     -5.880  0.1304E-01  0.1304E-01  0.1619E+00  0.1619E+00
     -5.781  0.9532E-02  0.9532E-02  0.1629E+00  0.1629E+00
     -5.682  0.3910E-02  0.3910E-02  0.1632E+00  0.1632E+00
     -5.583  0.4855E-02  0.4855E-02  0.1637E+00  0.1637E+00
     -5.484  0.2015E-02  0.2015E-02  0.1639E+00  0.1639E+00
     -5.386  0.4593E-02  0.4593E-02  0.1644E+00  0.1644E+00
     -5.287  0.7970E-02  0.7970E-02  0.1652E+00  0.1652E+00
     -5.188  0.2123E-01  0.2123E-01  0.1673E+00  0.1673E+00
     -5.089  0.1385E-01  0.1385E-01  0.1686E+00  0.1686E+00
     -4.990  0.1922E-01  0.1922E-01  0.1705E+00  0.1705E+00
     -4.891  0.1332E-01  0.1332E-01  0.1719E+00  0.1719E+00
     -4.792  0.1105E-01  0.1105E-01  0.1729E+00  0.1729E+00
     -4.694  0.8677E-02  0.8677E-02  0.1738E+00  0.1738E+00
     -4.595  0.1188E-01  0.1188E-01  0.1750E+00  0.1750E+00
     -4.496  0.1405E-01  0.1405E-01  0.1764E+00  0.1764E+00
     -4.397  0.2192E-01  0.2192E-01  0.1785E+00  0.1785E+00
     -4.298  0.6771E-02  0.6771E-02  0.1792E+00  0.1792E+00
     -4.199  0.1141E-01  0.1141E-01  0.1803E+00  0.1803E+00
     -4.100  0.7795E-02  0.7795E-02  0.1811E+00  0.1811E+00
     -4.001  0.8468E-02  0.8468E-02  0.1819E+00  0.1819E+00
     -3.903  0.5858E-03  0.5858E-03  0.1820E+00  0.1820E+00
     -3.804  0.8265E-03  0.8265E-03  0.1821E+00  0.1821E+00
     -3.705  0.1716E-02  0.1716E-02  0.1823E+00  0.1823E+00
     -3.606  0.3770E-02  0.3770E-02  0.1826E+00  0.1826E+00
     -3.507  0.3855E-02  0.3855E-02  0.1830E+00  0.1830E+00
     -3.408  0.2105E-02  0.2105E-02  0.1832E+00  0.1832E+00
     -3.309  0.5665E-03  0.5665E-03  0.1833E+00  0.1833E+00
     -3.210  0.2119E-02  0.2119E-02  0.1835E+00  0.1835E+00
     -3.112  0.2127E-03  0.2127E-03  0.1835E+00  0.1835E+00
     -3.013  0.6031E-03  0.6031E-03  0.1836E+00  0.1836E+00
     -2.914  0.2522E-02  0.2522E-02  0.1838E+00  0.1838E+00
     -2.815  0.1890E-02  0.1890E-02  0.1840E+00  0.1840E+00
     -2.716  0.4142E-04  0.4142E-04  0.1840E+00  0.1840E+00
     -2.617  0.3948E-03  0.3948E-03  0.1840E+00  0.1840E+00
     -2.518  0.3491E-02  0.3491E-02  0.1844E+00  0.1844E+00
     -2.420  0.1168E-02  0.1168E-02  0.1845E+00  0.1845E+00
     -2.321  0.3573E-05  0.3573E-05  0.1845E+00  0.1845E+00
     -2.222  0.1472E-04  0.1472E-04  0.1845E+00  0.1845E+00
     -2.123  0.2557E-02  0.2557E-02  0.1848E+00  0.1848E+00
     -2.024  0.2492E-02  0.2492E-02  0.1850E+00  0.1850E+00
     -1.925  0.2512E-02  0.2512E-02  0.1852E+00  0.1852E+00
     -1.826  0.4086E-02  0.4086E-02  0.1857E+00  0.1857E+00
     -1.727  0.3157E-02  0.3157E-02  0.1860E+00  0.1860E+00
     -1.629  0.3701E-03  0.3701E-03  0.1860E+00  0.1860E+00
     -1.530  0.3445E-02  0.3445E-02  0.1863E+00  0.1863E+00
     -1.431  0.8832E-02  0.8832E-02  0.1872E+00  0.1872E+00
     -1.332  0.2754E-02  0.2754E-02  0.1875E+00  0.1875E+00
     -1.233  0.2215E-03  0.2215E-03  0.1875E+00  0.1875E+00
     -1.134  0.4972E-02  0.4972E-02  0.1880E+00  0.1880E+00
     -1.035  0.1561E-01  0.1561E-01  0.1895E+00  0.1895E+00
     -0.936  0.1291E-01  0.1291E-01  0.1908E+00  0.1908E+00
     -0.838  0.5069E-02  0.5069E-02  0.1913E+00  0.1913E+00
     -0.739  0.1030E-01  0.1030E-01  0.1923E+00  0.1923E+00
     -0.640  0.1126E-01  0.1126E-01  0.1935E+00  0.1935E+00
     -0.541  0.5848E-02  0.5848E-02  0.1940E+00  0.1940E+00
     -0.442  0.3261E-02  0.3261E-02  0.1944E+00  0.1944E+00
     -0.343  0.8026E-02  0.8026E-02  0.1951E+00  0.1951E+00
     -0.244  0.9783E-02  0.9783E-02  0.1961E+00  0.1961E+00
     -0.146  0.1018E-01  0.1018E-01  0.1971E+00  0.1971E+00
     -0.047  0.1028E-01  0.1028E-01  0.1981E+00  0.1981E+00
      0.052  0.1169E-01  0.1169E-01  0.1993E+00  0.1993E+00
      0.151  0.5418E-02  0.5418E-02  0.1998E+00  0.1998E+00
      0.250  0.1699E-02  0.1699E-02  0.2000E+00  0.2000E+00
      0.349  0.1338E-02  0.1338E-02  0.2001E+00  0.2001E+00
      0.448  0.7214E-02  0.7214E-02  0.2008E+00  0.2008E+00
      0.547  0.9113E-02  0.9113E-02  0.2017E+00  0.2017E+00
      0.645  0.6726E-02  0.6726E-02  0.2024E+00  0.2024E+00
      0.744  0.5103E-02  0.5103E-02  0.2029E+00  0.2029E+00
      0.843  0.5020E-02  0.5020E-02  0.2034E+00  0.2034E+00
      0.942  0.8327E-02  0.8327E-02  0.2042E+00  0.2042E+00
      1.041  0.1239E-01  0.1239E-01  0.2055E+00  0.2055E+00
      1.140  0.3412E-02  0.3412E-02  0.2058E+00  0.2058E+00
      1.239  0.7637E-02  0.7637E-02  0.2066E+00  0.2066E+00
      1.338  0.1755E-01  0.1755E-01  0.2083E+00  0.2083E+00
      1.436  0.2228E-01  0.2228E-01  0.2105E+00  0.2105E+00
      1.535  0.9098E-02  0.9098E-02  0.2114E+00  0.2114E+00
      1.634  0.7655E-02  0.7655E-02  0.2121E+00  0.2121E+00
      1.733  0.6860E-02  0.6860E-02  0.2128E+00  0.2128E+00
      1.832  0.9762E-02  0.9762E-02  0.2138E+00  0.2138E+00
      1.931  0.1649E-01  0.1649E-01  0.2154E+00  0.2154E+00
      2.030  0.2906E-01  0.2906E-01  0.2183E+00  0.2183E+00
      2.128  0.1141E-01  0.1141E-01  0.2194E+00  0.2194E+00
      2.227  0.1232E-01  0.1232E-01  0.2206E+00  0.2206E+00
      2.326  0.1927E-01  0.1927E-01  0.2225E+00  0.2225E+00
      2.425  0.2420E-01  0.2420E-01  0.2249E+00  0.2249E+00
      2.524  0.1335E-01  0.1335E-01  0.2263E+00  0.2263E+00
      2.623  0.7570E-02  0.7570E-02  0.2270E+00  0.2270E+00
      2.722  0.1612E-01  0.1612E-01  0.2286E+00  0.2286E+00
      2.821  0.2271E-01  0.2271E-01  0.2308E+00  0.2308E+00
      2.919  0.5490E-01  0.5490E-01  0.2363E+00  0.2363E+00
      3.018  0.2718E-01  0.2718E-01  0.2390E+00  0.2390E+00
      3.117  0.9865E-02  0.9865E-02  0.2399E+00  0.2399E+00
      3.216  0.1310E-01  0.1310E-01  0.2412E+00  0.2412E+00
      3.315  0.1628E-01  0.1628E-01  0.2428E+00  0.2428E+00
      3.414  0.1910E-01  0.1910E-01  0.2447E+00  0.2447E+00
      3.513  0.2493E-01  0.2493E-01  0.2472E+00  0.2472E+00
      3.611  0.1253E-01  0.1253E-01  0.2484E+00  0.2484E+00
      3.710  0.1291E-01  0.1291E-01  0.2497E+00  0.2497E+00
      3.809  0.2601E-01  0.2601E-01  0.2523E+00  0.2523E+00
      3.908  0.2987E-01  0.2987E-01  0.2552E+00  0.2552E+00
      4.007  0.2162E-01  0.2162E-01  0.2574E+00  0.2574E+00
      4.106  0.1255E-01  0.1255E-01  0.2586E+00  0.2586E+00
      4.205  0.1529E-01  0.1529E-01  0.2601E+00  0.2601E+00
      4.304  0.3494E-01  0.3494E-01  0.2636E+00  0.2636E+00
      4.402  0.1413E-01  0.1413E-01  0.2650E+00  0.2650E+00
      4.501  0.2403E-03  0.2403E-03  0.2650E+00  0.2650E+00
      4.600  0.9404E-08  0.9406E-08  0.2650E+00  0.2650E+00
      4.699  0.2678E-15  0.2678E-15  0.2650E+00  0.2650E+00
      4.798  0.0000E+00  0.0000E+00  0.2650E+00  0.2650E+00
      4.897  0.0000E+00  0.0000E+00  0.2650E+00  0.2650E+00
      4.996  0.0000E+00  0.0000E+00  0.2650E+00  0.2650E+00
      5.095  0.0000E+00  0.0000E+00  0.2650E+00  0.2650E+00
      5.193  0.0000E+00  0.0000E+00  0.2650E+00  0.2650E+00
      5.292  0.0000E+00  0.0000E+00  0.2650E+00  0.2650E+00
      5.391  0.0000E+00  0.0000E+00  0.2650E+00  0.2650E+00
      5.490  0.0000E+00  0.0000E+00  0.2650E+00  0.2650E+00
      5.589  0.0000E+00  0.0000E+00  0.2650E+00  0.2650E+00
      5.688  0.0000E+00  0.0000E+00  0.2650E+00  0.2650E+00
