       N       E                     dE             d eps       ncg     rms          rms(c)
DAV:   1     0.327812011231E+04    0.32781E+04   -0.13759E+05  4590   0.105E+03
DAV:   2    -0.234809074094E+03   -0.35129E+04   -0.33088E+04  6420   0.257E+02
DAV:   3    -0.852968673909E+03   -0.61816E+03   -0.61532E+03  5340   0.112E+02
DAV:   4    -0.875141794951E+03   -0.22173E+02   -0.22086E+02  5420   0.266E+01
DAV:   5    -0.875785280670E+03   -0.64349E+00   -0.64266E+00  6060   0.383E+00    0.513E+01
DAV:   6    -0.859375583665E+03    0.16410E+02   -0.20979E+01  5120   0.704E+00    0.334E+01
DAV:   7    -0.838275242462E+03    0.21100E+02   -0.30820E+01  4990   0.826E+00    0.202E+01
DAV:   8    -0.833579986371E+03    0.46953E+01   -0.23514E+01  5080   0.711E+00    0.797E+00
DAV:   9    -0.833493990233E+03    0.85996E-01   -0.10249E+00  5020   0.177E+00    0.322E+00
DAV:  10    -0.833396062316E+03    0.97928E-01   -0.37419E-01  4890   0.101E+00    0.848E-01
DAV:  11    -0.833385485634E+03    0.10577E-01   -0.66384E-02  4870   0.437E-01    0.259E-01
DAV:  12    -0.833384991291E+03    0.49434E-03   -0.66184E-03  5300   0.159E-01    0.133E-01
DAV:  13    -0.833384889037E+03    0.10225E-03   -0.15981E-03  5235   0.807E-02    0.712E-02
DAV:  14    -0.833384956916E+03   -0.67878E-04   -0.27419E-04  5120   0.326E-02    0.446E-02
DAV:  15    -0.833384993230E+03   -0.36314E-04   -0.63290E-05  4900   0.159E-02    0.182E-02
DAV:  16    -0.833384994975E+03   -0.17454E-05   -0.11983E-05  5060   0.679E-03    0.961E-03
DAV:  17    -0.833384994161E+03    0.81381E-06   -0.67062E-06  5040   0.537E-03
   1 F= -.84101837E+03 E0= -.84101837E+03  d E =-.841018E+03  mag=     0.0001
       N       E                     dE             d eps       ncg     rms          rms(c)
DAV:   1    -0.833385061488E+03   -0.66513E-04   -0.25638E-03  4500   0.575E-02    0.132E-02
DAV:   2    -0.833385063766E+03   -0.22787E-05   -0.45648E-05  4540   0.733E-03    0.878E-03
DAV:   3    -0.833385063053E+03    0.71323E-06   -0.31423E-06  3690   0.241E-03
   2 F= -.84101844E+03 E0= -.84101844E+03  d E =-.660379E-04  mag=    -0.0000
       N       E                     dE             d eps       ncg     rms          rms(c)
DAV:   1    -0.833385154926E+03   -0.91160E-04   -0.73476E-03  4410   0.895E-02    0.228E-02
DAV:   2    -0.833385160280E+03   -0.53543E-05   -0.11607E-04  4560   0.105E-02    0.153E-02
DAV:   3    -0.833385159646E+03    0.63401E-06   -0.56041E-06  3790   0.301E-03
   3 F= -.84101853E+03 E0= -.84101853E+03  d E =-.896187E-04  mag=     0.0000
       N       E                     dE             d eps       ncg     rms          rms(c)
DAV:   1    -0.833385283738E+03   -0.12346E-03   -0.10038E-02  4400   0.110E-01    0.255E-02
DAV:   2    -0.833385290913E+03   -0.71748E-05   -0.14163E-04  4440   0.124E-02    0.182E-02
DAV:   3    -0.833385291384E+03   -0.47094E-06   -0.34339E-06  3580   0.272E-03
   4 F= -.84101865E+03 E0= -.84101865E+03  d E =-.119425E-03  mag=    -0.0000
       N       E                     dE             d eps       ncg     rms          rms(c)
DAV:   1    -0.833385464208E+03   -0.17329E-03   -0.11204E-02  4360   0.123E-01    0.257E-02
DAV:   2    -0.833385473667E+03   -0.94595E-05   -0.15382E-04  4480   0.137E-02    0.196E-02
DAV:   3    -0.833385473917E+03   -0.25033E-06   -0.28354E-06  3660   0.277E-03
   5 F= -.84101881E+03 E0= -.84101881E+03  d E =-.165190E-03  mag=     0.0000
       N       E                     dE             d eps       ncg     rms          rms(c)
DAV:   1    -0.833385663541E+03   -0.18987E-03   -0.14416E-02  4370   0.141E-01    0.294E-02
DAV:   2    -0.833385676791E+03   -0.13250E-04   -0.20479E-04  4420   0.159E-02    0.224E-02
DAV:   3    -0.833385676770E+03    0.20540E-07   -0.37341E-06  3780   0.315E-03
   6 F= -.84101900E+03 E0= -.84101900E+03  d E =-.184518E-03  mag=    -0.0000
       N       E                     dE             d eps       ncg     rms          rms(c)
DAV:   1    -0.833385873985E+03   -0.19719E-03   -0.22038E-02  4340   0.173E-01    0.359E-02
DAV:   2    -0.833385894830E+03   -0.20845E-04   -0.32701E-04  4420   0.198E-02    0.260E-02
DAV:   3    -0.833385895354E+03   -0.52435E-06   -0.55302E-06  4030   0.373E-03
   7 F= -.84101920E+03 E0= -.84101920E+03  d E =-.201743E-03  mag=     0.0000
       N       E                     dE             d eps       ncg     rms          rms(c)
DAV:   1    -0.833386152220E+03   -0.25739E-03   -0.39409E-02  4340   0.226E-01    0.485E-02
DAV:   2    -0.833386191305E+03   -0.39084E-04   -0.62863E-04  4360   0.262E-02    0.333E-02
DAV:   3    -0.833386192231E+03   -0.92635E-06   -0.12292E-05  4560   0.526E-03    0.238E-02
DAV:   4    -0.833386205295E+03   -0.13064E-04   -0.15080E-05  3960   0.532E-03    0.444E-03
DAV:   5    -0.833386205948E+03   -0.65295E-06   -0.23543E-06  3420   0.208E-03
   8 F= -.84101949E+03 E0= -.84101949E+03  d E =-.293413E-03  mag=    -0.0000
       N       E                     dE             d eps       ncg     rms          rms(c)
DAV:   1    -0.833386491269E+03   -0.28597E-03   -0.64031E-02  4320   0.288E-01    0.603E-02
DAV:   2    -0.833386566390E+03   -0.75121E-04   -0.11171E-03  4400   0.350E-02    0.410E-02
DAV:   3    -0.833386565331E+03    0.10588E-05   -0.19809E-05  4820   0.683E-03    0.298E-02
DAV:   4    -0.833386583279E+03   -0.17947E-04   -0.31250E-05  4180   0.768E-03    0.586E-03
DAV:   5    -0.833386584478E+03   -0.11993E-05   -0.48253E-06  3720   0.301E-03    0.405E-03
DAV:   6    -0.833386584236E+03    0.24227E-06   -0.13395E-06  3220   0.186E-03
   9 F= -.84101985E+03 E0= -.84101985E+03  d E =-.361576E-03  mag=     0.0000
       N       E                     dE             d eps       ncg     rms          rms(c)
DAV:   1    -0.833386951008E+03   -0.36653E-03   -0.84230E-02  4280   0.338E-01    0.670E-02
DAV:   2    -0.833387049700E+03   -0.98692E-04   -0.14014E-03  4410   0.407E-02    0.486E-02
DAV:   3    -0.833387047699E+03    0.20005E-05   -0.21701E-05  4900   0.755E-03    0.361E-02
DAV:   4    -0.833387076835E+03   -0.29136E-04   -0.68500E-05  4240   0.110E-02    0.909E-03
DAV:   5    -0.833387076094E+03    0.74109E-06   -0.85998E-06  4180   0.430E-03
  10 F= -.84102033E+03 E0= -.84102033E+03  d E =-.474559E-03  mag=    -0.0000
       N       E                     dE             d eps       ncg     rms          rms(c)
DAV:   1    -0.833387474798E+03   -0.39796E-03   -0.12215E-01  4310   0.415E-01    0.813E-02
DAV:   2    -0.833387621372E+03   -0.14657E-03   -0.20161E-03  4455   0.500E-02    0.604E-02
DAV:   3    -0.833387618204E+03    0.31672E-05   -0.34619E-05  4880   0.969E-03    0.449E-02
DAV:   4    -0.833387665340E+03   -0.47135E-04   -0.11287E-04  4275   0.142E-02    0.146E-02
DAV:   5    -0.833387662151E+03    0.31885E-05   -0.15622E-05  4600   0.606E-03    0.975E-03
DAV:   6    -0.833387661754E+03    0.39701E-06   -0.15178E-05  3935   0.466E-03    0.337E-03
DAV:   7    -0.833387661662E+03    0.92092E-07   -0.85857E-07  3340   0.136E-03
  11 F= -.84102089E+03 E0= -.84102089E+03  d E =-.557304E-03  mag=     0.0000
       N       E                     dE             d eps       ncg     rms          rms(c)
DAV:   1    -0.833388024726E+03   -0.36297E-03   -0.23203E-01  4290   0.563E-01    0.112E-01
DAV:   2    -0.833388321239E+03   -0.29651E-03   -0.40191E-03  4400   0.688E-02    0.787E-02
DAV:   3    -0.833388311321E+03    0.99183E-05   -0.65548E-05  4920   0.129E-02    0.583E-02
DAV:   4    -0.833388368266E+03   -0.56946E-04   -0.15673E-04  4440   0.175E-02    0.126E-02
DAV:   5    -0.833388369316E+03   -0.10491E-05   -0.21746E-05  4680   0.686E-03    0.102E-02
DAV:   6    -0.833388368035E+03    0.12802E-05   -0.11184E-05  3995   0.481E-03    0.434E-03
DAV:   7    -0.833388367897E+03    0.13834E-06   -0.12629E-06  3560   0.181E-03
  12 F= -.84102156E+03 E0= -.84102156E+03  d E =-.674234E-03  mag=    -0.0000
       N       E                     dE             d eps       ncg     rms          rms(c)
DAV:   1    -0.833388605950E+03   -0.23791E-03   -0.36603E-01  4280   0.737E-01    0.143E-01
DAV:   2    -0.833389100643E+03   -0.49469E-03   -0.65661E-03  4440   0.916E-02    0.992E-02
DAV:   3    -0.833389077150E+03    0.23493E-04   -0.11606E-04  4920   0.178E-02    0.730E-02
DAV:   4    -0.833389150116E+03   -0.72966E-04   -0.22358E-04  4440   0.227E-02    0.168E-02
DAV:   5    -0.833389153715E+03   -0.35990E-05   -0.33214E-05  4680   0.896E-03    0.122E-02
DAV:   6    -0.833389152357E+03    0.13586E-05   -0.16642E-05  4240   0.620E-03    0.540E-03
DAV:   7    -0.833389152191E+03    0.16559E-06   -0.16733E-06  3790   0.226E-03
  13 F= -.84102230E+03 E0= -.84102230E+03  d E =-.743288E-03  mag=     0.0000
       N       E                     dE             d eps       ncg     rms          rms(c)
DAV:   1    -0.833388684882E+03    0.46748E-03   -0.61085E-01  4240   0.107E+00    0.180E-01
DAV:   2    -0.833389645178E+03   -0.96030E-03   -0.12025E-02  4550   0.143E-01    0.133E-01
DAV:   3    -0.833389561833E+03    0.83345E-04   -0.25825E-04  5100   0.288E-02    0.101E-01
DAV:   4    -0.833389621285E+03   -0.59452E-04   -0.55473E-04  4460   0.400E-02    0.310E-02
DAV:   5    -0.833389630497E+03   -0.92120E-05   -0.84993E-05  4640   0.158E-02    0.220E-02
DAV:   6    -0.833389628847E+03    0.16504E-05   -0.50102E-05  4440   0.108E-02    0.856E-03
DAV:   7    -0.833389628339E+03    0.50819E-06   -0.41580E-06  4000   0.372E-03
  14 F= -.84102269E+03 E0= -.84102269E+03  d E =-.390356E-03  mag=    -0.0000
       N       E                     dE             d eps       ncg     rms          rms(c)
DAV:   1    -0.833390352809E+03   -0.72396E-03   -0.42173E-02  4300   0.419E-01    0.483E-02
DAV:   2    -0.833390437783E+03   -0.84974E-04   -0.11725E-03  5160   0.640E-02    0.420E-02
DAV:   3    -0.833390417505E+03    0.20278E-04   -0.53474E-05  5580   0.138E-02    0.321E-02
DAV:   4    -0.833390400545E+03    0.16960E-04   -0.40832E-05  4380   0.137E-02    0.150E-02
DAV:   5    -0.833390399671E+03    0.87397E-06   -0.13405E-05  4560   0.685E-03    0.637E-03
DAV:   6    -0.833390399774E+03   -0.10327E-06   -0.11688E-06  3040   0.223E-03
  15 F= -.84102347E+03 E0= -.84102347E+03  d E =-.777905E-03  mag=    -0.0000
       N       E                     dE             d eps       ncg     rms          rms(c)
DAV:   1    -0.833389844848E+03    0.55482E-03   -0.36879E-02  4265   0.381E-01    0.462E-02
DAV:   2    -0.833389919447E+03   -0.74599E-04   -0.10060E-03  4840   0.578E-02    0.377E-02
DAV:   3    -0.833389903694E+03    0.15753E-04   -0.45637E-05  5595   0.129E-02    0.282E-02
DAV:   4    -0.833389894151E+03    0.95429E-05   -0.30027E-05  4380   0.117E-02    0.134E-02
DAV:   5    -0.833389894380E+03   -0.22868E-06   -0.97773E-06  4295   0.590E-03
  16 F= -.84102296E+03 E0= -.84102296E+03  d E =0.507036E-03  mag=    -0.0000
       N       E                     dE             d eps       ncg     rms          rms(c)
DAV:   1    -0.833390170196E+03   -0.27605E-03   -0.21636E-03  4300   0.948E-02    0.108E-02
DAV:   2    -0.833390174135E+03   -0.39395E-05   -0.61765E-05  5120   0.146E-02    0.991E-03
DAV:   3    -0.833390172911E+03    0.12247E-05   -0.26647E-06  3480   0.320E-03    0.772E-03
DAV:   4    -0.833390171723E+03    0.11874E-05   -0.39136E-06  3900   0.397E-03    0.331E-03
DAV:   5    -0.833390171685E+03    0.38643E-07   -0.66684E-07  2640   0.157E-03
  17 F= -.84102324E+03 E0= -.84102324E+03  d E =-.274817E-03  mag=     0.0000
       N       E                     dE             d eps       ncg     rms          rms(c)
DAV:   1    -0.833390464528E+03   -0.29280E-03   -0.65706E-03  4320   0.165E-01    0.191E-02
DAV:   2    -0.833390477979E+03   -0.13450E-04   -0.18069E-04  5200   0.250E-02    0.164E-02
DAV:   3    -0.833390474975E+03    0.30032E-05   -0.81096E-06  5420   0.539E-03    0.126E-02
DAV:   4    -0.833390472584E+03    0.23910E-05   -0.67008E-06  4280   0.549E-03    0.586E-03
DAV:   5    -0.833390472520E+03    0.63883E-07   -0.18154E-06  3180   0.257E-03
  18 F= -.84102354E+03 E0= -.84102353E+03  d E =-.295919E-03  mag=     0.0000
       N       E                     dE             d eps       ncg     rms          rms(c)
DAV:   1    -0.833390519393E+03   -0.46809E-04   -0.91002E-03  4300   0.193E-01    0.223E-02
DAV:   2    -0.833390538542E+03   -0.19149E-04   -0.25051E-04  5080   0.293E-02    0.191E-02
DAV:   3    -0.833390534694E+03    0.38482E-05   -0.10619E-05  5540   0.617E-03    0.148E-02
DAV:   4    -0.833390531637E+03    0.30573E-05   -0.94466E-06  4240   0.651E-03    0.672E-03
DAV:   5    -0.833390531620E+03    0.16516E-07   -0.24641E-06  3400   0.297E-03
  19 F= -.84102359E+03 E0= -.84102359E+03  d E =-.519185E-04  mag=     0.0000
       N       E                     dE             d eps       ncg     rms          rms(c)
DAV:   1    -0.833390537926E+03   -0.62890E-05   -0.10964E-05  4100   0.650E-03    0.159E-03
DAV:   2    -0.833390537919E+03    0.63883E-08   -0.41325E-07  2340   0.123E-03
  20 F= -.84102359E+03 E0= -.84102359E+03  d E =-.623505E-05  mag=     0.0000
       N       E                     dE             d eps       ncg     rms          rms(c)
DAV:   1    -0.833390549323E+03   -0.11398E-04   -0.36295E-05  4260   0.116E-02    0.175E-03
DAV:   2    -0.833390549350E+03   -0.27008E-07   -0.78463E-07  2580   0.166E-03
  21 F= -.84102360E+03 E0= -.84102360E+03  d E =-.112938E-04  mag=    -0.0000
       N       E                     dE             d eps       ncg     rms          rms(c)
DAV:   1    -0.833390564171E+03   -0.14847E-04   -0.76691E-05  4260   0.167E-02    0.286E-03
DAV:   2    -0.833390564234E+03   -0.63235E-07   -0.17366E-06  3100   0.244E-03
  22 F= -.84102362E+03 E0= -.84102362E+03  d E =-.146185E-04  mag=    -0.0000
       N       E                     dE             d eps       ncg     rms          rms(c)
DAV:   1    -0.833390580340E+03   -0.16169E-04   -0.12150E-04  4260   0.206E-02    0.390E-03
DAV:   2    -0.833390580435E+03   -0.95242E-07   -0.27367E-06  3520   0.296E-03
  23 F= -.84102363E+03 E0= -.84102363E+03  d E =-.157701E-04  mag=     0.0000
       N       E                     dE             d eps       ncg     rms          rms(c)
DAV:   1    -0.833390596065E+03   -0.15726E-04   -0.16459E-04  4260   0.233E-02    0.475E-03
DAV:   2    -0.833390596167E+03   -0.10116E-06   -0.34463E-06  3700   0.323E-03
  24 F= -.84102365E+03 E0= -.84102365E+03  d E =-.150800E-04  mag=    -0.0000
       N       E                     dE             d eps       ncg     rms          rms(c)
DAV:   1    -0.833390610745E+03   -0.14680E-04   -0.19984E-04  4260   0.243E-02    0.533E-03
DAV:   2    -0.833390610833E+03   -0.87864E-07   -0.39415E-06  3510   0.329E-03
  25 F= -.84102366E+03 E0= -.84102366E+03  d E =-.137180E-04  mag=     0.0000
       N       E                     dE             d eps       ncg     rms          rms(c)
DAV:   1    -0.833390626338E+03   -0.15593E-04   -0.28077E-04  4260   0.264E-02    0.609E-03
DAV:   2    -0.833390626439E+03   -0.10143E-06   -0.52251E-06  3430   0.346E-03
  26 F= -.84102368E+03 E0= -.84102368E+03  d E =-.141582E-04  mag=    -0.0000
       N       E                     dE             d eps       ncg     rms          rms(c)
DAV:   1    -0.833390645781E+03   -0.19443E-04   -0.38822E-04  4280   0.271E-02    0.706E-03
DAV:   2    -0.833390645881E+03   -0.99230E-07   -0.65786E-06  3130   0.338E-03
  27 F= -.84102370E+03 E0= -.84102369E+03  d E =-.173497E-04  mag=     0.0000
       N       E                     dE             d eps       ncg     rms          rms(c)
DAV:   1    -0.833390673291E+03   -0.27510E-04   -0.56366E-04  4250   0.286E-02    0.827E-03
DAV:   2    -0.833390673407E+03   -0.11556E-06   -0.88987E-06  3220   0.339E-03
  28 F= -.84102372E+03 E0= -.84102372E+03  d E =-.247862E-04  mag=    -0.0000
       N       E                     dE             d eps       ncg     rms          rms(c)
DAV:   1    -0.833390711818E+03   -0.38527E-04   -0.87604E-04  4265   0.348E-02    0.101E-02
DAV:   2    -0.833390712090E+03   -0.27214E-06   -0.13704E-05  3550   0.413E-03    0.753E-03
DAV:   3    -0.833390712542E+03   -0.45183E-06   -0.44953E-07  3020   0.118E-03
  29 F= -.84102376E+03 E0= -.84102375E+03  d E =-.354651E-04  mag=    -0.0000
       N       E                     dE             d eps       ncg     rms          rms(c)
DAV:   1    -0.833390761554E+03   -0.49464E-04   -0.13685E-03  4250   0.463E-02    0.892E-03
DAV:   2    -0.833390762957E+03   -0.14023E-05   -0.23569E-05  4195   0.569E-03    0.612E-03
DAV:   3    -0.833390762987E+03   -0.30101E-07   -0.41821E-07  3295   0.112E-03
  30 F= -.84102380E+03 E0= -.84102380E+03  d E =-.458313E-04  mag=    -0.0000
       N       E                     dE             d eps       ncg     rms          rms(c)
DAV:   1    -0.833390819951E+03   -0.56994E-04   -0.21783E-03  4265   0.599E-02    0.112E-02
DAV:   2    -0.833390822262E+03   -0.23115E-05   -0.38115E-05  4300   0.739E-03    0.783E-03
DAV:   3    -0.833390822224E+03    0.37813E-07   -0.69424E-07  3415   0.145E-03
  31 F= -.84102385E+03 E0= -.84102385E+03  d E =-.534429E-04  mag=     0.0000
       N       E                     dE             d eps       ncg     rms          rms(c)
DAV:   1    -0.833390886160E+03   -0.63898E-04   -0.33020E-03  4260   0.714E-02    0.139E-02
DAV:   2    -0.833390889549E+03   -0.33887E-05   -0.55898E-05  4340   0.861E-03    0.963E-03
DAV:   3    -0.833390889532E+03    0.16968E-07   -0.98371E-07  3460   0.165E-03
  32 F= -.84102392E+03 E0= -.84102391E+03  d E =-.604462E-04  mag=     0.0000
       N       E                     dE             d eps       ncg     rms          rms(c)
DAV:   1    -0.833390966524E+03   -0.76975E-04   -0.48645E-03  4280   0.818E-02    0.168E-02
DAV:   2    -0.833390971172E+03   -0.46480E-05   -0.77995E-05  4320   0.953E-03    0.115E-02
DAV:   3    -0.833390971263E+03   -0.91219E-07   -0.12794E-06  3360   0.176E-03
  33 F= -.84102399E+03 E0= -.84102399E+03  d E =-.737403E-04  mag=     0.0000
       N       E                     dE             d eps       ncg     rms          rms(c)
DAV:   1    -0.833391069747E+03   -0.98576E-04   -0.72200E-03  4300   0.993E-02    0.204E-02
DAV:   2    -0.833391076806E+03   -0.70586E-05   -0.11618E-04  4320   0.115E-02    0.138E-02
DAV:   3    -0.833391076927E+03   -0.12117E-06   -0.18552E-06  3320   0.212E-03
  34 F= -.84102409E+03 E0= -.84102409E+03  d E =-.966732E-04  mag=     0.0000
       N       E                     dE             d eps       ncg     rms          rms(c)
DAV:   1    -0.833391194668E+03   -0.11786E-03   -0.10937E-02  4280   0.125E-01    0.251E-02
DAV:   2    -0.833391205936E+03   -0.11268E-04   -0.17953E-04  4330   0.147E-02    0.171E-02
DAV:   3    -0.833391206037E+03   -0.10047E-06   -0.29246E-06  3320   0.271E-03
  35 F= -.84102420E+03 E0= -.84102420E+03  d E =-.117518E-03  mag=     0.0000
       N       E                     dE             d eps       ncg     rms          rms(c)
DAV:   1    -0.833391341275E+03   -0.13534E-03   -0.16396E-02  4280   0.151E-01    0.308E-02
DAV:   2    -0.833391357882E+03   -0.16608E-04   -0.26485E-04  4330   0.176E-02    0.210E-02
DAV:   3    -0.833391358180E+03   -0.29800E-06   -0.42246E-06  3510   0.319E-03
  36 F= -.84102434E+03 E0= -.84102434E+03  d E =-.136859E-03  mag=     0.0000
       N       E                     dE             d eps       ncg     rms          rms(c)
DAV:   1    -0.833391524321E+03   -0.16644E-03   -0.23973E-02  4300   0.180E-01    0.370E-02
DAV:   2    -0.833391547517E+03   -0.23197E-04   -0.37715E-04  4330   0.207E-02    0.252E-02
DAV:   3    -0.833391548231E+03   -0.71346E-06   -0.59223E-06  3680   0.374E-03
  37 F= -.84102451E+03 E0= -.84102451E+03  d E =-.170943E-03  mag=    -0.0000
       N       E                     dE             d eps       ncg     rms          rms(c)
DAV:   1    -0.833391739068E+03   -0.19155E-03   -0.36260E-02  4280   0.224E-01    0.454E-02
DAV:   2    -0.833391776057E+03   -0.36989E-04   -0.58340E-04  4330   0.262E-02    0.309E-02
DAV:   3    -0.833391776380E+03   -0.32262E-06   -0.95322E-06  4380   0.478E-03
  38 F= -.84102472E+03 E0= -.84102472E+03  d E =-.205324E-03  mag=     0.0000
       N       E                     dE             d eps       ncg     rms          rms(c)
DAV:   1    -0.833391992229E+03   -0.21617E-03   -0.55068E-02  4300   0.274E-01    0.561E-02
DAV:   2    -0.833392047462E+03   -0.55233E-04   -0.87588E-04  4305   0.317E-02    0.381E-02
DAV:   3    -0.833392048742E+03   -0.12798E-05   -0.14346E-05  4490   0.576E-03    0.276E-02
DAV:   4    -0.833392068738E+03   -0.19996E-04   -0.27285E-05  4120   0.721E-03    0.533E-03
DAV:   5    -0.833392068849E+03   -0.11158E-06   -0.35123E-06  3640   0.272E-03
  39 F= -.84102498E+03 E0= -.84102498E+03  d E =-.265651E-03  mag=    -0.0000
       N       E                     dE             d eps       ncg     rms          rms(c)
DAV:   1    -0.833392274637E+03   -0.20590E-03   -0.83990E-02  4320   0.339E-01    0.658E-02
DAV:   2    -0.833392370808E+03   -0.96170E-04   -0.14143E-03  4325   0.406E-02    0.450E-02
DAV:   3    -0.833392367768E+03    0.30393E-05   -0.21142E-05  4630   0.728E-03    0.333E-02
DAV:   4    -0.833392395484E+03   -0.27716E-04   -0.59083E-05  4215   0.105E-02    0.844E-03
DAV:   5    -0.833392394958E+03    0.52617E-06   -0.68691E-06  3960   0.386E-03
  40 F= -.84102528E+03 E0= -.84102528E+03  d E =-.293649E-03  mag=    -0.0000
       N       E                     dE             d eps       ncg     rms          rms(c)
DAV:   1    -0.833392599496E+03   -0.20401E-03   -0.12538E-01  4320   0.409E-01    0.800E-02
DAV:   2    -0.833392744718E+03   -0.14522E-03   -0.20886E-03  4330   0.488E-02    0.547E-02
DAV:   3    -0.833392738698E+03    0.60192E-05   -0.30569E-05  4680   0.867E-03    0.406E-02
DAV:   4    -0.833392779491E+03   -0.40793E-04   -0.91414E-05  4235   0.128E-02    0.107E-02
DAV:   5    -0.833392778508E+03    0.98375E-06   -0.10288E-05  4320   0.461E-03    0.915E-03
DAV:   6    -0.833392777294E+03    0.12136E-05   -0.13026E-05  4060   0.464E-03    0.328E-03
DAV:   7    -0.833392777271E+03    0.22446E-07   -0.88872E-07  3400   0.137E-03
  41 F= -.84102562E+03 E0= -.84102562E+03  d E =-.341959E-03  mag=    -0.0000
       N       E                     dE             d eps       ncg     rms          rms(c)
DAV:   1    -0.833392972200E+03   -0.19491E-03   -0.18218E-01  4320   0.497E-01    0.961E-02
DAV:   2    -0.833393182197E+03   -0.21000E-03   -0.29897E-03  4330   0.592E-02    0.661E-02
DAV:   3    -0.833393172662E+03    0.95357E-05   -0.45938E-05  4760   0.107E-02    0.487E-02
DAV:   4    -0.833393224179E+03   -0.51518E-04   -0.13250E-04  4335   0.156E-02    0.127E-02
DAV:   5    -0.833393222916E+03    0.12637E-05   -0.15251E-05  4620   0.574E-03    0.106E-02
DAV:   6    -0.833393221610E+03    0.13054E-05   -0.18594E-05  4040   0.561E-03    0.418E-03
DAV:   7    -0.833393221552E+03    0.57895E-07   -0.12708E-06  3440   0.167E-03
  42 F= -.84102601E+03 E0= -.84102601E+03  d E =-.391907E-03  mag=    -0.0000
       N       E                     dE             d eps       ncg     rms          rms(c)
DAV:   1    -0.833393381676E+03   -0.16007E-03   -0.27558E-01  4320   0.610E-01    0.118E-01
DAV:   2    -0.833393705156E+03   -0.32348E-03   -0.45005E-03  4330   0.727E-02    0.805E-02
DAV:   3    -0.833393688408E+03    0.16748E-04   -0.70697E-05  4800   0.132E-02    0.592E-02
DAV:   4    -0.833393755605E+03   -0.67197E-04   -0.19090E-04  4430   0.188E-02    0.147E-02
DAV:   5    -0.833393754402E+03    0.12025E-05   -0.22300E-05  4660   0.693E-03    0.123E-02
DAV:   6    -0.833393752840E+03    0.15617E-05   -0.25718E-05  4120   0.666E-03    0.518E-03
DAV:   7    -0.833393752725E+03    0.11521E-06   -0.18025E-06  3530   0.200E-03
  43 F= -.84102647E+03 E0= -.84102647E+03  d E =-.464590E-03  mag=    -0.0000
       N       E                     dE             d eps       ncg     rms          rms(c)
DAV:   1    -0.833393761079E+03   -0.82388E-05   -0.41230E-01  4300   0.746E-01    0.146E-01
DAV:   2    -0.833394280061E+03   -0.51898E-03   -0.69603E-03  4340   0.896E-02    0.977E-02
DAV:   3    -0.833394251653E+03    0.28408E-04   -0.10904E-04  4780   0.163E-02    0.719E-02
DAV:   4    -0.833394332691E+03   -0.81037E-04   -0.26684E-04  4590   0.226E-02    0.171E-02
DAV:   5    -0.833394332701E+03   -0.10310E-07   -0.32627E-05  4680   0.834E-03    0.140E-02
DAV:   6    -0.833394330815E+03    0.18859E-05   -0.29831E-05  4180   0.735E-03    0.588E-03
DAV:   7    -0.833394330645E+03    0.17034E-06   -0.22418E-06  3580   0.232E-03
  44 F= -.84102698E+03 E0= -.84102697E+03  d E =-.501334E-03  mag=    -0.0000
       N       E                     dE             d eps       ncg     rms          rms(c)
DAV:   1    -0.833394164310E+03    0.16651E-03   -0.57990E-01  4320   0.901E-01    0.172E-01
DAV:   2    -0.833394944964E+03   -0.78065E-03   -0.10005E-02  4380   0.109E-01    0.117E-01
DAV:   3    -0.833394900290E+03    0.44674E-04   -0.15854E-04  4920   0.200E-02    0.865E-02
DAV:   4    -0.833394990259E+03   -0.89969E-04   -0.42102E-04  4670   0.290E-02    0.225E-02
DAV:   5    -0.833394989059E+03    0.12000E-05   -0.50825E-05  4680   0.108E-02    0.185E-02
DAV:   6    -0.833394986024E+03    0.30347E-05   -0.57023E-05  4300   0.102E-02    0.775E-03
DAV:   7    -0.833394985685E+03    0.33903E-06   -0.41511E-06  3540   0.315E-03
  45 F= -.84102753E+03 E0= -.84102753E+03  d E =-.550460E-03  mag=    -0.0000
       N       E                     dE             d eps       ncg     rms          rms(c)
DAV:   1    -0.833394407658E+03    0.57837E-03   -0.81962E-01  4260   0.112E+00    0.207E-01
DAV:   2    -0.833395601327E+03   -0.11937E-02   -0.14928E-02  4480   0.140E-01    0.140E-01
DAV:   3    -0.833395530264E+03    0.71063E-04   -0.25392E-04  4900   0.265E-02    0.104E-01
DAV:   4    -0.833395617355E+03   -0.87090E-04   -0.57248E-04  4530   0.368E-02    0.278E-02
DAV:   5    -0.833395621255E+03   -0.39006E-05   -0.78708E-05  4680   0.142E-02    0.210E-02
DAV:   6    -0.833395619118E+03    0.21377E-05   -0.61397E-05  4500   0.112E-02    0.877E-03
DAV:   7    -0.833395618614E+03    0.50413E-06   -0.50589E-06  3940   0.381E-03
  46 F= -.84102804E+03 E0= -.84102804E+03  d E =-.515561E-03  mag=    -0.0000
       N       E                     dE             d eps       ncg     rms          rms(c)
DAV:   1    -0.833395883770E+03   -0.26465E-03   -0.41764E-02  4240   0.307E-01    0.423E-02
DAV:   2    -0.833395945543E+03   -0.61772E-04   -0.82792E-04  4610   0.425E-02    0.330E-02
DAV:   3    -0.833395935540E+03    0.10003E-04   -0.27244E-05  5240   0.923E-03    0.249E-02
DAV:   4    -0.833395930529E+03    0.50104E-05   -0.21600E-05  4350   0.895E-03    0.104E-02
DAV:   5    -0.833395931733E+03   -0.12033E-05   -0.81868E-06  4260   0.474E-03    0.436E-03
DAV:   6    -0.833395931760E+03   -0.27227E-07   -0.98917E-07  3360   0.186E-03
  47 F= -.84102837E+03 E0= -.84102837E+03  d E =-.330496E-03  mag=    -0.0000
       N       E                     dE             d eps       ncg     rms          rms(c)
DAV:   1    -0.833395696054E+03    0.23568E-03   -0.10294E-01  4240   0.413E-01    0.629E-02
DAV:   2    -0.833395836031E+03   -0.13998E-03   -0.17988E-03  4570   0.542E-02    0.479E-02
DAV:   3    -0.833395820825E+03    0.15206E-04   -0.48159E-05  5060   0.114E-02    0.365E-02
DAV:   4    -0.833395817485E+03    0.33400E-05   -0.50456E-05  4460   0.121E-02    0.128E-02
DAV:   5    -0.833395820981E+03   -0.34952E-05   -0.13743E-05  4380   0.554E-03    0.620E-03
DAV:   6    -0.833395820880E+03    0.10061E-06   -0.17300E-06  3300   0.241E-03
  48 F= -.84102829E+03 E0= -.84102829E+03  d E =0.789115E-04  mag=    -0.0000
       N       E                     dE             d eps       ncg     rms          rms(c)
DAV:   1    -0.833395788328E+03    0.32652E-04   -0.15126E-01  4260   0.398E-01    0.688E-02
DAV:   2    -0.833395953971E+03   -0.16564E-03   -0.20455E-03  4430   0.443E-02    0.542E-02
DAV:   3    -0.833395941147E+03    0.12824E-04   -0.39980E-05  4820   0.857E-03    0.422E-02
DAV:   4    -0.833395947490E+03   -0.63432E-05   -0.97355E-05  4240   0.115E-02    0.781E-03
DAV:   5    -0.833395948865E+03   -0.13746E-05   -0.12903E-05  4060   0.450E-03    0.644E-03
DAV:   6    -0.833395948277E+03    0.58770E-06   -0.16402E-06  3320   0.211E-03
  49 F= -.84102847E+03 E0= -.84102847E+03  d E =-.174561E-03  mag=    -0.0000
       N       E                     dE             d eps       ncg     rms          rms(c)
DAV:   1    -0.833396110887E+03   -0.16202E-03   -0.21190E-01  4240   0.541E-01    0.834E-02
DAV:   2    -0.833396383480E+03   -0.27259E-03   -0.32552E-03  4560   0.658E-02    0.674E-02
DAV:   3    -0.833396360866E+03    0.22614E-04   -0.67158E-05  5020   0.127E-02    0.536E-02
DAV:   4    -0.833396360062E+03    0.80337E-06   -0.16880E-04  4400   0.198E-02    0.126E-02
DAV:   5    -0.833396361621E+03   -0.15592E-05   -0.25493E-05  4680   0.783E-03    0.978E-03
DAV:   6    -0.833396361295E+03    0.32679E-06   -0.52555E-06  3880   0.383E-03
  50 F= -.84102894E+03 E0= -.84102894E+03  d E =-.470356E-03  mag=    -0.0000
       N       E                     dE             d eps       ncg     rms          rms(c)
DAV:   1    -0.833396237625E+03    0.12400E-03   -0.26741E-01  4240   0.569E-01    0.919E-02
DAV:   2    -0.833396566920E+03   -0.32930E-03   -0.38623E-03  4490   0.664E-02    0.745E-02
DAV:   3    -0.833396542669E+03    0.24250E-04   -0.78925E-05  5060   0.128E-02    0.589E-02
DAV:   4    -0.833396545367E+03   -0.26982E-05   -0.19786E-04  4460   0.194E-02    0.136E-02
DAV:   5    -0.833396546545E+03   -0.11772E-05   -0.27497E-05  4660   0.786E-03    0.104E-02
DAV:   6    -0.833396546163E+03    0.38196E-06   -0.69036E-06  3930   0.419E-03
  51 F= -.84102918E+03 E0= -.84102918E+03  d E =-.242428E-03  mag=    -0.0000
       N       E                     dE             d eps       ncg     rms          rms(c)
DAV:   1    -0.833396656550E+03   -0.11001E-03   -0.28382E-01  4240   0.568E-01    0.919E-02
DAV:   2    -0.833396998258E+03   -0.34171E-03   -0.39692E-03  4480   0.651E-02    0.753E-02
DAV:   3    -0.833396973648E+03    0.24610E-04   -0.78944E-05  5060   0.124E-02    0.599E-02
DAV:   4    -0.833396975422E+03   -0.17738E-05   -0.22145E-04  4520   0.187E-02    0.121E-02
DAV:   5    -0.833396976284E+03   -0.86139E-06   -0.27692E-05  4640   0.745E-03    0.991E-03
DAV:   6    -0.833396975275E+03    0.10091E-05   -0.52756E-06  3900   0.372E-03    0.461E-03
DAV:   7    -0.833396974870E+03    0.40489E-06   -0.14190E-06  3680   0.185E-03
  52 F= -.84102966E+03 E0= -.84102966E+03  d E =-.478066E-03  mag=    -0.0000
       N       E                     dE             d eps       ncg     rms          rms(c)
DAV:   1    -0.833396980086E+03   -0.48110E-05   -0.31781E-01  4240   0.649E-01    0.100E-01
DAV:   2    -0.833397385431E+03   -0.40535E-03   -0.47647E-03  4580   0.788E-02    0.828E-02
DAV:   3    -0.833397350205E+03    0.35226E-04   -0.10352E-04  5000   0.155E-02    0.659E-02
DAV:   4    -0.833397335774E+03    0.14431E-04   -0.23921E-04  4560   0.220E-02    0.149E-02
DAV:   5    -0.833397340335E+03   -0.45614E-05   -0.36124E-05  4660   0.897E-03    0.106E-02
DAV:   6    -0.833397339583E+03    0.75233E-06   -0.41766E-06  4040   0.380E-03
  53 F= -.84103006E+03 E0= -.84103006E+03  d E =-.402999E-03  mag=    -0.0000
       N       E                     dE             d eps       ncg     rms          rms(c)
DAV:   1    -0.833397413765E+03   -0.73430E-04   -0.55342E-04  4320   0.475E-02    0.578E-03
DAV:   2    -0.833397414648E+03   -0.88316E-06   -0.13584E-05  5140   0.686E-03    0.523E-03
DAV:   3    -0.833397414329E+03    0.31956E-06   -0.50717E-07  2640   0.153E-03
  54 F= -.84103014E+03 E0= -.84103013E+03  d E =-.736871E-04  mag=     0.0000
       N       E                     dE             d eps       ncg     rms          rms(c)
DAV:   1    -0.833397500588E+03   -0.85940E-04   -0.16124E-03  4260   0.814E-02    0.103E-02
DAV:   2    -0.833397503404E+03   -0.28160E-05   -0.39833E-05  5240   0.117E-02    0.897E-03
DAV:   3    -0.833397502611E+03    0.79368E-06   -0.16325E-06  3440   0.265E-03
  55 F= -.84103022E+03 E0= -.84103022E+03  d E =-.864301E-04  mag=     0.0000
       N       E                     dE             d eps       ncg     rms          rms(c)
DAV:   1    -0.833397540394E+03   -0.36989E-04   -0.20606E-03  4270   0.922E-02    0.127E-02
DAV:   2    -0.833397543745E+03   -0.33510E-05   -0.48398E-05  5160   0.130E-02    0.110E-02
DAV:   3    -0.833397542657E+03    0.10880E-05   -0.23046E-06  4120   0.314E-03    0.811E-03
DAV:   4    -0.833397542179E+03    0.47745E-06   -0.35714E-06  4000   0.394E-03
  56 F= -.84103026E+03 E0= -.84103026E+03  d E =-.371968E-04  mag=    -0.0000
       N       E                     dE             d eps       ncg     rms          rms(c)
DAV:   1    -0.833397546547E+03   -0.38905E-05   -0.65081E-06  3980   0.446E-03    0.165E-03
DAV:   2    -0.833397546551E+03   -0.35143E-08   -0.22315E-07  2340   0.878E-04
  57 F= -.84103026E+03 E0= -.84103026E+03  d E =-.413863E-05  mag=    -0.0000
       N       E                     dE             d eps       ncg     rms          rms(c)
DAV:   1    -0.833397554890E+03   -0.83425E-05   -0.22604E-05  4160   0.793E-03    0.131E-03
DAV:   2    -0.833397554919E+03   -0.29431E-07   -0.42001E-07  2375   0.111E-03
  58 F= -.84103027E+03 E0= -.84103027E+03  d E =-.792001E-05  mag=    -0.0000
       N       E                     dE             d eps       ncg     rms          rms(c)
DAV:   1    -0.833397566586E+03   -0.11696E-04   -0.48568E-05  4270   0.114E-02    0.215E-03
DAV:   2    -0.833397566636E+03   -0.49804E-07   -0.88486E-07  2830   0.157E-03
  59 F= -.84103028E+03 E0= -.84103028E+03  d E =-.110844E-04  mag=    -0.0000
       N       E                     dE             d eps       ncg     rms          rms(c)
DAV:   1    -0.833397580986E+03   -0.14401E-04   -0.80493E-05  4260   0.143E-02    0.301E-03
DAV:   2    -0.833397581055E+03   -0.68729E-07   -0.13711E-06  3130   0.192E-03
  60 F= -.84103030E+03 E0= -.84103029E+03  d E =-.136254E-04  mag=    -0.0000
       N       E                     dE             d eps       ncg     rms          rms(c)
DAV:   1    -0.833397597481E+03   -0.16495E-04   -0.11613E-04  4260   0.165E-02    0.370E-03
DAV:   2    -0.833397597577E+03   -0.95635E-07   -0.18815E-06  3300   0.216E-03
  61 F= -.84103031E+03 E0= -.84103031E+03  d E =-.155963E-04  mag=    -0.0000
       N       E                     dE             d eps       ncg     rms          rms(c)
DAV:   1    -0.833397615800E+03   -0.18319E-04   -0.15476E-04  4260   0.180E-02    0.432E-03
DAV:   2    -0.833397615923E+03   -0.12379E-06   -0.23667E-06  3310   0.229E-03
  62 F= -.84103033E+03 E0= -.84103033E+03  d E =-.173270E-04  mag=    -0.0000
       N       E                     dE             d eps       ncg     rms          rms(c)
DAV:   1    -0.833397638443E+03   -0.22643E-04   -0.24275E-04  4260   0.211E-02    0.519E-03
DAV:   2    -0.833397638637E+03   -0.19401E-06   -0.35014E-06  3310   0.258E-03
  63 F= -.84103035E+03 E0= -.84103035E+03  d E =-.215165E-04  mag=    -0.0000
       N       E                     dE             d eps       ncg     rms          rms(c)
DAV:   1    -0.833397666725E+03   -0.28282E-04   -0.37488E-04  4250   0.244E-02    0.637E-03
DAV:   2    -0.833397666997E+03   -0.27200E-06   -0.50316E-06  3360   0.284E-03
  64 F= -.84103038E+03 E0= -.84103038E+03  d E =-.270037E-04  mag=    -0.0000
       N       E                     dE             d eps       ncg     rms          rms(c)
DAV:   1    -0.833397702816E+03   -0.36091E-04   -0.58043E-04  4250   0.289E-02    0.778E-03
DAV:   2    -0.833397703192E+03   -0.37587E-06   -0.72420E-06  3530   0.320E-03
  65 F= -.84103041E+03 E0= -.84103041E+03  d E =-.347124E-04  mag=    -0.0000
       N       E                     dE             d eps       ncg     rms          rms(c)
DAV:   1    -0.833397748802E+03   -0.45986E-04   -0.91081E-04  4260   0.359E-02    0.959E-03
DAV:   2    -0.833397749368E+03   -0.56624E-06   -0.11292E-05  3740   0.395E-03    0.791E-03
DAV:   3    -0.833397749455E+03   -0.87508E-07   -0.58168E-07  3180   0.131E-03
  66 F= -.84103046E+03 E0= -.84103046E+03  d E =-.447676E-04  mag=    -0.0000
       N       E                     dE             d eps       ncg     rms          rms(c)
DAV:   1    -0.833397805342E+03   -0.55974E-04   -0.14326E-03  4240   0.459E-02    0.813E-03
DAV:   2    -0.833397806851E+03   -0.15094E-05   -0.19112E-05  4095   0.514E-03    0.650E-03
DAV:   3    -0.833397806815E+03    0.36285E-07   -0.41666E-07  3470   0.112E-03
  67 F= -.84103051E+03 E0= -.84103051E+03  d E =-.558206E-04  mag=    -0.0000
       N       E                     dE             d eps       ncg     rms          rms(c)
DAV:   1    -0.833397873241E+03   -0.66389E-04   -0.22338E-03  4240   0.577E-02    0.102E-02
DAV:   2    -0.833397875574E+03   -0.23335E-05   -0.30481E-05  4325   0.648E-03    0.817E-03
DAV:   3    -0.833397875452E+03    0.12229E-06   -0.65892E-07  3530   0.136E-03
  68 F= -.84103058E+03 E0= -.84103058E+03  d E =-.670975E-04  mag=    -0.0000
       N       E                     dE             d eps       ncg     rms          rms(c)
DAV:   1    -0.833397954395E+03   -0.78821E-04   -0.34292E-03  4240   0.702E-02    0.127E-02
DAV:   2    -0.833397957859E+03   -0.34636E-05   -0.45631E-05  4390   0.777E-03    0.101E-02
DAV:   3    -0.833397957695E+03    0.16401E-06   -0.99238E-07  3600   0.163E-03
  69 F= -.84103066E+03 E0= -.84103066E+03  d E =-.806835E-04  mag=    -0.0000
       N       E                     dE             d eps       ncg     rms          rms(c)
DAV:   1    -0.833398052610E+03   -0.94752E-04   -0.51928E-03  4240   0.845E-02    0.154E-02
DAV:   2    -0.833398057778E+03   -0.51680E-05   -0.67157E-05  4400   0.921E-03    0.124E-02
DAV:   3    -0.833398057514E+03    0.26432E-06   -0.14653E-06  3600   0.194E-03
  70 F= -.84103076E+03 E0= -.84103076E+03  d E =-.982493E-04  mag=    -0.0000
       N       E                     dE             d eps       ncg     rms          rms(c)
DAV:   1    -0.833398173896E+03   -0.11612E-03   -0.78717E-03  4240   0.104E-01    0.187E-02
DAV:   2    -0.833398181996E+03   -0.80997E-05   -0.10272E-04  4440   0.114E-02    0.152E-02
DAV:   3    -0.833398181537E+03    0.45883E-06   -0.22166E-06  3660   0.238E-03
  71 F= -.84103088E+03 E0= -.84103088E+03  d E =-.122484E-03  mag=    -0.0000
       N       E                     dE             d eps       ncg     rms          rms(c)
DAV:   1    -0.833398317554E+03   -0.13556E-03   -0.11861E-02  4240   0.129E-01    0.227E-02
DAV:   2    -0.833398330185E+03   -0.12631E-04   -0.15621E-04  4480   0.142E-02    0.186E-02
DAV:   3    -0.833398329412E+03    0.77330E-06   -0.33388E-06  3740   0.292E-03
  72 F= -.84103103E+03 E0= -.84103103E+03  d E =-.146624E-03  mag=    -0.0000
       N       E                     dE             d eps       ncg     rms          rms(c)
DAV:   1    -0.833398493039E+03   -0.16285E-03   -0.17378E-02  4240   0.155E-01    0.271E-02
DAV:   2    -0.833398511366E+03   -0.18327E-04   -0.22402E-04  4515   0.170E-02    0.225E-02
DAV:   3    -0.833398510272E+03    0.10942E-05   -0.48233E-06  3920   0.348E-03    0.170E-02
DAV:   4    -0.833398512687E+03   -0.24152E-05   -0.12187E-05  3850   0.451E-03    0.289E-03
DAV:   5    -0.833398512643E+03    0.44172E-07   -0.15686E-06  3340   0.187E-03
  73 F= -.84103121E+03 E0= -.84103121E+03  d E =-.183224E-03  mag=    -0.0000
       N       E                     dE             d eps       ncg     rms          rms(c)
DAV:   1    -0.833398710760E+03   -0.19807E-03   -0.25547E-02  4240   0.188E-01    0.317E-02
DAV:   2    -0.833398740126E+03   -0.29366E-04   -0.35204E-04  4450   0.213E-02    0.264E-02
DAV:   3    -0.833398737703E+03    0.24227E-05   -0.72394E-06  4120   0.420E-03    0.204E-02
DAV:   4    -0.833398740145E+03   -0.24412E-05   -0.21474E-05  4050   0.609E-03    0.386E-03
DAV:   5    -0.833398740021E+03    0.12350E-06   -0.27525E-06  3390   0.250E-03
  74 F= -.84103144E+03 E0= -.84103144E+03  d E =-.228822E-03  mag=    -0.0000
       N       E                     dE             d eps       ncg     rms          rms(c)
DAV:   1    -0.833398980915E+03   -0.24077E-03   -0.38320E-02  4240   0.230E-01    0.388E-02
DAV:   2    -0.833399025429E+03   -0.44513E-04   -0.53082E-04  4430   0.261E-02    0.321E-02
DAV:   3    -0.833399021885E+03    0.35436E-05   -0.10949E-05  4460   0.514E-03    0.249E-02
DAV:   4    -0.833399025302E+03   -0.34169E-05   -0.31329E-05  4120   0.741E-03    0.464E-03
DAV:   5    -0.833399025165E+03    0.13698E-06   -0.41014E-06  3500   0.302E-03
  75 F= -.84103173E+03 E0= -.84103173E+03  d E =-.287911E-03  mag=    -0.0000
       N       E                     dE             d eps       ncg     rms          rms(c)
DAV:   1    -0.833399310719E+03   -0.28542E-03   -0.60761E-02  4240   0.284E-01    0.483E-02
DAV:   2    -0.833399381808E+03   -0.71089E-04   -0.84283E-04  4460   0.322E-02    0.399E-02
DAV:   3    -0.833399375986E+03    0.58218E-05   -0.16855E-05  4660   0.624E-03    0.309E-02
DAV:   4    -0.833399380871E+03   -0.48856E-05   -0.50709E-05  4185   0.903E-03    0.565E-03
DAV:   5    -0.833399380688E+03    0.18381E-06   -0.64264E-06  3740   0.367E-03
  76 F= -.84103209E+03 E0= -.84103209E+03  d E =-.358529E-03  mag=     0.0000
       N       E                     dE             d eps       ncg     rms          rms(c)
DAV:   1    -0.833399703636E+03   -0.32276E-03   -0.91765E-02  4240   0.349E-01    0.593E-02
DAV:   2    -0.833399812542E+03   -0.10891E-03   -0.12810E-03  4460   0.396E-02    0.491E-02
DAV:   3    -0.833399803812E+03    0.87298E-05   -0.25496E-05  4880   0.761E-03    0.382E-02
DAV:   4    -0.833399810608E+03   -0.67953E-05   -0.77894E-05  4250   0.112E-02    0.702E-03
DAV:   5    -0.833399810266E+03    0.34211E-06   -0.98377E-06  4120   0.454E-03
  77 F= -.84103252E+03 E0= -.84103252E+03  d E =-.432426E-03  mag=    -0.0000
       N       E                     dE             d eps       ncg     rms          rms(c)
DAV:   1    -0.833400179071E+03   -0.36846E-03   -0.12886E-01  4240   0.416E-01    0.714E-02
DAV:   2    -0.833400332072E+03   -0.15300E-03   -0.17903E-03  4460   0.470E-02    0.589E-02
DAV:   3    -0.833400320997E+03    0.11075E-04   -0.36610E-05  4980   0.922E-03    0.456E-02
DAV:   4    -0.833400330941E+03   -0.99438E-05   -0.10219E-04  4290   0.130E-02    0.839E-03
DAV:   5    -0.833400330449E+03    0.49209E-06   -0.13208E-05  4380   0.538E-03    0.678E-03
DAV:   6    -0.833400329686E+03    0.76284E-06   -0.30554E-06  3560   0.278E-03
  78 F= -.84103304E+03 E0= -.84103304E+03  d E =-.524421E-03  mag=    -0.0000
       N       E                     dE             d eps       ncg     rms          rms(c)
DAV:   1    -0.833400753771E+03   -0.42332E-03   -0.20535E-01  4240   0.522E-01    0.897E-02
DAV:   2    -0.833400998430E+03   -0.24466E-03   -0.28714E-03  4510   0.591E-02    0.743E-02
DAV:   3    -0.833400977288E+03    0.21142E-04   -0.57576E-05  5020   0.115E-02    0.576E-02
DAV:   4    -0.833400988631E+03   -0.11343E-04   -0.18216E-04  4360   0.169E-02    0.109E-02
DAV:   5    -0.833400987703E+03    0.92821E-06   -0.22750E-05  4580   0.689E-03    0.880E-03
DAV:   6    -0.833400986490E+03    0.12124E-05   -0.50428E-06  3780   0.349E-03    0.425E-03
DAV:   7    -0.833400986088E+03    0.40272E-06   -0.14594E-06  3720   0.175E-03
  79 F= -.84103371E+03 E0= -.84103371E+03  d E =-.666007E-03  mag=    -0.0000
       N       E                     dE             d eps       ncg     rms          rms(c)
DAV:   1    -0.833401480264E+03   -0.49377E-03   -0.32548E-01  4240   0.653E-01    0.113E-01
DAV:   2    -0.833401869153E+03   -0.38889E-03   -0.45855E-03  4480   0.741E-02    0.934E-02
DAV:   3    -0.833401830731E+03    0.38423E-04   -0.91578E-05  5020   0.143E-02    0.723E-02
DAV:   4    -0.833401842611E+03   -0.11881E-04   -0.30558E-04  4450   0.214E-02    0.138E-02
DAV:   5    -0.833401841577E+03    0.10341E-05   -0.36814E-05  4580   0.856E-03    0.112E-02
DAV:   6    -0.833401839487E+03    0.20899E-05   -0.82626E-06  4060   0.438E-03    0.535E-03
DAV:   7    -0.833401838882E+03    0.60571E-06   -0.26527E-06  3840   0.227E-03
  80 F= -.84103456E+03 E0= -.84103456E+03  d E =-.856197E-03  mag=    -0.0000
       N       E                     dE             d eps       ncg     rms          rms(c)
DAV:   1    -0.833402400014E+03   -0.56053E-03   -0.43243E-01  4240   0.769E-01    0.137E-01
DAV:   2    -0.833402916622E+03   -0.51661E-03   -0.62369E-03  4520   0.878E-02    0.110E-01
DAV:   3    -0.833402870699E+03    0.45923E-04   -0.12833E-04  5000   0.174E-02    0.837E-02
DAV:   4    -0.833402897740E+03   -0.27041E-04   -0.35247E-04  4530   0.241E-02    0.155E-02
DAV:   5    -0.833402897561E+03    0.17848E-06   -0.45023E-05  4540   0.971E-03    0.125E-02
DAV:   6    -0.833402894651E+03    0.29104E-05   -0.10762E-05  4180   0.504E-03    0.615E-03
DAV:   7    -0.833402893964E+03    0.68721E-06   -0.38232E-06  3920   0.276E-03
  81 F= -.84103561E+03 E0= -.84103561E+03  d E =-.104493E-02  mag=     0.0000
       N       E                     dE             d eps       ncg     rms          rms(c)
DAV:   1    -0.833403385369E+03   -0.49072E-03   -0.61241E-01  4240   0.932E-01    0.165E-01
DAV:   2    -0.833404145260E+03   -0.75989E-03   -0.91816E-03  4530   0.109E-01    0.132E-01
DAV:   3    -0.833404072263E+03    0.72996E-04   -0.17730E-04  5040   0.209E-02    0.101E-01
DAV:   4    -0.833404110933E+03   -0.38669E-04   -0.58890E-04  4540   0.314E-02    0.210E-02
DAV:   5    -0.833404108351E+03    0.25817E-05   -0.72755E-05  4520   0.124E-02    0.170E-02
DAV:   6    -0.833404103539E+03    0.48122E-05   -0.24488E-05  4280   0.726E-03    0.751E-03
DAV:   7    -0.833404102637E+03    0.90164E-06   -0.42622E-06  4100   0.308E-03
  82 F= -.84103679E+03 E0= -.84103679E+03  d E =-.118406E-02  mag=    -0.0000
       N       E                     dE             d eps       ncg     rms          rms(c)
DAV:   1    -0.833404451721E+03   -0.34818E-03   -0.67788E-01  4240   0.107E+00    0.188E-01
DAV:   2    -0.833405323107E+03   -0.87139E-03   -0.10700E-02  4490   0.128E-01    0.146E-01
DAV:   3    -0.833405248299E+03    0.74807E-04   -0.23506E-04  5020   0.266E-02    0.110E-01
DAV:   4    -0.833405308716E+03   -0.60417E-04   -0.54845E-04  4525   0.360E-02    0.249E-02
DAV:   5    -0.833405307049E+03    0.16668E-05   -0.77930E-05  4600   0.149E-02    0.187E-02
DAV:   6    -0.833405302322E+03    0.47272E-05   -0.37581E-05  4720   0.933E-03    0.760E-03
DAV:   7    -0.833405301864E+03    0.45810E-06   -0.35995E-06  4040   0.324E-03
  83 F= -.84103795E+03 E0= -.84103795E+03  d E =-.115550E-02  mag=     0.0000
       N       E                     dE             d eps       ncg     rms          rms(c)
DAV:   1    -0.833403063747E+03    0.22386E-02   -0.13568E+00  4240   0.163E+00    0.252E-01
DAV:   2    -0.833405181186E+03   -0.21174E-02   -0.25454E-02  4590   0.211E-01    0.199E-01
DAV:   3    -0.833404941719E+03    0.23947E-03   -0.56238E-04  5120   0.411E-02    0.154E-01
DAV:   4    -0.833404866338E+03    0.75380E-04   -0.13522E-03  4440   0.591E-02    0.407E-02
DAV:   5    -0.833404894300E+03   -0.27962E-04   -0.19893E-04  4640   0.225E-02    0.283E-02
DAV:   6    -0.833404890299E+03    0.40015E-05   -0.76005E-05  4540   0.138E-02    0.118E-02
DAV:   7    -0.833404889190E+03    0.11092E-05   -0.69840E-06  4770   0.482E-03    0.838E-03
DAV:   8    -0.833404889069E+03    0.12039E-06   -0.78357E-06  3680   0.410E-03
  84 F= -.84103746E+03 E0= -.84103746E+03  d E =0.486837E-03  mag=    -0.0000
       N       E                     dE             d eps       ncg     rms          rms(c)
DAV:   1    -0.833406758128E+03   -0.18689E-02   -0.13037E-01  4320   0.717E-01    0.804E-02
DAV:   2    -0.833407004805E+03   -0.24668E-03   -0.34152E-03  5040   0.105E-01    0.724E-02
DAV:   3    -0.833406948428E+03    0.56377E-04   -0.13406E-04  5600   0.217E-02    0.564E-02
DAV:   4    -0.833406892670E+03    0.55758E-04   -0.12684E-04  4440   0.234E-02    0.246E-02
DAV:   5    -0.833406890829E+03    0.18411E-05   -0.40273E-05  4700   0.114E-02    0.103E-02
DAV:   6    -0.833406890994E+03   -0.16563E-06   -0.42501E-06  3900   0.390E-03
  85 F= -.84103948E+03 E0= -.84103947E+03  d E =-.201261E-02  mag=    -0.0000
       N       E                     dE             d eps       ncg     rms          rms(c)
DAV:   1    -0.833406913744E+03   -0.22916E-04   -0.14789E-04  4340   0.235E-02    0.371E-03
DAV:   2    -0.833406913795E+03   -0.50713E-07   -0.34605E-06  3780   0.345E-03
  86 F= -.84103950E+03 E0= -.84103950E+03  d E =-.219969E-04  mag=    -0.0000
       N       E                     dE             d eps       ncg     rms          rms(c)
DAV:   1    -0.833406944509E+03   -0.30764E-04   -0.46390E-04  4280   0.411E-02    0.590E-03
DAV:   2    -0.833406944970E+03   -0.46134E-06   -0.10294E-05  5020   0.570E-03    0.528E-03
DAV:   3    -0.833406944600E+03    0.36995E-06   -0.51924E-07  2480   0.156E-03
  87 F= -.84103953E+03 E0= -.84103953E+03  d E =-.292633E-04  mag=    -0.0000
       N       E                     dE             d eps       ncg     rms          rms(c)
DAV:   1    -0.833406969942E+03   -0.24972E-04   -0.68097E-04  4260   0.483E-02    0.622E-03
DAV:   2    -0.833406970927E+03   -0.98549E-06   -0.13912E-05  4860   0.633E-03    0.535E-03
DAV:   3    -0.833406970744E+03    0.18378E-06   -0.40442E-07  2780   0.138E-03
  88 F= -.84103955E+03 E0= -.84103955E+03  d E =-.240706E-04  mag=     0.0000
       N       E                     dE             d eps       ncg     rms          rms(c)
DAV:   1    -0.833406993934E+03   -0.23006E-04   -0.71464E-04  4260   0.452E-02    0.616E-03
DAV:   2    -0.833406994870E+03   -0.93662E-06   -0.13264E-05  4600   0.563E-03    0.496E-03
DAV:   3    -0.833406994812E+03    0.58462E-07   -0.29294E-07  3080   0.116E-03
  89 F= -.84103957E+03 E0= -.84103957E+03  d E =-.216722E-04  mag=     0.0000
       N       E                     dE             d eps       ncg     rms          rms(c)
DAV:   1    -0.833407028273E+03   -0.33403E-04   -0.80707E-04  4240   0.428E-02    0.653E-03
DAV:   2    -0.833407029128E+03   -0.85471E-06   -0.13501E-05  4160   0.500E-03    0.484E-03
DAV:   3    -0.833407029172E+03   -0.44471E-07   -0.26328E-07  3100   0.105E-03
  90 F= -.84103960E+03 E0= -.84103960E+03  d E =-.318564E-04  mag=    -0.0000
       N       E                     dE             d eps       ncg     rms          rms(c)
DAV:   1    -0.833407074841E+03   -0.45714E-04   -0.11957E-03  4240   0.523E-02    0.802E-03
DAV:   2    -0.833407076106E+03   -0.12648E-05   -0.20692E-05  4380   0.628E-03    0.582E-03
DAV:   3    -0.833407076153E+03   -0.47199E-07   -0.41674E-07  3190   0.129E-03
  91 F= -.84103965E+03 E0= -.84103965E+03  d E =-.443171E-04  mag=    -0.0000
       N       E                     dE             d eps       ncg     rms          rms(c)
DAV:   1    -0.833407127845E+03   -0.51739E-04   -0.23504E-03  4240   0.747E-02    0.114E-02
DAV:   2    -0.833407130384E+03   -0.25395E-05   -0.42507E-05  4440   0.922E-03    0.826E-03
DAV:   3    -0.833407130422E+03   -0.37951E-07   -0.94068E-07  3590   0.191E-03
  92 F= -.84103970E+03 E0= -.84103970E+03  d E =-.507224E-04  mag=    -0.0000
       N       E                     dE             d eps       ncg     rms          rms(c)
DAV:   1    -0.833407180250E+03   -0.49866E-04   -0.40028E-03  4240   0.931E-02    0.150E-02
DAV:   2    -0.833407184026E+03   -0.37759E-05   -0.70061E-05  4440   0.113E-02    0.108E-02
DAV:   3    -0.833407184341E+03   -0.31539E-06   -0.14469E-06  3360   0.229E-03
  93 F= -.84103975E+03 E0= -.84103975E+03  d E =-.485494E-04  mag=    -0.0000
       N       E                     dE             d eps       ncg     rms          rms(c)
DAV:   1    -0.833407249474E+03   -0.65448E-04   -0.60111E-03  4260   0.106E-01    0.182E-02
DAV:   2    -0.833407254131E+03   -0.46572E-05   -0.98370E-05  4400   0.124E-02    0.129E-02
DAV:   3    -0.833407254842E+03   -0.71144E-06   -0.17484E-06  3320   0.237E-03
  94 F= -.84103981E+03 E0= -.84103981E+03  d E =-.621762E-04  mag=    -0.0000
       N       E                     dE             d eps       ncg     rms          rms(c)
DAV:   1    -0.833407350758E+03   -0.96627E-04   -0.91628E-03  4260   0.133E-01    0.220E-02
DAV:   2    -0.833407358215E+03   -0.74568E-05   -0.15155E-04  4380   0.158E-02    0.160E-02
DAV:   3    -0.833407358849E+03   -0.63399E-06   -0.27891E-06  3640   0.298E-03
  95 F= -.84103990E+03 E0= -.84103990E+03  d E =-.921882E-04  mag=    -0.0000
       N       E                     dE             d eps       ncg     rms          rms(c)
DAV:   1    -0.833407467892E+03   -0.10968E-03   -0.13752E-02  4260   0.166E-01    0.269E-02
DAV:   2    -0.833407479864E+03   -0.11972E-04   -0.22853E-04  4400   0.198E-02    0.203E-02
DAV:   3    -0.833407480096E+03   -0.23175E-06   -0.42905E-06  4030   0.371E-03
  96 F= -.84104001E+03 E0= -.84104001E+03  d E =-.106557E-03  mag=    -0.0000
       N       E                     dE             d eps       ncg     rms          rms(c)
DAV:   1    -0.833407626546E+03   -0.14668E-03   -0.17946E-02  4280   0.186E-01    0.315E-02
DAV:   2    -0.833407641470E+03   -0.14925E-04   -0.28160E-04  4420   0.215E-02    0.240E-02
DAV:   3    -0.833407641884E+03   -0.41367E-06   -0.51398E-06  3930   0.406E-03
  97 F= -.84104016E+03 E0= -.84104016E+03  d E =-.147048E-03  mag=    -0.0000
       N       E                     dE             d eps       ncg     rms          rms(c)
DAV:   1    -0.833407835200E+03   -0.19373E-03   -0.25502E-02  4260   0.229E-01    0.380E-02
DAV:   2    -0.833407859126E+03   -0.23926E-04   -0.40559E-04  4400   0.269E-02    0.293E-02
DAV:   3    -0.833407858861E+03    0.26529E-06   -0.87279E-06  4480   0.539E-03
  98 F= -.84104036E+03 E0= -.84104036E+03  d E =-.203843E-03  mag=    -0.0000
       N       E                     dE             d eps       ncg     rms          rms(c)
DAV:   1    -0.833408093038E+03   -0.23391E-03   -0.41125E-02  4280   0.275E-01    0.480E-02
DAV:   2    -0.833408134353E+03   -0.41315E-04   -0.63482E-04  4400   0.316E-02    0.373E-02
DAV:   3    -0.833408132883E+03    0.14702E-05   -0.13583E-05  4840   0.645E-03    0.273E-02
DAV:   4    -0.833408147250E+03   -0.14367E-04   -0.24444E-05  4180   0.750E-03    0.472E-03
DAV:   5    -0.833408147641E+03   -0.39086E-06   -0.38561E-06  3720   0.313E-03
  99 F= -.84104064E+03 E0= -.84104064E+03  d E =-.277007E-03  mag=    -0.0000
       N       E                     dE             d eps       ncg     rms          rms(c)
DAV:   1    -0.833408410171E+03   -0.26292E-03   -0.70249E-02  4280   0.353E-01    0.576E-02
DAV:   2    -0.833408496825E+03   -0.86654E-04   -0.11470E-03  4440   0.424E-02    0.463E-02
DAV:   3    -0.833408488764E+03    0.80604E-05   -0.22472E-05  5020   0.815E-03    0.354E-02
DAV:   4    -0.833408502265E+03   -0.13501E-04   -0.61063E-05  4310   0.115E-02    0.689E-03
DAV:   5    -0.833408502618E+03   -0.35260E-06   -0.85653E-06  4400   0.463E-03
 100 F= -.84104098E+03 E0= -.84104098E+03  d E =-.344536E-03  mag=    -0.0000
       N       E                     dE             d eps       ncg     rms          rms(c)
DAV:   1    -0.833408835989E+03   -0.33372E-03   -0.10127E-01  4280   0.409E-01    0.683E-02
DAV:   2    -0.833408960225E+03   -0.12424E-03   -0.15656E-03  4450   0.481E-02    0.563E-02
DAV:   3    -0.833408948877E+03    0.11348E-04   -0.30218E-05  5020   0.933E-03    0.432E-02
DAV:   4    -0.833408965826E+03   -0.16949E-04   -0.95004E-05  4320   0.136E-02    0.846E-03
DAV:   5    -0.833408965310E+03    0.51576E-06   -0.12576E-05  4540   0.562E-03    0.666E-03
DAV:   6    -0.833408964706E+03    0.60445E-06   -0.35499E-06  3660   0.298E-03
 101 F= -.84104143E+03 E0= -.84104143E+03  d E =-.452583E-03  mag=    -0.0000
       N       E                     dE             d eps       ncg     rms          rms(c)
DAV:   1    -0.833409326311E+03   -0.36100E-03   -0.15814E-01  4260   0.504E-01    0.850E-02
DAV:   2    -0.833409520238E+03   -0.19393E-03   -0.23958E-03  4480   0.591E-02    0.708E-02
DAV:   3    -0.833409500882E+03    0.19355E-04   -0.46996E-05  5020   0.116E-02    0.544E-02
DAV:   4    -0.833409521679E+03   -0.20797E-04   -0.15490E-04  4440   0.171E-02    0.107E-02
DAV:   5    -0.833409520448E+03    0.12310E-05   -0.20289E-05  4480   0.710E-03    0.839E-03
DAV:   6    -0.833409519605E+03    0.84300E-06   -0.54727E-06  4020   0.365E-03
 102 F= -.84104198E+03 E0= -.84104198E+03  d E =-.546573E-03  mag=    -0.0000
       N       E                     dE             d eps       ncg     rms          rms(c)
DAV:   1    -0.833409870116E+03   -0.34967E-03   -0.23694E-01  4260   0.626E-01    0.106E-01
DAV:   2    -0.833410167678E+03   -0.29756E-03   -0.36784E-03  4520   0.743E-02    0.865E-02
DAV:   3    -0.833410140343E+03    0.27335E-04   -0.74588E-05  5020   0.145E-02    0.661E-02
DAV:   4    -0.833410166742E+03   -0.26399E-04   -0.21499E-04  4530   0.211E-02    0.127E-02
DAV:   5    -0.833410165962E+03    0.77918E-06   -0.29054E-05  4580   0.860E-03    0.991E-03
DAV:   6    -0.833410164755E+03    0.12078E-05   -0.76000E-06  4140   0.447E-03    0.458E-03
DAV:   7    -0.833410164481E+03    0.27320E-06   -0.16465E-06  3860   0.205E-03
 103 F= -.84104262E+03 E0= -.84104262E+03  d E =-.643911E-03  mag=    -0.0000
       N       E                     dE             d eps       ncg     rms          rms(c)
DAV:   1    -0.833410399051E+03   -0.23430E-03   -0.37367E-01  4240   0.803E-01    0.132E-01
DAV:   2    -0.833410895213E+03   -0.49616E-03   -0.61311E-03  4550   0.983E-02    0.108E-01
DAV:   3    -0.833410842698E+03    0.52515E-04   -0.13037E-04  5040   0.197E-02    0.833E-02
DAV:   4    -0.833410862284E+03   -0.19586E-04   -0.36868E-04  4490   0.285E-02    0.177E-02
DAV:   5    -0.833410864639E+03   -0.23543E-05   -0.51223E-05  4600   0.115E-02    0.133E-02
DAV:   6    -0.833410863083E+03    0.15553E-05   -0.12279E-05  4440   0.580E-03    0.621E-03
DAV:   7    -0.833410862633E+03    0.45020E-06   -0.24859E-06  4000   0.258E-03
 104 F= -.84104331E+03 E0= -.84104331E+03  d E =-.682103E-03  mag=    -0.0000
       N       E                     dE             d eps       ncg     rms          rms(c)
DAV:   1    -0.833410557007E+03    0.30608E-03   -0.45598E-01  4240   0.104E+00    0.156E-01
DAV:   2    -0.833411199224E+03   -0.64222E-03   -0.80899E-03  4510   0.133E-01    0.129E-01
DAV:   3    -0.833411114539E+03    0.84685E-04   -0.22680E-04  5080   0.281E-02    0.973E-02
DAV:   4    -0.833411128166E+03   -0.13627E-04   -0.44666E-04  4460   0.383E-02    0.266E-02
DAV:   5    -0.833411130253E+03   -0.20869E-05   -0.74476E-05  4580   0.159E-02    0.166E-02
DAV:   6    -0.833411130646E+03   -0.39300E-06   -0.27927E-05  4540   0.851E-03    0.683E-03
DAV:   7    -0.833411130293E+03    0.35304E-06   -0.21775E-06  3660   0.288E-03
 105 F= -.84104355E+03 E0= -.84104354E+03  d E =-.239180E-03  mag=    -0.0000
       N       E                     dE             d eps       ncg     rms          rms(c)
DAV:   1    -0.833411922873E+03   -0.79223E-03   -0.43945E-02  4240   0.429E-01    0.478E-02
DAV:   2    -0.833412002073E+03   -0.79200E-04   -0.11274E-03  5300   0.626E-02    0.423E-02
DAV:   3    -0.833411980166E+03    0.21907E-04   -0.52338E-05  5700   0.138E-02    0.316E-02
DAV:   4    -0.833411962933E+03    0.17233E-04   -0.38984E-05  4360   0.135E-02    0.141E-02
DAV:   5    -0.833411962039E+03    0.89443E-06   -0.12154E-05  4440   0.647E-03    0.524E-03
DAV:   6    -0.833411962189E+03   -0.15025E-06   -0.96897E-07  2800   0.215E-03
 106 F= -.84104438E+03 E0= -.84104438E+03  d E =-.838840E-03  mag=    -0.0000
       N       E                     dE             d eps       ncg     rms          rms(c)
DAV:   1    -0.833411970528E+03   -0.84892E-05   -0.40107E-05  4220   0.994E-03    0.223E-03
DAV:   2    -0.833411970559E+03   -0.31308E-07   -0.85484E-07  2980   0.144E-03
 107 F= -.84104439E+03 E0= -.84104439E+03  d E =-.828122E-05  mag=    -0.0000
       N       E                     dE             d eps       ncg     rms          rms(c)
DAV:   1    -0.833411986288E+03   -0.15760E-04   -0.14269E-04  4280   0.185E-02    0.341E-03
DAV:   2    -0.833411986399E+03   -0.11142E-06   -0.24731E-06  3160   0.235E-03
 108 F= -.84104441E+03 E0= -.84104441E+03  d E =-.158776E-04  mag=    -0.0000
       N       E                     dE             d eps       ncg     rms          rms(c)
DAV:   1    -0.833412008524E+03   -0.22236E-04   -0.28797E-04  4270   0.254E-02    0.537E-03
DAV:   2    -0.833412008692E+03   -0.16767E-06   -0.45494E-06  3360   0.312E-03
 109 F= -.84104443E+03 E0= -.84104443E+03  d E =-.227185E-04  mag=    -0.0000
       N       E                     dE             d eps       ncg     rms          rms(c)
DAV:   1    -0.833412036967E+03   -0.28443E-04   -0.47052E-04  4260   0.309E-02    0.712E-03
DAV:   2    -0.833412037265E+03   -0.29851E-06   -0.67322E-06  3710   0.359E-03
 110 F= -.84104446E+03 E0= -.84104446E+03  d E =-.297078E-04  mag=    -0.0000
       N       E                     dE             d eps       ncg     rms          rms(c)
DAV:   1    -0.833412071610E+03   -0.34643E-04   -0.74170E-04  4240   0.367E-02    0.873E-03
DAV:   2    -0.833412072158E+03   -0.54795E-06   -0.97374E-06  3900   0.405E-03
 111 F= -.84104450E+03 E0= -.84104450E+03  d E =-.370972E-04  mag=    -0.0000
       N       E                     dE             d eps       ncg     rms          rms(c)
DAV:   1    -0.833412112507E+03   -0.40897E-04   -0.11933E-03  4250   0.442E-02    0.105E-02
DAV:   2    -0.833412113491E+03   -0.98383E-06   -0.15121E-05  4180   0.477E-03    0.897E-03
DAV:   3    -0.833412113407E+03    0.84401E-07   -0.81433E-07  3310   0.151E-03
 112 F= -.84104454E+03 E0= -.84104454E+03  d E =-.449186E-04  mag=    -0.0000
       N       E                     dE             d eps       ncg     rms          rms(c)
DAV:   1    -0.833412163422E+03   -0.49931E-04   -0.24936E-03  4240   0.609E-02    0.971E-03
DAV:   2    -0.833412166127E+03   -0.27047E-05   -0.31906E-05  4420   0.654E-03    0.826E-03
DAV:   3    -0.833412165985E+03    0.14160E-06   -0.67399E-07  3500   0.132E-03
 113 F= -.84104460E+03 E0= -.84104460E+03  d E =-.588809E-04  mag=    -0.0000
       N       E                     dE             d eps       ncg     rms          rms(c)
DAV:   1    -0.833412228001E+03   -0.61874E-04   -0.49456E-03  4240   0.829E-02    0.133E-02
DAV:   2    -0.833412233137E+03   -0.51353E-05   -0.62295E-05  4610   0.888E-03    0.113E-02
DAV:   3    -0.833412232803E+03    0.33407E-06   -0.13236E-06  3560   0.175E-03
 114 F= -.84104468E+03 E0= -.84104468E+03  d E =-.759740E-04  mag=    -0.0000
       N       E                     dE             d eps       ncg     rms          rms(c)
DAV:   1    -0.833412307560E+03   -0.74424E-04   -0.91442E-03  4240   0.110E-01    0.178E-02
DAV:   2    -0.833412316743E+03   -0.91833E-05   -0.11219E-04  4600   0.116E-02    0.151E-02
DAV:   3    -0.833412316158E+03    0.58522E-06   -0.23232E-06  3520   0.228E-03
 115 F= -.84104477E+03 E0= -.84104477E+03  d E =-.955263E-04  mag=    -0.0000
       N       E                     dE             d eps       ncg     rms          rms(c)
DAV:   1    -0.833412409587E+03   -0.92843E-04   -0.15396E-02  4240   0.140E-01    0.228E-02
DAV:   2    -0.833412425054E+03   -0.15468E-04   -0.18658E-04  4600   0.148E-02    0.194E-02
DAV:   3    -0.833412424157E+03    0.89703E-06   -0.37977E-06  3700   0.289E-03
 116 F= -.84104490E+03 E0= -.84104490E+03  d E =-.122878E-03  mag=    -0.0000
       N       E                     dE             d eps       ncg     rms          rms(c)
DAV:   1    -0.833412548141E+03   -0.12309E-03   -0.24507E-02  4240   0.177E-01    0.288E-02
DAV:   2    -0.833412573239E+03   -0.25099E-04   -0.29925E-04  4600   0.188E-02    0.245E-02
DAV:   3    -0.833412571820E+03    0.14192E-05   -0.61961E-06  3940   0.372E-03    0.190E-02
DAV:   4    -0.833412573701E+03   -0.18808E-05   -0.17857E-05  3875   0.525E-03    0.321E-03
DAV:   5    -0.833412573644E+03    0.57385E-07   -0.20871E-06  3340   0.213E-03
 117 F= -.84104506E+03 E0= -.84104506E+03  d E =-.166856E-03  mag=    -0.0000
       N       E                     dE             d eps       ncg     rms          rms(c)
DAV:   1    -0.833412734946E+03   -0.16125E-03   -0.36091E-02  4240   0.216E-01    0.348E-02
DAV:   2    -0.833412775230E+03   -0.40284E-04   -0.47360E-04  4475   0.238E-02    0.297E-02
DAV:   3    -0.833412772179E+03    0.30508E-05   -0.93717E-06  4160   0.454E-03    0.233E-02
DAV:   4    -0.833412773614E+03   -0.14352E-05   -0.30207E-05  4030   0.678E-03    0.403E-03
DAV:   5    -0.833412773529E+03    0.85463E-07   -0.34456E-06  3400   0.271E-03
 118 F= -.84104528E+03 E0= -.84104528E+03  d E =-.219165E-03  mag=    -0.0000
       N       E                     dE             d eps       ncg     rms          rms(c)
DAV:   1    -0.833412985725E+03   -0.21211E-03   -0.49512E-02  4240   0.257E-01    0.420E-02
DAV:   2    -0.833413041143E+03   -0.55418E-04   -0.65038E-04  4490   0.284E-02    0.360E-02
DAV:   3    -0.833413036526E+03    0.46170E-05   -0.13003E-05  4400   0.544E-03    0.280E-02
DAV:   4    -0.833413038899E+03   -0.23728E-05   -0.42127E-05  4135   0.803E-03    0.488E-03
DAV:   5    -0.833413038703E+03    0.19532E-06   -0.47901E-06  3500   0.323E-03
 119 F= -.84104557E+03 E0= -.84104557E+03  d E =-.284363E-03  mag=    -0.0000
       N       E                     dE             d eps       ncg     rms          rms(c)
DAV:   1    -0.833413287482E+03   -0.24858E-03   -0.64284E-02  4240   0.298E-01    0.501E-02
DAV:   2    -0.833413359873E+03   -0.72391E-04   -0.85798E-04  4485   0.333E-02    0.429E-02
DAV:   3    -0.833413352713E+03    0.71593E-05   -0.17112E-05  4580   0.643E-03    0.331E-02
DAV:   4    -0.833413357659E+03   -0.49461E-05   -0.58931E-05  4260   0.953E-03    0.623E-03
DAV:   5    -0.833413357076E+03    0.58339E-06   -0.67409E-06  3680   0.390E-03
 120 F= -.84104590E+03 E0= -.84104590E+03  d E =-.332412E-03  mag=    -0.0000
       N       E                     dE             d eps       ncg     rms          rms(c)
DAV:   1    -0.833413643111E+03   -0.28545E-03   -0.85220E-02  4240   0.349E-01    0.604E-02
DAV:   2    -0.833413736572E+03   -0.93461E-04   -0.11642E-03  4480   0.394E-02    0.509E-02
DAV:   3    -0.833413726899E+03    0.96725E-05   -0.22890E-05  4760   0.769E-03    0.388E-02
DAV:   4    -0.833413738457E+03   -0.11558E-04   -0.80678E-05  4230   0.114E-02    0.754E-03
DAV:   5    -0.833413737533E+03    0.92423E-06   -0.94414E-06  4060   0.464E-03
 121 F= -.84104628E+03 E0= -.84104628E+03  d E =-.382449E-03  mag=    -0.0000
       N       E                     dE             d eps       ncg     rms          rms(c)
DAV:   1    -0.833414050905E+03   -0.31245E-03   -0.12053E-01  4240   0.416E-01    0.753E-02
DAV:   2    -0.833414183548E+03   -0.13264E-03   -0.17272E-03  4520   0.477E-02    0.609E-02
DAV:   3    -0.833414171926E+03    0.11622E-04   -0.33102E-05  4940   0.936E-03    0.461E-02
DAV:   4    -0.833414192272E+03   -0.20346E-04   -0.10467E-04  4270   0.131E-02    0.858E-03
DAV:   5    -0.833414191556E+03    0.71620E-06   -0.12396E-05  4300   0.526E-03    0.686E-03
DAV:   6    -0.833414190646E+03    0.90954E-06   -0.37403E-06  3680   0.300E-03
 122 F= -.84104673E+03 E0= -.84104673E+03  d E =-.447470E-03  mag=    -0.0000
       N       E                     dE             d eps       ncg     rms          rms(c)
DAV:   1    -0.833414556371E+03   -0.36482E-03   -0.16529E-01  4240   0.492E-01    0.907E-02
DAV:   2    -0.833414738739E+03   -0.18237E-03   -0.24056E-03  4560   0.566E-02    0.735E-02
DAV:   3    -0.833414720335E+03    0.18404E-04   -0.45753E-05  4900   0.112E-02    0.552E-02
DAV:   4    -0.833414751117E+03   -0.30782E-04   -0.16626E-04  4510   0.164E-02    0.116E-02
DAV:   5    -0.833414748943E+03    0.21744E-05   -0.19085E-05  4480   0.659E-03    0.909E-03
DAV:   6    -0.833414747455E+03    0.14878E-05   -0.83113E-06  4140   0.415E-03    0.382E-03
DAV:   7    -0.833414747226E+03    0.22862E-06   -0.10906E-06  3660   0.157E-03
 123 F= -.84104727E+03 E0= -.84104727E+03  d E =-.545553E-03  mag=    -0.0000
       N       E                     dE             d eps       ncg     rms          rms(c)
DAV:   1    -0.833415150736E+03   -0.40328E-03   -0.23065E-01  4240   0.588E-01    0.110E-01
DAV:   2    -0.833415411855E+03   -0.26112E-03   -0.34366E-03  4480   0.684E-02    0.875E-02
DAV:   3    -0.833415386478E+03    0.25377E-04   -0.65575E-05  4880   0.135E-02    0.653E-02
DAV:   4    -0.833415427865E+03   -0.41387E-04   -0.22724E-04  4510   0.197E-02    0.140E-02
DAV:   5    -0.833415424908E+03    0.29571E-05   -0.26921E-05  4460   0.793E-03    0.110E-02
DAV:   6    -0.833415422832E+03    0.20755E-05   -0.12559E-05  4220   0.500E-03    0.452E-03
DAV:   7    -0.833415422531E+03    0.30170E-06   -0.14393E-06  3860   0.182E-03
 124 F= -.84104793E+03 E0= -.84104793E+03  d E =-.651887E-03  mag=    -0.0000
       N       E                     dE             d eps       ncg     rms          rms(c)
DAV:   1    -0.833415735750E+03   -0.31292E-03   -0.37575E-01  4240   0.749E-01    0.138E-01
DAV:   2    -0.833416193351E+03   -0.45760E-03   -0.58619E-03  4520   0.893E-02    0.109E-01
DAV:   3    -0.833416145634E+03    0.47717E-04   -0.11050E-04  5020   0.174E-02    0.817E-02
DAV:   4    -0.833416194928E+03   -0.49294E-04   -0.37817E-04  4600   0.258E-02    0.172E-02
DAV:   5    -0.833416192537E+03    0.23912E-05   -0.44499E-05  4500   0.102E-02    0.137E-02
DAV:   6    -0.833416189682E+03    0.28551E-05   -0.18631E-05  4240   0.650E-03    0.591E-03
DAV:   7    -0.833416189279E+03    0.40232E-06   -0.26714E-06  3960   0.251E-03
 125 F= -.84104867E+03 E0= -.84104867E+03  d E =-.748086E-03  mag=     0.0000
       N       E                     dE             d eps       ncg     rms          rms(c)
DAV:   1    -0.833416361856E+03   -0.17217E-03   -0.42405E-01  4240   0.874E-01    0.154E-01
DAV:   2    -0.833416911582E+03   -0.54973E-03   -0.69094E-03  4560   0.107E-01    0.124E-01
DAV:   3    -0.833416857187E+03    0.54395E-04   -0.15549E-04  5020   0.222E-02    0.928E-02
DAV:   4    -0.833416916866E+03   -0.59679E-04   -0.41679E-04  4490   0.320E-02    0.222E-02
DAV:   5    -0.833416911560E+03    0.53063E-05   -0.60533E-05  4600   0.136E-02    0.159E-02
DAV:   6    -0.833416909266E+03    0.22941E-05   -0.27557E-05  4650   0.793E-03    0.651E-03
DAV:   7    -0.833416908936E+03    0.32967E-06   -0.21735E-06  3860   0.268E-03
 126 F= -.84104935E+03 E0= -.84104935E+03  d E =-.677037E-03  mag=    -0.0000
       N       E                     dE             d eps       ncg     rms          rms(c)
DAV:   1    -0.833415239854E+03    0.16694E-02   -0.99017E-01  4240   0.142E+00    0.216E-01
DAV:   2    -0.833416782524E+03   -0.15427E-02   -0.18873E-02  4590   0.190E-01    0.176E-01
DAV:   3    -0.833416584319E+03    0.19820E-03   -0.43644E-04  5180   0.375E-02    0.137E-01
DAV:   4    -0.833416514914E+03    0.69405E-04   -0.10495E-03  4400   0.529E-02    0.353E-02
DAV:   5    -0.833416537606E+03   -0.22692E-04   -0.15647E-04  4660   0.204E-02    0.237E-02
DAV:   6    -0.833416535630E+03    0.19763E-05   -0.37778E-05  4600   0.108E-02    0.108E-02
DAV:   7    -0.833416534766E+03    0.86376E-06   -0.49396E-06  4800   0.419E-03
 127 F= -.84104897E+03 E0= -.84104897E+03  d E =0.377473E-03  mag=    -0.0000
       N       E                     dE             d eps       ncg     rms          rms(c)
DAV:   1    -0.833418070299E+03   -0.15347E-02   -0.96735E-02  4380   0.628E-01    0.715E-02
DAV:   2    -0.833418262222E+03   -0.19192E-03   -0.26325E-03  5200   0.946E-02    0.646E-02
DAV:   3    -0.833418220554E+03    0.41668E-04   -0.10311E-04  5520   0.195E-02    0.515E-02
DAV:   4    -0.833418174677E+03    0.45877E-04   -0.99357E-05  4360   0.214E-02    0.227E-02
DAV:   5    -0.833418172873E+03    0.18034E-05   -0.35331E-05  4640   0.110E-02    0.988E-03
DAV:   6    -0.833418173054E+03   -0.18052E-06   -0.33510E-06  3500   0.360E-03
 128 F= -.84105060E+03 E0= -.84105060E+03  d E =-.162781E-02  mag=    -0.0000
       N       E                     dE             d eps       ncg     rms          rms(c)
DAV:   1    -0.833418188669E+03   -0.15796E-04   -0.14535E-04  4320   0.207E-02    0.357E-03
DAV:   2    -0.833418188756E+03   -0.86860E-07   -0.29070E-06  3600   0.296E-03
 129 F= -.84105062E+03 E0= -.84105062E+03  d E =-.158273E-04  mag=     0.0000
       N       E                     dE             d eps       ncg     rms          rms(c)
DAV:   1    -0.833418212097E+03   -0.23428E-04   -0.50264E-04  4280   0.372E-02    0.578E-03
DAV:   2    -0.833418212677E+03   -0.57988E-06   -0.96904E-06  4820   0.507E-03
 130 F= -.84105064E+03 E0= -.84105064E+03  d E =-.242179E-04  mag=     0.0000
       N       E                     dE             d eps       ncg     rms          rms(c)
DAV:   1    -0.833418236030E+03   -0.23933E-04   -0.89430E-04  4270   0.469E-02    0.911E-03
DAV:   2    -0.833418236812E+03   -0.78179E-06   -0.15695E-05  4800   0.614E-03    0.788E-03
DAV:   3    -0.833418236221E+03    0.59064E-06   -0.94331E-07  3380   0.196E-03
 131 F= -.84105067E+03 E0= -.84105067E+03  d E =-.240716E-04  mag=     0.0000
       N       E                     dE             d eps       ncg     rms          rms(c)
DAV:   1    -0.833418260044E+03   -0.23232E-04   -0.10956E-03  4260   0.476E-02    0.722E-03
DAV:   2    -0.833418261462E+03   -0.14177E-05   -0.16519E-05  4380   0.556E-03    0.616E-03
DAV:   3    -0.833418261339E+03    0.12296E-06   -0.35185E-07  3280   0.115E-03
 132 F= -.84105069E+03 E0= -.84105069E+03  d E =-.260450E-04  mag=     0.0000
       N       E                     dE             d eps       ncg     rms          rms(c)
DAV:   1    -0.833418295023E+03   -0.33561E-04   -0.12785E-03  4260   0.481E-02    0.717E-03
DAV:   2    -0.833418296577E+03   -0.15545E-05   -0.17744E-05  4260   0.531E-03    0.612E-03
DAV:   3    -0.833418296482E+03    0.94849E-07   -0.36704E-07  3300   0.110E-03
 133 F= -.84105073E+03 E0= -.84105073E+03  d E =-.363923E-04  mag=     0.0000
       N       E                     dE             d eps       ncg     rms          rms(c)
DAV:   1    -0.833418340925E+03   -0.44348E-04   -0.15862E-03  4260   0.547E-02    0.824E-03
DAV:   2    -0.833418342845E+03   -0.19200E-05   -0.22316E-05  4460   0.618E-03    0.705E-03
DAV:   3    -0.833418342722E+03    0.12363E-06   -0.49650E-07  3360   0.128E-03
 134 F= -.84105078E+03 E0= -.84105078E+03  d E =-.483474E-04  mag=     0.0000
       N       E                     dE             d eps       ncg     rms          rms(c)
DAV:   1    -0.833418397661E+03   -0.54816E-04   -0.26060E-03  4240   0.723E-02    0.108E-02
DAV:   2    -0.833418400937E+03   -0.32762E-05   -0.38306E-05  4700   0.845E-03    0.922E-03
DAV:   3    -0.833418400697E+03    0.24034E-06   -0.89087E-07  3680   0.172E-03
 135 F= -.84105084E+03 E0= -.84105084E+03  d E =-.612162E-04  mag=    -0.0000
       N       E                     dE             d eps       ncg     rms          rms(c)
DAV:   1    -0.833418460383E+03   -0.59445E-04   -0.44412E-03  4240   0.906E-02    0.139E-02
DAV:   2    -0.833418465881E+03   -0.54983E-05   -0.63886E-05  4680   0.104E-02    0.119E-02
DAV:   3    -0.833418465487E+03    0.39409E-06   -0.14170E-06  3720   0.209E-03
 136 F= -.84105091E+03 E0= -.84105091E+03  d E =-.701987E-04  mag=    -0.0000
       N       E                     dE             d eps       ncg     rms          rms(c)
DAV:   1    -0.833418536010E+03   -0.70129E-04   -0.76050E-03  4260   0.110E-01    0.175E-02
DAV:   2    -0.833418545047E+03   -0.90369E-05   -0.10442E-04  4660   0.123E-02    0.150E-02
DAV:   3    -0.833418544428E+03    0.61897E-06   -0.21087E-06  3680   0.240E-03
 137 F= -.84105099E+03 E0= -.84105099E+03  d E =-.866611E-04  mag=     0.0000
       N       E                     dE             d eps       ncg     rms          rms(c)
DAV:   1    -0.833418632631E+03   -0.87584E-04   -0.12833E-02  4260   0.141E-01    0.220E-02
DAV:   2    -0.833418648048E+03   -0.15417E-04   -0.17759E-04  4650   0.159E-02    0.189E-02
DAV:   3    -0.833418646947E+03    0.11009E-05   -0.35098E-06  3760   0.304E-03    0.148E-02
DAV:   4    -0.833418647707E+03   -0.75937E-06   -0.11007E-05  3800   0.452E-03    0.257E-03
DAV:   5    -0.833418647649E+03    0.58149E-07   -0.13396E-06  3300   0.185E-03
 138 F= -.84105111E+03 E0= -.84105111E+03  d E =-.112950E-03  mag=     0.0000
       N       E                     dE             d eps       ncg     rms          rms(c)
DAV:   1    -0.833418746982E+03   -0.99276E-04   -0.20496E-02  4260   0.178E-01    0.271E-02
DAV:   2    -0.833418773736E+03   -0.26754E-04   -0.30679E-04  4490   0.210E-02    0.233E-02
DAV:   3    -0.833418771536E+03    0.22004E-05   -0.58352E-06  3960   0.386E-03    0.185E-02
DAV:   4    -0.833418771794E+03   -0.25833E-06   -0.20081E-05  3990   0.612E-03    0.337E-03
DAV:   5    -0.833418771721E+03    0.73029E-07   -0.24249E-06  3400   0.248E-03
 139 F= -.84105124E+03 E0= -.84105124E+03  d E =-.135097E-03  mag=     0.0000
       N       E                     dE             d eps       ncg     rms          rms(c)
DAV:   1    -0.833418900403E+03   -0.12861E-03   -0.29547E-02  4260   0.208E-01    0.326E-02
DAV:   2    -0.833418937634E+03   -0.37231E-04   -0.42723E-04  4465   0.241E-02    0.281E-02
DAV:   3    -0.833418934677E+03    0.29572E-05   -0.81722E-06  4180   0.446E-03    0.222E-02
DAV:   4    -0.833418935367E+03   -0.69015E-06   -0.27110E-05  4100   0.681E-03    0.390E-03
DAV:   5    -0.833418935269E+03    0.98320E-07   -0.32064E-06  3400   0.275E-03
 140 F= -.84105142E+03 E0= -.84105142E+03  d E =-.176448E-03  mag=     0.0000
       N       E                     dE             d eps       ncg     rms          rms(c)
DAV:   1    -0.833419087963E+03   -0.15260E-03   -0.43670E-02  4260   0.257E-01    0.400E-02
DAV:   2    -0.833419143148E+03   -0.55185E-04   -0.63465E-04  4515   0.299E-02    0.344E-02
DAV:   3    -0.833419138653E+03    0.44945E-05   -0.12577E-05  4540   0.557E-03    0.272E-02
DAV:   4    -0.833419139581E+03   -0.92758E-06   -0.39540E-05  4210   0.851E-03    0.489E-03
DAV:   5    -0.833419139482E+03    0.99448E-07   -0.48470E-06  3500   0.344E-03
 141 F= -.84105164E+03 E0= -.84105164E+03  d E =-.220585E-03  mag=    -0.0000
       N       E                     dE             d eps       ncg     rms          rms(c)
DAV:   1    -0.833419314948E+03   -0.17537E-03   -0.61886E-02  4260   0.302E-01    0.484E-02
DAV:   2    -0.833419392167E+03   -0.77219E-04   -0.88712E-04  4470   0.348E-02    0.415E-02
DAV:   3    -0.833419385488E+03    0.66785E-05   -0.17312E-05  4740   0.647E-03    0.325E-02
DAV:   4    -0.833419387567E+03   -0.20785E-05   -0.56382E-05  4210   0.976E-03    0.581E-03
DAV:   5    -0.833419387301E+03    0.26581E-06   -0.66215E-06  3720   0.395E-03
 142 F= -.84105191E+03 E0= -.84105191E+03  d E =-.268762E-03  mag=     0.0000
       N       E                     dE             d eps       ncg     rms          rms(c)
DAV:   1    -0.833419578525E+03   -0.19096E-03   -0.91700E-02  4260   0.369E-01    0.597E-02
DAV:   2    -0.833419694862E+03   -0.11634E-03   -0.13410E-03  4440   0.430E-02    0.511E-02
DAV:   3    -0.833419683912E+03    0.10950E-04   -0.25641E-05  4920   0.800E-03    0.400E-02
DAV:   4    -0.833419687104E+03   -0.31924E-05   -0.89491E-05  4300   0.122E-02    0.733E-03
DAV:   5    -0.833419686557E+03    0.54762E-06   -0.10460E-05  4200   0.496E-03    0.586E-03
DAV:   6    -0.833419686020E+03    0.53643E-06   -0.20686E-06  3540   0.245E-03
 143 F= -.84105223E+03 E0= -.84105223E+03  d E =-.319064E-03  mag=     0.0000
       N       E                     dE             d eps       ncg     rms          rms(c)
DAV:   1    -0.833419929314E+03   -0.24276E-03   -0.12105E-01  4260   0.428E-01    0.712E-02
DAV:   2    -0.833420079285E+03   -0.14997E-03   -0.17667E-03  4460   0.497E-02    0.606E-02
DAV:   3    -0.833420063722E+03    0.15563E-04   -0.35775E-05  5010   0.962E-03    0.469E-02
DAV:   4    -0.833420069620E+03   -0.58979E-05   -0.12031E-04  4300   0.144E-02    0.870E-03
DAV:   5    -0.833420068677E+03    0.94317E-06   -0.14764E-05  4460   0.596E-03    0.695E-03
DAV:   6    -0.833420067931E+03    0.74590E-06   -0.29770E-06  3700   0.281E-03
 144 F= -.84105262E+03 E0= -.84105262E+03  d E =-.396743E-03  mag=     0.0000
       N       E                     dE             d eps       ncg     rms          rms(c)
DAV:   1    -0.833420282783E+03   -0.21411E-03   -0.18034E-01  4260   0.521E-01    0.877E-02
DAV:   2    -0.833420504603E+03   -0.22182E-03   -0.26396E-03  4460   0.606E-02    0.743E-02
DAV:   3    -0.833420480886E+03    0.23717E-04   -0.50895E-05  5020   0.116E-02    0.573E-02
DAV:   4    -0.833420492037E+03   -0.11151E-04   -0.19044E-04  4440   0.181E-02    0.111E-02
DAV:   5    -0.833420489979E+03    0.20576E-05   -0.22904E-05  4500   0.746E-03    0.882E-03
DAV:   6    -0.833420488789E+03    0.11902E-05   -0.53941E-06  4000   0.372E-03    0.431E-03
DAV:   7    -0.833420488362E+03    0.42700E-06   -0.13502E-06  3640   0.180E-03
 145 F= -.84105306E+03 E0= -.84105306E+03  d E =-.436774E-03  mag=     0.0000
       N       E                     dE             d eps       ncg     rms          rms(c)
DAV:   1    -0.833420726706E+03   -0.23792E-03   -0.23361E-01  4260   0.612E-01    0.104E-01
DAV:   2    -0.833421013972E+03   -0.28727E-03   -0.35301E-03  4430   0.722E-02    0.876E-02
DAV:   3    -0.833420981350E+03    0.32622E-04   -0.72328E-05  5040   0.143E-02    0.669E-02
DAV:   4    -0.833421000701E+03   -0.19351E-04   -0.25168E-04  4480   0.214E-02    0.135E-02
DAV:   5    -0.833420997991E+03    0.27099E-05   -0.30973E-05  4500   0.890E-03    0.104E-02
DAV:   6    -0.833420996369E+03    0.16227E-05   -0.90808E-06  4280   0.470E-03    0.473E-03
DAV:   7    -0.833420996003E+03    0.36552E-06   -0.14701E-06  3820   0.191E-03
 146 F= -.84105358E+03 E0= -.84105358E+03  d E =-.515488E-03  mag=    -0.0000
       N       E                     dE             d eps       ncg     rms          rms(c)
DAV:   1    -0.833421128668E+03   -0.13230E-03   -0.32853E-01  4260   0.750E-01    0.128E-01
DAV:   2    -0.833421557935E+03   -0.42927E-03   -0.53682E-03  4460   0.916E-02    0.105E-01
DAV:   3    -0.833421512640E+03    0.45295E-04   -0.11025E-04  5040   0.182E-02    0.800E-02
DAV:   4    -0.833421538845E+03   -0.26205E-04   -0.34947E-04  4480   0.275E-02    0.167E-02
DAV:   5    -0.833421536860E+03    0.19846E-05   -0.47935E-05  4500   0.113E-02    0.129E-02
DAV:   6    -0.833421535026E+03    0.18349E-05   -0.12180E-05  4600   0.567E-03    0.612E-03
DAV:   7    -0.833421534472E+03    0.55365E-06   -0.20938E-06  3860   0.244E-03
 147 F= -.84105412E+03 E0= -.84105412E+03  d E =-.539738E-03  mag=     0.0000
       N       E                     dE             d eps       ncg     rms          rms(c)
DAV:   1    -0.833421244967E+03    0.29006E-03   -0.46073E-01  4240   0.979E-01    0.155E-01
DAV:   2    -0.833421900099E+03   -0.65513E-03   -0.82994E-03  4540   0.127E-01    0.127E-01
DAV:   3    -0.833421823483E+03    0.76615E-04   -0.20683E-04  5040   0.265E-02    0.969E-02
DAV:   4    -0.833421843225E+03   -0.19742E-04   -0.48025E-04  4490   0.365E-02    0.245E-02
DAV:   5    -0.833421845848E+03   -0.26229E-05   -0.71350E-05  4590   0.150E-02    0.166E-02
DAV:   6    -0.833421844766E+03    0.10821E-05   -0.24645E-05  4660   0.825E-03    0.709E-03
DAV:   7    -0.833421844440E+03    0.32528E-06   -0.22393E-06  3960   0.282E-03
 148 F= -.84105441E+03 E0= -.84105441E+03  d E =-.292752E-03  mag=    -0.0000
       N       E                     dE             d eps       ncg     rms          rms(c)
DAV:   1    -0.833422328754E+03   -0.48399E-03   -0.23911E-02  4340   0.318E-01    0.365E-02
DAV:   2    -0.833422372769E+03   -0.44015E-04   -0.63361E-04  5380   0.478E-02    0.319E-02
DAV:   3    -0.833422360122E+03    0.12648E-04   -0.32084E-05  5620   0.108E-02    0.238E-02
DAV:   4    -0.833422350504E+03    0.96173E-05   -0.23217E-05  4420   0.103E-02    0.111E-02
DAV:   5    -0.833422349835E+03    0.66904E-06   -0.70515E-06  4300   0.504E-03
 149 F= -.84105492E+03 E0= -.84105492E+03  d E =-.508033E-03  mag=    -0.0000
       N       E                     dE             d eps       ncg     rms          rms(c)
DAV:   1    -0.833421999437E+03    0.35107E-03   -0.23324E-02  4260   0.312E-01    0.361E-02
DAV:   2    -0.833422043636E+03   -0.44199E-04   -0.60499E-04  5340   0.465E-02    0.310E-02
DAV:   3    -0.833422032669E+03    0.10967E-04   -0.29409E-05  5480   0.104E-02    0.231E-02
DAV:   4    -0.833422025265E+03    0.74041E-05   -0.23223E-05  4380   0.102E-02    0.106E-02
DAV:   5    -0.833422024968E+03    0.29644E-06   -0.60425E-06  4140   0.468E-03
 150 F= -.84105459E+03 E0= -.84105459E+03  d E =0.324468E-03  mag=    -0.0000
       N       E                     dE             d eps       ncg     rms          rms(c)
DAV:   1    -0.833422189914E+03   -0.16465E-03   -0.11678E-03  4320   0.703E-02    0.845E-03
DAV:   2    -0.833422191743E+03   -0.18297E-05   -0.32538E-05  5380   0.108E-02    0.772E-03
DAV:   3    -0.833422190884E+03    0.85998E-06   -0.16172E-06  2820   0.260E-03
 151 F= -.84105476E+03 E0= -.84105476E+03  d E =-.165354E-03  mag=     0.0000
       N       E                     dE             d eps       ncg     rms          rms(c)
DAV:   1    -0.833422373838E+03   -0.18209E-03   -0.35366E-03  4340   0.122E-01    0.157E-02
DAV:   2    -0.833422379465E+03   -0.56276E-05   -0.86417E-05  5440   0.177E-02    0.136E-02
DAV:   3    -0.833422377172E+03    0.22936E-05   -0.51629E-06  4840   0.445E-03    0.975E-03
DAV:   4    -0.833422375901E+03    0.12704E-05   -0.39468E-06  4080   0.428E-03    0.424E-03
DAV:   5    -0.833422375859E+03    0.41946E-07   -0.10170E-06  2640   0.196E-03
 152 F= -.84105494E+03 E0= -.84105494E+03  d E =-.184233E-03  mag=    -0.0000
       N       E                     dE             d eps       ncg     rms          rms(c)
DAV:   1    -0.833422414409E+03   -0.38507E-04   -0.51258E-03  4260   0.147E-01    0.168E-02
DAV:   2    -0.833422424233E+03   -0.98240E-05   -0.13436E-04  5400   0.219E-02    0.145E-02
DAV:   3    -0.833422421782E+03    0.24503E-05   -0.67961E-06  5260   0.497E-03    0.108E-02
DAV:   4    -0.833422420081E+03    0.17017E-05   -0.48641E-06  4260   0.467E-03    0.507E-03
DAV:   5    -0.833422420010E+03    0.71130E-07   -0.12368E-06  2820   0.219E-03
 153 F= -.84105499E+03 E0= -.84105499E+03  d E =-.441071E-04  mag=     0.0000
       N       E                     dE             d eps       ncg     rms          rms(c)
DAV:   1    -0.833422422374E+03   -0.22934E-05   -0.61075E-06  3920   0.458E-03    0.119E-03
DAV:   2    -0.833422422368E+03    0.64538E-08   -0.20632E-07  2240   0.881E-04
 154 F= -.84105499E+03 E0= -.84105499E+03  d E =-.275550E-05  mag=     0.0000
       N       E                     dE             d eps       ncg     rms          rms(c)
DAV:   1    -0.833422426592E+03   -0.42180E-05   -0.20706E-05  4180   0.803E-03    0.120E-03
DAV:   2    -0.833422426610E+03   -0.17390E-07   -0.39919E-07  2350   0.113E-03
 155 F= -.84105499E+03 E0= -.84105499E+03  d E =-.502864E-05  mag=     0.0000
       N       E                     dE             d eps       ncg     rms          rms(c)
DAV:   1    -0.833422432060E+03   -0.54681E-05   -0.44983E-05  4260   0.117E-02    0.200E-03
DAV:   2    -0.833422432097E+03   -0.36736E-07   -0.85738E-07  2760   0.164E-03
 156 F= -.84105500E+03 E0= -.84105500E+03  d E =-.664301E-05  mag=     0.0000
       N       E                     dE             d eps       ncg     rms          rms(c)
DAV:   1    -0.833422437967E+03   -0.59065E-05   -0.73883E-05  4265   0.146E-02    0.275E-03
DAV:   2    -0.833422438022E+03   -0.54744E-07   -0.13381E-06  3080   0.201E-03
 157 F= -.84105501E+03 E0= -.84105501E+03  d E =-.741332E-05  mag=     0.0000
       N       E                     dE             d eps       ncg     rms          rms(c)
DAV:   1    -0.833422443743E+03   -0.57760E-05   -0.10578E-04  4260   0.169E-02    0.335E-03
DAV:   2    -0.833422443819E+03   -0.75896E-07   -0.18170E-06  3110   0.226E-03
 158 F= -.84105502E+03 E0= -.84105502E+03  d E =-.761218E-05  mag=     0.0000
       N       E                     dE             d eps       ncg     rms          rms(c)
DAV:   1    -0.833422448830E+03   -0.50872E-05   -0.13707E-04  4240   0.183E-02    0.384E-03
DAV:   2    -0.833422448929E+03   -0.99521E-07   -0.22250E-06  3380   0.240E-03
 159 F= -.84105502E+03 E0= -.84105502E+03  d E =-.718944E-05  mag=     0.0000
       N       E                     dE             d eps       ncg     rms          rms(c)
DAV:   1    -0.833422454016E+03   -0.51865E-05   -0.20655E-04  4260   0.209E-02    0.448E-03
DAV:   2    -0.833422454173E+03   -0.15688E-06   -0.31384E-06  3250   0.265E-03
 160 F= -.84105503E+03 E0= -.84105503E+03  d E =-.771337E-05  mag=     0.0000
       N       E                     dE             d eps       ncg     rms          rms(c)
DAV:   1    -0.833422460543E+03   -0.65264E-05   -0.30322E-04  4260   0.230E-02    0.530E-03
DAV:   2    -0.833422460768E+03   -0.22475E-06   -0.42324E-06  3300   0.277E-03
 161 F= -.84105504E+03 E0= -.84105504E+03  d E =-.948577E-05  mag=     0.0000
       N       E                     dE             d eps       ncg     rms          rms(c)
DAV:   1    -0.833422470000E+03   -0.94573E-05   -0.44536E-04  4240   0.256E-02    0.626E-03
DAV:   2    -0.833422470322E+03   -0.32149E-06   -0.56915E-06  3330   0.289E-03
 162 F= -.84105505E+03 E0= -.84105505E+03  d E =-.128825E-04  mag=    -0.0000
       N       E                     dE             d eps       ncg     rms          rms(c)
DAV:   1    -0.833422484212E+03   -0.14212E-04   -0.66644E-04  4240   0.306E-02    0.750E-03
DAV:   2    -0.833422484706E+03   -0.49453E-06   -0.82670E-06  3470   0.338E-03
 163 F= -.84105507E+03 E0= -.84105507E+03  d E =-.182976E-04  mag=     0.0000
       N       E                     dE             d eps       ncg     rms          rms(c)
DAV:   1    -0.833422503409E+03   -0.19198E-04   -0.10139E-03  4240   0.391E-02    0.923E-03
DAV:   2    -0.833422504215E+03   -0.80611E-06   -0.13097E-05  3770   0.446E-03    0.783E-03
DAV:   3    -0.833422504115E+03    0.10006E-06   -0.67572E-07  3140   0.143E-03
 164 F= -.84105510E+03 E0= -.84105509E+03  d E =-.239666E-04  mag=     0.0000
       N       E                     dE             d eps       ncg     rms          rms(c)
DAV:   1    -0.833422526748E+03   -0.22533E-04   -0.15059E-03  4240   0.491E-02    0.745E-03
DAV:   2    -0.833422528483E+03   -0.17349E-05   -0.20376E-05  4210   0.564E-03    0.636E-03
DAV:   3    -0.833422528415E+03    0.68365E-07   -0.45035E-07  3320   0.117E-03
 165 F= -.84105512E+03 E0= -.84105512E+03  d E =-.295553E-04  mag=     0.0000
       N       E                     dE             d eps       ncg     rms          rms(c)
DAV:   1    -0.833422555116E+03   -0.26632E-04   -0.22220E-03  4240   0.590E-02    0.903E-03
DAV:   2    -0.833422557662E+03   -0.25465E-05   -0.30035E-05  4420   0.671E-03    0.782E-03
DAV:   3    -0.833422557503E+03    0.15925E-06   -0.63651E-07  3420   0.133E-03
 166 F= -.84105516E+03 E0= -.84105516E+03  d E =-.350695E-04  mag=    -0.0000
