<?xml version="1.0" encoding="ISO-8859-1"?>
<modeling>
 <generator>
  <i name="program" type="string">vasp </i>
  <i name="version" type="string">6.4.2  </i>
  <i name="subversion" type="string">20Jul23 (build Aug 26 2025 15:10:52) complex                          parallel </i>
  <i name="platform" type="string">LinuxIFC </i>
  <i name="date" type="string">2025 12 07 </i>
  <i name="time" type="string">12:45:23 </i>
 </generator>
 <incar>
  <i type="int" name="ISTART">     0</i>
  <i type="string" name="ALGO">Normal</i>
  <i type="logical" name="ADDGRID"> T  </i>
  <i type="int" name="ISPIN">     2</i>
  <i type="int" name="IMIX">     4</i>
  <i name="AMIX">      0.20000000</i>
  <i name="BMIX">      0.00010000</i>
  <i name="AMIX_MAG">      0.80000000</i>
  <i name="BMIX_MAG">      0.00010000</i>
  <i type="int" name="ICHARG">     2</i>
  <i type="int" name="NELM">   200</i>
  <i type="int" name="IBRION">     3</i>
  <i name="EDIFF">      0.00000100</i>
  <i name="EDIFFG">     -0.03000000</i>
  <i type="int" name="NSW">  1000</i>
  <i type="int" name="ISIF">     2</i>
  <i type="int" name="ISYM">     0</i>
  <i name="ENCUT">    520.00000000</i>
  <i name="POTIM">      0.00000000</i>
  <v name="MAGMOM">      0.60000000      0.60000000      0.60000000      0.60000000      0.60000000      0.60000000      0.60000000      0.60000000      0.60000000      0.60000000      0.60000000      0.60000000      0.60000000      0.60000000      0.60000000      0.60000000      0.60000000      0.60000000      0.60000000      0.60000000
      0.60000000      0.60000000      0.60000000      0.60000000      0.60000000      0.60000000      0.60000000      0.60000000      0.60000000      0.60000000      0.60000000      0.60000000      0.60000000      0.60000000      0.60000000      0.60000000      0.60000000      0.60000000      0.60000000      0.60000000
      0.60000000      0.60000000      0.60000000      0.60000000      0.60000000      0.60000000      0.60000000      0.60000000      0.60000000      0.60000000      0.60000000      0.60000000      0.60000000      0.60000000      0.60000000      0.60000000      0.60000000      0.60000000      0.60000000      0.60000000
      0.60000000      0.60000000      0.60000000      0.60000000      0.60000000      0.60000000      0.60000000      0.60000000      0.60000000      0.60000000      0.60000000      0.60000000      0.60000000      0.60000000      0.60000000      0.60000000      0.60000000      0.60000000      0.60000000      0.60000000
      0.60000000      0.60000000      0.60000000      0.60000000      0.60000000      0.60000000      0.60000000      0.60000000      0.60000000      0.60000000      0.60000000      0.60000000      0.60000000      0.60000000      0.60000000</v>
  <i type="string" name="LREAL">Auto</i>
  <i type="int" name="ISMEAR">     0</i>
  <i name="SIGMA">      0.05000000</i>
  <i type="logical" name="LWAVE"> F  </i>
  <i type="logical" name="LCHARG"> F  </i>
  <i type="logical" name="LASPH"> T  </i>
  <i type="int" name="IVDW">    12</i>
  <i name="SPRING">     -5.00000000</i>
 </incar>
 <primitive_cell>
  <structure name="primitive_cell" >
   <crystal>
    <varray name="basis" >
     <v>      17.27103806       0.00000000       0.00000000 </v>
     <v>      -8.63551903      14.95715771       0.00000000 </v>
     <v>       0.00000000       0.00000000      15.00000000 </v>
    </varray>
    <i name="volume">   3874.88459904 </i>
    <varray name="rec_basis" >
     <v>       0.05790040       0.03342881       0.00000000 </v>
     <v>       0.00000000       0.06685762       0.00000000 </v>
     <v>       0.00000000       0.00000000       0.06666667 </v>
    </varray>
   </crystal>
   <varray name="positions" >
    <v>       0.00021215       0.00013213       0.50103274 </v>
    <v>       0.99939101       0.14230862       0.50047363 </v>
    <v>       0.99942651       0.28545702       0.50025059 </v>
    <v>       0.99984001       0.42858714       0.50019347 </v>
    <v>       0.99997672       0.57158212       0.50040868 </v>
    <v>       0.00058226       0.71462079       0.50085075 </v>
    <v>       0.00154945       0.85819493       0.50117107 </v>
    <v>       0.14422216       0.00188544       0.50068449 </v>
    <v>       0.14350944       0.14421052       0.50087037 </v>
    <v>       0.14183412       0.28565334       0.50101694 </v>
    <v>       0.14293051       0.42906652       0.50079032 </v>
    <v>       0.14326323       0.57159393       0.50038289 </v>
    <v>       0.14343278       0.71469703       0.50007051 </v>
    <v>       0.14382569       0.85828754       0.50024208 </v>
    <v>       0.28688268       0.00207194       0.50015919 </v>
    <v>       0.28742877       0.14620695       0.50114568 </v>
    <v>       0.28688330       0.29159176       0.50212112 </v>
    <v>       0.28507756       0.42661300       0.50202716 </v>
    <v>       0.28774596       0.57111621       0.50096756 </v>
    <v>       0.28626046       0.71504196       0.50003455 </v>
    <v>       0.28595520       0.85837138       0.49982738 </v>
    <v>       0.42920804       0.00096331       0.49998202 </v>
    <v>       0.43035897       0.14552314       0.50048425 </v>
    <v>       0.42969217       0.28702173       0.50098903 </v>
    <v>       0.42789166       0.85687721       0.50007285 </v>
    <v>       0.57109690       0.99920293       0.50030779 </v>
    <v>       0.57188103       0.14304177       0.50009300 </v>
    <v>       0.57576974       0.28979779       0.50063491 </v>
    <v>       0.57007186       0.85414173       0.50082619 </v>
    <v>       0.71313499       0.99748217       0.50084590 </v>
    <v>       0.71419630       0.14186135       0.50017767 </v>
    <v>       0.71482637       0.28548882       0.50008038 </v>
    <v>       0.71091030       0.42566217       0.50087920 </v>
    <v>       0.71584045       0.57386471       0.50171768 </v>
    <v>       0.71205192       0.85344562       0.50198182 </v>
    <v>       0.85632089       0.99855977       0.50115618 </v>
    <v>       0.85634406       0.14172094       0.50031082 </v>
    <v>       0.85693586       0.28521824       0.49997002 </v>
    <v>       0.85699578       0.42850750       0.50025654 </v>
    <v>       0.85638096       0.57116892       0.50132078 </v>
    <v>       0.85851358       0.71516799       0.50210400 </v>
    <v>       0.85763263       0.85622102       0.50195972 </v>
    <v>       0.04794489       0.09559585       0.50070651 </v>
    <v>       0.04648498       0.23748750       0.50048314 </v>
    <v>       0.04724789       0.38096393       0.50034773 </v>
    <v>       0.04782778       0.52400161       0.50028442 </v>
    <v>       0.04800450       0.66701482       0.50042428 </v>
    <v>       0.04850304       0.81014554       0.50074263 </v>
    <v>       0.04869355       0.95334549       0.50093366 </v>
    <v>       0.19183184       0.09716820       0.50093447 </v>
    <v>       0.19057415       0.23958335       0.50121312 </v>
    <v>       0.18935486       0.38050998       0.50129102 </v>
    <v>       0.19140525       0.52446671       0.50083012 </v>
    <v>       0.19089239       0.66709292       0.50006855 </v>
    <v>       0.19104224       0.81039459       0.49997718 </v>
    <v>       0.19166557       0.95389023       0.50030505 </v>
    <v>       0.33492629       0.09818057       0.50056773 </v>
    <v>       0.33618262       0.24239711       0.50162403 </v>
    <v>       0.33172214       0.52181040       0.50120288 </v>
    <v>       0.33700662       0.66999762       0.50053519 </v>
    <v>       0.33315450       0.81010041       0.49991488 </v>
    <v>       0.33381133       0.95372079       0.49990112 </v>
    <v>       0.47689078       0.09632783       0.50015732 </v>
    <v>       0.47797640       0.24142460       0.50072842 </v>
    <v>       0.47228360       0.80575230       0.50054078 </v>
    <v>       0.47612687       0.95249032       0.50006605 </v>
    <v>       0.61881864       0.09458192       0.50015772 </v>
    <v>       0.62010306       0.23865385       0.50014671 </v>
    <v>       0.61855332       0.80872781       0.50116514 </v>
    <v>       0.61769975       0.95005553       0.50070629 </v>
    <v>       0.76116242       0.09354230       0.50043468 </v>
    <v>       0.76204479       0.23721436       0.50000432 </v>
    <v>       0.76165039       0.38057649       0.50027141 </v>
    <v>       0.75995443       0.52459828       0.50143546 </v>
    <v>       0.76277761       0.66914830       0.50273299 </v>
    <v>       0.76133805       0.80424862       0.50271665 </v>
    <v>       0.76070442       0.94956485       0.50143300 </v>
    <v>       0.90385575       0.09380864       0.50053556 </v>
    <v>       0.90412862       0.23729654       0.50007706 </v>
    <v>       0.90442468       0.38086464       0.50005079 </v>
    <v>       0.90452571       0.52402140       0.50064355 </v>
    <v>       0.90488971       0.66656619       0.50144184 </v>
    <v>       0.90619475       0.81003086       0.50186919 </v>
    <v>       0.90466187       0.95155777       0.50134486 </v>
    <v>       0.46729850       0.35977345       0.50009437 </v>
    <v>       0.40444323       0.55793899       0.49850127 </v>
    <v>       0.64300557       0.53804754       0.49874961 </v>
    <v>       0.58144918       0.73599321       0.50023878 </v>
    <v>       0.55848584       0.58897146       0.50474244 </v>
    <v>       0.47224088       0.49224301       0.49874152 </v>
    <v>       0.42691375       0.71528215       0.50104089 </v>
    <v>       0.71651758       0.71451256       0.50373889 </v>
    <v>       0.33151764       0.38142489       0.50318791 </v>
    <v>       0.62102551       0.38022486       0.50132876 </v>
    <v>       0.52266236       0.53880602       0.46511209 </v>
   </varray>
  </structure>
  <varray name="primitive_index" >
   <v type="int" >        1 </v>
   <v type="int" >        2 </v>
   <v type="int" >        3 </v>
   <v type="int" >        4 </v>
   <v type="int" >        5 </v>
   <v type="int" >        6 </v>
   <v type="int" >        7 </v>
   <v type="int" >        8 </v>
   <v type="int" >        9 </v>
   <v type="int" >       10 </v>
   <v type="int" >       11 </v>
   <v type="int" >       12 </v>
   <v type="int" >       13 </v>
   <v type="int" >       14 </v>
   <v type="int" >       15 </v>
   <v type="int" >       16 </v>
   <v type="int" >       17 </v>
   <v type="int" >       18 </v>
   <v type="int" >       19 </v>
   <v type="int" >       20 </v>
   <v type="int" >       21 </v>
   <v type="int" >       22 </v>
   <v type="int" >       23 </v>
   <v type="int" >       24 </v>
   <v type="int" >       25 </v>
   <v type="int" >       26 </v>
   <v type="int" >       27 </v>
   <v type="int" >       28 </v>
   <v type="int" >       29 </v>
   <v type="int" >       30 </v>
   <v type="int" >       31 </v>
   <v type="int" >       32 </v>
   <v type="int" >       33 </v>
   <v type="int" >       34 </v>
   <v type="int" >       35 </v>
   <v type="int" >       36 </v>
   <v type="int" >       37 </v>
   <v type="int" >       38 </v>
   <v type="int" >       39 </v>
   <v type="int" >       40 </v>
   <v type="int" >       41 </v>
   <v type="int" >       42 </v>
   <v type="int" >       43 </v>
   <v type="int" >       44 </v>
   <v type="int" >       45 </v>
   <v type="int" >       46 </v>
   <v type="int" >       47 </v>
   <v type="int" >       48 </v>
   <v type="int" >       49 </v>
   <v type="int" >       50 </v>
   <v type="int" >       51 </v>
   <v type="int" >       52 </v>
   <v type="int" >       53 </v>
   <v type="int" >       54 </v>
   <v type="int" >       55 </v>
   <v type="int" >       56 </v>
   <v type="int" >       57 </v>
   <v type="int" >       58 </v>
   <v type="int" >       59 </v>
   <v type="int" >       60 </v>
   <v type="int" >       61 </v>
   <v type="int" >       62 </v>
   <v type="int" >       63 </v>
   <v type="int" >       64 </v>
   <v type="int" >       65 </v>
   <v type="int" >       66 </v>
   <v type="int" >       67 </v>
   <v type="int" >       68 </v>
   <v type="int" >       69 </v>
   <v type="int" >       70 </v>
   <v type="int" >       71 </v>
   <v type="int" >       72 </v>
   <v type="int" >       73 </v>
   <v type="int" >       74 </v>
   <v type="int" >       75 </v>
   <v type="int" >       76 </v>
   <v type="int" >       77 </v>
   <v type="int" >       78 </v>
   <v type="int" >       79 </v>
   <v type="int" >       80 </v>
   <v type="int" >       81 </v>
   <v type="int" >       82 </v>
   <v type="int" >       83 </v>
   <v type="int" >       84 </v>
   <v type="int" >       85 </v>
   <v type="int" >       86 </v>
   <v type="int" >       87 </v>
   <v type="int" >       88 </v>
   <v type="int" >       89 </v>
   <v type="int" >       90 </v>
   <v type="int" >       91 </v>
   <v type="int" >       92 </v>
   <v type="int" >       93 </v>
   <v type="int" >       94 </v>
   <v type="int" >       95 </v>
  </varray>
 </primitive_cell>
 <kpoints>
  <generation param="Gamma">
   <v type="int" name="divisions">       2        2        1 </v>
   <v name="usershift">      0.00000000       0.00000000       0.00000000 </v>
   <v name="genvec1">      0.50000000       0.00000000       0.00000000 </v>
   <v name="genvec2">      0.00000000       0.50000000       0.00000000 </v>
   <v name="genvec3">      0.00000000       0.00000000       1.00000000 </v>
   <v name="shift">      0.00000000       0.00000000       0.00000000 </v>
  </generation>
  <varray name="kpointlist" >
   <v>       0.00000000       0.00000000       0.00000000 </v>
   <v>       0.50000000       0.00000000       0.00000000 </v>
   <v>       0.00000000       0.50000000       0.00000000 </v>
   <v>       0.50000000       0.50000000       0.00000000 </v>
  </varray>
  <varray name="weights" >
   <v>       0.25000000 </v>
   <v>       0.25000000 </v>
   <v>       0.25000000 </v>
   <v>       0.25000000 </v>
  </varray>
 </kpoints>
 <parameters>
  <separator name="general" >
   <i type="string" name="SYSTEM">unknown system</i>
   <i type="logical" name="LCOMPAT"> F  </i>
  </separator>
  <separator name="electronic" >
   <i type="string" name="PREC">normal</i>
   <i name="ENMAX">    520.00000000</i>
   <i name="ENAUG">    644.87300000</i>
   <i name="EDIFF">      0.00000100</i>
   <i type="int" name="IALGO">    38</i>
   <i type="int" name="IWAVPR">    11</i>
   <i type="int" name="NBANDS">   265</i>
   <i type="int" name="NBANDSLOW">    -1</i>
   <i type="int" name="NBANDSHIGH">    -1</i>
   <i name="NELECT">    368.00000000</i>
   <i type="int" name="TURBO">     0</i>
   <i type="int" name="IRESTART">     0</i>
   <i type="int" name="NREBOOT">     0</i>
   <i type="int" name="NMIN">     0</i>
   <i name="EREF">      0.00000000</i>
   <separator name="electronic smearing" >
    <i type="int" name="ISMEAR">     0</i>
    <i name="SIGMA">      0.05000000</i>
    <i name="KSPACING">      0.50000000</i>
    <i type="logical" name="KGAMMA"> T  </i>
    <i type="logical" name="KBLOWUP"> T  </i>
   </separator>
   <separator name="electronic projectors" >
    <i type="logical" name="LREAL"> T  </i>
    <v name="ROPT">     -0.00050000     -0.00050000     -0.00050000     -0.00050000</v>
    <i type="int" name="LMAXPAW">  -100</i>
    <i type="int" name="LMAXMIX">     2</i>
    <i type="logical" name="NLSPLINE"> F  </i>
   </separator>
   <separator name="electronic startup" >
    <i type="int" name="ISTART">     0</i>
    <i type="int" name="ICHARG">     2</i>
    <i type="int" name="INIWAV">     1</i>
   </separator>
   <separator name="electronic spin" >
    <i type="int" name="ISPIN">     2</i>
    <i type="logical" name="LNONCOLLINEAR"> F  </i>
    <v name="MAGMOM">      0.60000000      0.60000000      0.60000000      0.60000000      0.60000000      0.60000000      0.60000000      0.60000000      0.60000000      0.60000000      0.60000000      0.60000000      0.60000000      0.60000000      0.60000000      0.60000000      0.60000000      0.60000000      0.60000000      0.60000000
      0.60000000      0.60000000      0.60000000      0.60000000      0.60000000      0.60000000      0.60000000      0.60000000      0.60000000      0.60000000      0.60000000      0.60000000      0.60000000      0.60000000      0.60000000      0.60000000      0.60000000      0.60000000      0.60000000      0.60000000
      0.60000000      0.60000000      0.60000000      0.60000000      0.60000000      0.60000000      0.60000000      0.60000000      0.60000000      0.60000000      0.60000000      0.60000000      0.60000000      0.60000000      0.60000000      0.60000000      0.60000000      0.60000000      0.60000000      0.60000000
      0.60000000      0.60000000      0.60000000      0.60000000      0.60000000      0.60000000      0.60000000      0.60000000      0.60000000      0.60000000      0.60000000      0.60000000      0.60000000      0.60000000      0.60000000      0.60000000      0.60000000      0.60000000      0.60000000      0.60000000
      0.60000000      0.60000000      0.60000000      0.60000000      0.60000000      0.60000000      0.60000000      0.60000000      0.60000000      0.60000000      0.60000000      0.60000000      0.60000000      0.60000000      0.60000000</v>
    <i name="NUPDOWN">     -1.00000000</i>
    <i type="logical" name="LSORBIT"> F  </i>
    <v name="SAXIS">      0.00000000      0.00000000      1.00000000</v>
    <i type="logical" name="LSPIRAL"> F  </i>
    <v name="QSPIRAL">      0.00000000      0.00000000      0.00000000</v>
    <i type="logical" name="LZEROZ"> F  </i>
   </separator>
   <separator name="electronic exchange-correlation" >
    <i type="logical" name="LASPH"> T  </i>
    <i type="logical" name="LMETAGGA"> F  </i>
   </separator>
   <separator name="electronic convergence" >
    <i type="int" name="NELM">   200</i>
    <i type="int" name="NELMDL">    -5</i>
    <i type="int" name="NELMIN">     2</i>
    <i name="ENINI">    520.00000000</i>
    <separator name="electronic convergence detail" >
     <i type="logical" name="LDIAG"> T  </i>
     <i type="logical" name="LSUBROT"> F  </i>
     <i name="WEIMIN">      0.00100000</i>
     <i name="EBREAK">      0.00000000</i>
     <i name="DEPER">      0.30000000</i>
     <i type="int" name="NRMM">     4</i>
     <i name="TIME">      0.40000000</i>
    </separator>
   </separator>
   <separator name="electronic mixer" >
    <i name="AMIX">      0.20000000</i>
    <i name="BMIX">      0.00010000</i>
    <i name="AMIN">      0.10000000</i>
    <i name="AMIX_MAG">      0.80000000</i>
    <i name="BMIX_MAG">      0.00010000</i>
    <separator name="electronic mixer details" >
     <i type="int" name="IMIX">     4</i>
     <i type="logical" name="MIXFIRST"> F  </i>
     <i type="int" name="MAXMIX">   -45</i>
     <i name="WC">    100.00000000</i>
     <i type="int" name="INIMIX">     1</i>
     <i type="int" name="MIXPRE">     1</i>
     <i type="int" name="MREMOVE">     5</i>
    </separator>
   </separator>
   <separator name="electronic dipolcorrection" >
    <i type="logical" name="LDIPOL"> F  </i>
    <i type="logical" name="LMONO"> F  </i>
    <i type="int" name="IDIPOL">     0</i>
    <i name="EPSILON">      1.00000000</i>
    <v name="DIPOL">   -100.00000000   -100.00000000   -100.00000000</v>
    <i name="EFIELD">      0.00000000</i>
   </separator>
  </separator>
  <separator name="grids" >
   <i type="int" name="NGX">    96</i>
   <i type="int" name="NGY">    96</i>
   <i type="int" name="NGZ">    84</i>
   <i type="int" name="NGXF">   192</i>
   <i type="int" name="NGYF">   192</i>
   <i type="int" name="NGZF">   168</i>
   <i type="logical" name="ADDGRID"> T  </i>
  </separator>
  <separator name="ionic" >
   <i type="int" name="NSW">  1000</i>
   <i type="int" name="IBRION">     3</i>
   <i type="int" name="MDALGO">     0</i>
   <i type="int" name="ISIF">     2</i>
   <i name="PSTRESS">      0.00000000</i>
   <i name="EDIFFG">     -0.03000000</i>
   <i type="int" name="NFREE">     0</i>
   <i name="POTIM">      0.00000000</i>
   <i name="SMASS">     -3.00000000</i>
   <i name="SCALEE">      1.00000000</i>
  </separator>
  <separator name="ionic md" >
   <i name="TEBEG">      0.00010000</i>
   <i name="TEEND">      0.00010000</i>
   <i type="int" name="NBLOCK">     1</i>
   <i type="int" name="KBLOCK">  1000</i>
   <i type="int" name="NPACO">   256</i>
   <i name="APACO">     10.00000000</i>
  </separator>
  <separator name="symmetry" >
   <i type="int" name="ISYM">     0</i>
   <i name="SYMPREC">      0.00001000</i>
  </separator>
  <separator name="dos" >
   <i type="int" name="LORBIT">     0</i>
   <v name="RWIGS">     -1.00000000     -1.00000000     -1.00000000     -1.00000000</v>
   <i type="int" name="NEDOS">   301</i>
   <i name="EMIN">     10.00000000</i>
   <i name="EMAX">    -10.00000000</i>
   <i name="EFERMI">      0.00000000</i>
  </separator>
  <separator name="writing" >
   <i type="int" name="NWRITE">     2</i>
   <i type="logical" name="LWAVE"> F  </i>
   <i type="logical" name="LDOWNSAMPLE"> F  </i>
   <i type="logical" name="LCHARG"> F  </i>
   <i type="logical" name="LPARD"> F  </i>
   <i type="logical" name="LVTOT"> F  </i>
   <i type="logical" name="LVHAR"> F  </i>
   <i type="logical" name="LELF"> F  </i>
   <i type="logical" name="LOPTICS"> F  </i>
   <v name="STM">      0.00000000      0.00000000      0.00000000      0.00000000      0.00000000      0.00000000      0.00000000</v>
  </separator>
  <separator name="performance" >
   <i type="int" name="NPAR">     5</i>
   <i type="int" name="NSIM">     4</i>
   <i type="int" name="NBLK">    -1</i>
   <i type="logical" name="LPLANE"> T  </i>
   <i type="logical" name="LSCALAPACK"> T  </i>
   <i type="logical" name="LSCAAWARE"> F  </i>
   <i type="logical" name="LSCALU"> F  </i>
   <i type="logical" name="LASYNC"> F  </i>
   <i type="logical" name="LORBITALREAL"> F  </i>
  </separator>
  <separator name="miscellaneous" >
   <i type="int" name="IDIOT">     3</i>
   <i type="int" name="PHON_NSTRUCT">    -1</i>
   <i type="logical" name="LMUSIC"> F  </i>
   <v name="POMASS">     12.01100000      1.00000000     14.00100000     16.00000000</v>
   <v name="DARWINR">      0.00000000      0.00000000      0.00000000      0.00000000</v>
   <v name="DARWINV">      1.00000000      1.00000000      1.00000000      1.00000000</v>
   <i type="logical" name="LCORR"> T  </i>
  </separator>
  <i type="logical" name="GGA_COMPAT"> T  </i>
  <i type="logical" name="LBERRY"> F  </i>
  <i type="int" name="ICORELEVEL">     0</i>
  <i type="logical" name="LDAU"> F  </i>
  <i type="int" name="I_CONSTRAINED_M">     0</i>
  <separator name="electronic exchange-correlation" >
   <i type="string" name="GGA">--</i>
   <i type="int" name="VOSKOWN">     0</i>
   <i type="logical" name="LHFCALC"> F  </i>
   <i type="string" name="PRECFOCK"></i>
   <i type="logical" name="LSYMGRAD"> F  </i>
   <i type="logical" name="LHFONE"> F  </i>
   <i type="logical" name="LRHFCALC"> F  </i>
   <i type="logical" name="LTHOMAS"> F  </i>
   <i type="logical" name="LMODELHF"> F  </i>
   <i type="logical" name="LFOCKACE"> F  </i>
   <i name="ENCUT4O">     -1.00000000</i>
   <i type="int" name="EXXOEP">     0</i>
   <i type="int" name="FOURORBIT">     0</i>
   <i name="AEXX">      0.00000000</i>
   <i name="HFALPHA">      0.00000000</i>
   <i name="MCALPHA">      0.00000000</i>
   <i name="ALDAX">      1.00000000</i>
   <i name="AGGAX">      1.00000000</i>
   <i name="ALDAC">      1.00000000</i>
   <i name="AGGAC">      1.00000000</i>
   <i type="int" name="NKREDX">     1</i>
   <i type="int" name="NKREDY">     1</i>
   <i type="int" name="NKREDZ">     1</i>
   <i type="logical" name="SHIFTRED"> F  </i>
   <i type="logical" name="ODDONLY"> F  </i>
   <i type="logical" name="EVENONLY"> F  </i>
   <i type="int" name="LMAXFOCK">     0</i>
   <i type="int" name="NMAXFOCKAE">     0</i>
   <i type="logical" name="LFOCKAEDFT"> F  </i>
   <i name="HFSCREEN">      0.00000000</i>
   <i name="HFSCREENC">      0.00000000</i>
   <i type="int" name="NBANDSGWLOW">     0</i>
  </separator>
  <separator name="vdW DFT" >
   <i type="logical" name="LUSE_VDW"> F  </i>
   <i type="int" name="IVDW_NL">     1</i>
   <i type="logical" name="LSPIN_VDW"> F  </i>
   <i name="Zab_VDW">     -0.84910000</i>
   <i name="PARAM1">      0.12340000</i>
   <i name="PARAM2">      1.00000000</i>
   <i name="PARAM3">      0.00000000</i>
  </separator>
  <separator name="model GW" >
   <i type="int" name="MODEL_GW">     0</i>
   <i name="MODEL_EPS0">     24.47295536</i>
   <i name="MODEL_ALPHA">      1.00000000</i>
  </separator>
  <separator name="linear response parameters" >
   <i type="logical" name="LEPSILON"> F  </i>
   <i type="logical" name="LRPA"> F  </i>
   <i type="logical" name="LNABLA"> F  </i>
   <i type="logical" name="LVEL"> F  </i>
   <i name="CSHIFT">      0.10000000</i>
   <i name="OMEGAMAX">     -1.00000000</i>
   <i name="DEG_THRESHOLD">      0.00200000</i>
   <i name="RTIME">     -0.10000000</i>
   <i name="WPLASMAI">      0.00000000</i>
   <v name="DFIELD">      0.00000000      0.00000000      0.00000000</v>
   <v name="WPLASMA">      0.00000000      0.00000000      0.00000000      0.00000000      0.00000000      0.00000000      0.00000000      0.00000000      0.00000000</v>
  </separator>
  <separator name="orbital magnetization" >
   <i type="logical" name="NUCIND"> F  </i>
   <v name="MAGPOS">      0.00000000      0.00000000      0.00000000</v>
   <i type="logical" name="LNICSALL"> T  </i>
   <i type="logical" name="ORBITALMAG"> F  </i>
   <i type="logical" name="LMAGBLOCH"> F  </i>
   <i type="logical" name="LCHIMAG"> F  </i>
   <i type="logical" name="LGAUGE"> T  </i>
   <i type="int" name="MAGATOM">     0</i>
   <v name="MAGDIPOL">      0.00000000      0.00000000      0.00000000</v>
   <v name="AVECCONST">      0.00000000      0.00000000      0.00000000</v>
  </separator>
  <separator name="response functions" >
   <i type="logical" name="LALL_IN_ONE"> F  </i>
   <i type="int" name="IALL_IN_ONE">    -1</i>
   <i type="int" name="NBANDS_WAVE">    -1</i>
   <i type="logical" name="LFINITE_TEMPERATURE"> F  </i>
   <i type="logical" name="LADDER"> F  </i>
   <i type="logical" name="LRPAFORCE"> F  </i>
   <i type="logical" name="LFXC"> F  </i>
   <i type="logical" name="LHARTREE"> T  </i>
   <i type="int" name="IBSE">     0</i>
   <v type="int" name="KPOINT">    -1     0     0     0</v>
   <i type="logical" name="LTCTC"> F  </i>
   <i type="logical" name="LTCTE"> F  </i>
   <i type="logical" name="LTETE"> F  </i>
   <i type="logical" name="LTRIPLET"> F  </i>
   <i type="logical" name="LFXCEPS"> F  </i>
   <i type="logical" name="LFXHEG"> F  </i>
   <i type="int" name="NATURALO">     2</i>
   <i type="logical" name="LHOLEGF"> F  </i>
   <i type="logical" name="L2ORDER"> F  </i>
   <i type="logical" name="LDMP1"> F  </i>
   <i type="logical" name="LMP2LT"> F  </i>
   <i type="logical" name="LSMP2LT"> F  </i>
   <i type="logical" name="LGWLF"> F  </i>
   <i name="ENCUTGW">     -1.60000002</i>
   <i name="ENCUTGWSOFT">     -1.60000002</i>
   <i name="ENCUTLF">     -1.00000000</i>
   <i type="logical" name="LESF_SPLINES"> F  </i>
   <i type="int" name="LMAXMP2">    -1</i>
   <i name="SCISSOR">      0.00000000</i>
   <i type="int" name="NOMEGA">     0</i>
   <i type="int" name="NOMEGAR">     0</i>
   <i type="int" name="NBANDSGW">    -1</i>
   <i type="int" name="NBANDSO">    -1</i>
   <i type="int" name="NBANDSV">    -1</i>
   <i type="int" name="NELMGW">     1</i>
   <i type="int" name="NELMHF">     1</i>
   <i type="int" name="DIM">     3</i>
   <i type="int" name="IESPILON">     4</i>
   <i type="int" name="ANTIRES">     0</i>
   <i name="OMEGAMAX">    -30.00000000</i>
   <i name="OMEGAMIN">    -30.00000000</i>
   <i name="OMEGATL">   -200.00000000</i>
   <i type="int" name="OMEGAGRID">     0</i>
   <i name="CSHIFT">     -0.10000000</i>
   <i type="logical" name="LSELFENERGY"> F  </i>
   <i type="logical" name="LSPECTRAL"> F  </i>
   <i type="logical" name="LSPECTRALGW"> F  </i>
   <i type="logical" name="LSINGLES"> F  </i>
   <i type="logical" name="LFERMIGW"> F  </i>
   <i type="logical" name="ODDONLYGW"> F  </i>
   <i type="logical" name="EVENONLYGW"> F  </i>
   <i type="int" name="NKREDLFX">     1</i>
   <i type="int" name="NKREDLFY">     1</i>
   <i type="int" name="NKREDLFZ">     1</i>
   <i type="int" name="MAXMEM">  2800</i>
   <i type="int" name="TELESCOPE">     0</i>
   <i type="int" name="NTAUPAR">    -1</i>
   <i type="int" name="NOMEGAPAR">    -1</i>
   <i name="DAMP_NEWTON">      0.80000001</i>
   <i name="LAMBDA">      1.00000000</i>
  </separator>
  <separator name="External order field" >
   <i name="OFIELD_KAPPA">      0.00000000</i>
   <v name="OFIELD_K">      0.00000000      0.00000000      0.00000000</v>
   <i name="OFIELD_Q6_NEAR">      0.00000000</i>
   <i name="OFIELD_Q6_FAR">      0.00000000</i>
   <i name="OFIELD_A">      0.00000000</i>
  </separator>
  <separator name="optional k-points parameters" >
   <i type="int" name="KPOINTS_OPT_MODE">     1</i>
   <i type="logical" name="LKPOINTS_OPT"> F  </i>
  </separator>
 </parameters>
 <atominfo>
  <atoms>      95 </atoms>
  <types>       4 </types>
  <array name="atoms" >
   <dimension dim="1">ion</dimension>
   <field type="string">element</field>
   <field type="int">atomtype</field>
   <set>
    <rc><c>C </c><c>   1</c></rc>
    <rc><c>C </c><c>   1</c></rc>
    <rc><c>C </c><c>   1</c></rc>
    <rc><c>C </c><c>   1</c></rc>
    <rc><c>C </c><c>   1</c></rc>
    <rc><c>C </c><c>   1</c></rc>
    <rc><c>C </c><c>   1</c></rc>
    <rc><c>C </c><c>   1</c></rc>
    <rc><c>C </c><c>   1</c></rc>
    <rc><c>C </c><c>   1</c></rc>
    <rc><c>C </c><c>   1</c></rc>
    <rc><c>C </c><c>   1</c></rc>
    <rc><c>C </c><c>   1</c></rc>
    <rc><c>C </c><c>   1</c></rc>
    <rc><c>C </c><c>   1</c></rc>
    <rc><c>C </c><c>   1</c></rc>
    <rc><c>C </c><c>   1</c></rc>
    <rc><c>C </c><c>   1</c></rc>
    <rc><c>C </c><c>   1</c></rc>
    <rc><c>C </c><c>   1</c></rc>
    <rc><c>C </c><c>   1</c></rc>
    <rc><c>C </c><c>   1</c></rc>
    <rc><c>C </c><c>   1</c></rc>
    <rc><c>C </c><c>   1</c></rc>
    <rc><c>C </c><c>   1</c></rc>
    <rc><c>C </c><c>   1</c></rc>
    <rc><c>C </c><c>   1</c></rc>
    <rc><c>C </c><c>   1</c></rc>
    <rc><c>C </c><c>   1</c></rc>
    <rc><c>C </c><c>   1</c></rc>
    <rc><c>C </c><c>   1</c></rc>
    <rc><c>C </c><c>   1</c></rc>
    <rc><c>C </c><c>   1</c></rc>
    <rc><c>C </c><c>   1</c></rc>
    <rc><c>C </c><c>   1</c></rc>
    <rc><c>C </c><c>   1</c></rc>
    <rc><c>C </c><c>   1</c></rc>
    <rc><c>C </c><c>   1</c></rc>
    <rc><c>C </c><c>   1</c></rc>
    <rc><c>C </c><c>   1</c></rc>
    <rc><c>C </c><c>   1</c></rc>
    <rc><c>C </c><c>   1</c></rc>
    <rc><c>C </c><c>   1</c></rc>
    <rc><c>C </c><c>   1</c></rc>
    <rc><c>C </c><c>   1</c></rc>
    <rc><c>C </c><c>   1</c></rc>
    <rc><c>C </c><c>   1</c></rc>
    <rc><c>C </c><c>   1</c></rc>
    <rc><c>C </c><c>   1</c></rc>
    <rc><c>C </c><c>   1</c></rc>
    <rc><c>C </c><c>   1</c></rc>
    <rc><c>C </c><c>   1</c></rc>
    <rc><c>C </c><c>   1</c></rc>
    <rc><c>C </c><c>   1</c></rc>
    <rc><c>C </c><c>   1</c></rc>
    <rc><c>C </c><c>   1</c></rc>
    <rc><c>C </c><c>   1</c></rc>
    <rc><c>C </c><c>   1</c></rc>
    <rc><c>C </c><c>   1</c></rc>
    <rc><c>C </c><c>   1</c></rc>
    <rc><c>C </c><c>   1</c></rc>
    <rc><c>C </c><c>   1</c></rc>
    <rc><c>C </c><c>   1</c></rc>
    <rc><c>C </c><c>   1</c></rc>
    <rc><c>C </c><c>   1</c></rc>
    <rc><c>C </c><c>   1</c></rc>
    <rc><c>C </c><c>   1</c></rc>
    <rc><c>C </c><c>   1</c></rc>
    <rc><c>C </c><c>   1</c></rc>
    <rc><c>C </c><c>   1</c></rc>
    <rc><c>C </c><c>   1</c></rc>
    <rc><c>C </c><c>   1</c></rc>
    <rc><c>C </c><c>   1</c></rc>
    <rc><c>C </c><c>   1</c></rc>
    <rc><c>C </c><c>   1</c></rc>
    <rc><c>C </c><c>   1</c></rc>
    <rc><c>C </c><c>   1</c></rc>
    <rc><c>C </c><c>   1</c></rc>
    <rc><c>C </c><c>   1</c></rc>
    <rc><c>C </c><c>   1</c></rc>
    <rc><c>C </c><c>   1</c></rc>
    <rc><c>C </c><c>   1</c></rc>
    <rc><c>C </c><c>   1</c></rc>
    <rc><c>C </c><c>   1</c></rc>
    <rc><c>H </c><c>   2</c></rc>
    <rc><c>H </c><c>   2</c></rc>
    <rc><c>H </c><c>   2</c></rc>
    <rc><c>H </c><c>   2</c></rc>
    <rc><c>H </c><c>   2</c></rc>
    <rc><c>H </c><c>   2</c></rc>
    <rc><c>N </c><c>   3</c></rc>
    <rc><c>N </c><c>   3</c></rc>
    <rc><c>N </c><c>   3</c></rc>
    <rc><c>N </c><c>   3</c></rc>
    <rc><c>O </c><c>   4</c></rc>
   </set>
  </array>
  <array name="atomtypes" >
   <dimension dim="1">type</dimension>
   <field type="int">atomspertype</field>
   <field type="string">element</field>
   <field>mass</field>
   <field>valence</field>
   <field type="string">pseudopotential</field>
   <set>
    <rc><c>  84</c><c>C </c><c>     12.01100000</c><c>      4.00000000</c><c>  PAW_PBE C 08Apr2002                   </c></rc>
    <rc><c>   6</c><c>H </c><c>      1.00000000</c><c>      1.00000000</c><c>  PAW_PBE H 15Jun2001                   </c></rc>
    <rc><c>   4</c><c>N </c><c>     14.00100000</c><c>      5.00000000</c><c>  PAW_PBE N 08Apr2002                   </c></rc>
    <rc><c>   1</c><c>O </c><c>     16.00000000</c><c>      6.00000000</c><c>  PAW_PBE O 08Apr2002                   </c></rc>
   </set>
  </array>
 </atominfo>
 <structure name="initialpos" >
  <crystal>
   <varray name="basis" >
    <v>      17.27103806       0.00000000       0.00000000 </v>
    <v>      -8.63551903      14.95715771       0.00000000 </v>
    <v>       0.00000000       0.00000000      15.00000000 </v>
   </varray>
   <i name="volume">   3874.88459904 </i>
   <varray name="rec_basis" >
    <v>       0.05790040       0.03342881       0.00000000 </v>
    <v>       0.00000000       0.06685762       0.00000000 </v>
    <v>       0.00000000       0.00000000       0.06666667 </v>
   </varray>
  </crystal>
  <varray name="positions" >
   <v>       0.00021215       0.00013213       0.50103274 </v>
   <v>       0.99939101       0.14230862       0.50047363 </v>
   <v>       0.99942651       0.28545702       0.50025059 </v>
   <v>       0.99984001       0.42858714       0.50019347 </v>
   <v>       0.99997672       0.57158212       0.50040868 </v>
   <v>       0.00058226       0.71462079       0.50085075 </v>
   <v>       0.00154945       0.85819493       0.50117107 </v>
   <v>       0.14422216       0.00188544       0.50068449 </v>
   <v>       0.14350944       0.14421052       0.50087037 </v>
   <v>       0.14183412       0.28565334       0.50101694 </v>
   <v>       0.14293051       0.42906652       0.50079032 </v>
   <v>       0.14326323       0.57159393       0.50038289 </v>
   <v>       0.14343278       0.71469703       0.50007051 </v>
   <v>       0.14382569       0.85828754       0.50024208 </v>
   <v>       0.28688268       0.00207194       0.50015919 </v>
   <v>       0.28742877       0.14620695       0.50114568 </v>
   <v>       0.28688330       0.29159176       0.50212112 </v>
   <v>       0.28507756       0.42661300       0.50202716 </v>
   <v>       0.28774596       0.57111621       0.50096756 </v>
   <v>       0.28626046       0.71504196       0.50003455 </v>
   <v>       0.28595520       0.85837138       0.49982738 </v>
   <v>       0.42920804       0.00096331       0.49998202 </v>
   <v>       0.43035897       0.14552314       0.50048425 </v>
   <v>       0.42969217       0.28702173       0.50098903 </v>
   <v>       0.42789166       0.85687721       0.50007285 </v>
   <v>       0.57109690       0.99920293       0.50030779 </v>
   <v>       0.57188103       0.14304177       0.50009300 </v>
   <v>       0.57576974       0.28979779       0.50063491 </v>
   <v>       0.57007186       0.85414173       0.50082619 </v>
   <v>       0.71313499       0.99748217       0.50084590 </v>
   <v>       0.71419630       0.14186135       0.50017767 </v>
   <v>       0.71482637       0.28548882       0.50008038 </v>
   <v>       0.71091030       0.42566217       0.50087920 </v>
   <v>       0.71584045       0.57386471       0.50171768 </v>
   <v>       0.71205192       0.85344562       0.50198182 </v>
   <v>       0.85632089       0.99855977       0.50115618 </v>
   <v>       0.85634406       0.14172094       0.50031082 </v>
   <v>       0.85693586       0.28521824       0.49997002 </v>
   <v>       0.85699578       0.42850750       0.50025654 </v>
   <v>       0.85638096       0.57116892       0.50132078 </v>
   <v>       0.85851358       0.71516799       0.50210400 </v>
   <v>       0.85763263       0.85622102       0.50195972 </v>
   <v>       0.04794489       0.09559585       0.50070651 </v>
   <v>       0.04648498       0.23748750       0.50048314 </v>
   <v>       0.04724789       0.38096393       0.50034773 </v>
   <v>       0.04782778       0.52400161       0.50028442 </v>
   <v>       0.04800450       0.66701482       0.50042428 </v>
   <v>       0.04850304       0.81014554       0.50074263 </v>
   <v>       0.04869355       0.95334549       0.50093366 </v>
   <v>       0.19183184       0.09716820       0.50093447 </v>
   <v>       0.19057415       0.23958335       0.50121312 </v>
   <v>       0.18935486       0.38050998       0.50129102 </v>
   <v>       0.19140525       0.52446671       0.50083012 </v>
   <v>       0.19089239       0.66709292       0.50006855 </v>
   <v>       0.19104224       0.81039459       0.49997718 </v>
   <v>       0.19166557       0.95389023       0.50030505 </v>
   <v>       0.33492629       0.09818057       0.50056773 </v>
   <v>       0.33618262       0.24239711       0.50162403 </v>
   <v>       0.33172214       0.52181040       0.50120288 </v>
   <v>       0.33700662       0.66999762       0.50053519 </v>
   <v>       0.33315450       0.81010041       0.49991488 </v>
   <v>       0.33381133       0.95372079       0.49990112 </v>
   <v>       0.47689078       0.09632783       0.50015732 </v>
   <v>       0.47797640       0.24142460       0.50072842 </v>
   <v>       0.47228360       0.80575230       0.50054078 </v>
   <v>       0.47612687       0.95249032       0.50006605 </v>
   <v>       0.61881864       0.09458192       0.50015772 </v>
   <v>       0.62010306       0.23865385       0.50014671 </v>
   <v>       0.61855332       0.80872781       0.50116514 </v>
   <v>       0.61769975       0.95005553       0.50070629 </v>
   <v>       0.76116242       0.09354230       0.50043468 </v>
   <v>       0.76204479       0.23721436       0.50000432 </v>
   <v>       0.76165039       0.38057649       0.50027141 </v>
   <v>       0.75995443       0.52459828       0.50143546 </v>
   <v>       0.76277761       0.66914830       0.50273299 </v>
   <v>       0.76133805       0.80424862       0.50271665 </v>
   <v>       0.76070442       0.94956485       0.50143300 </v>
   <v>       0.90385575       0.09380864       0.50053556 </v>
   <v>       0.90412862       0.23729654       0.50007706 </v>
   <v>       0.90442468       0.38086464       0.50005079 </v>
   <v>       0.90452571       0.52402140       0.50064355 </v>
   <v>       0.90488971       0.66656619       0.50144184 </v>
   <v>       0.90619475       0.81003086       0.50186919 </v>
   <v>       0.90466187       0.95155777       0.50134486 </v>
   <v>       0.46729850       0.35977345       0.50009437 </v>
   <v>       0.40444323       0.55793899       0.49850127 </v>
   <v>       0.64300557       0.53804754       0.49874961 </v>
   <v>       0.58144918       0.73599321       0.50023878 </v>
   <v>       0.55848584       0.58897146       0.50474244 </v>
   <v>       0.47224088       0.49224301       0.49874152 </v>
   <v>       0.42691375       0.71528215       0.50104089 </v>
   <v>       0.71651758       0.71451256       0.50373889 </v>
   <v>       0.33151764       0.38142489       0.50318791 </v>
   <v>       0.62102551       0.38022486       0.50132876 </v>
   <v>       0.52266236       0.53880602       0.46511209 </v>
  </varray>
  <varray name="selective"  type="logical" >
   <v type="logical" >  T  T  T </v>
   <v type="logical" >  T  T  T </v>
   <v type="logical" >  T  T  T </v>
   <v type="logical" >  T  T  T </v>
   <v type="logical" >  T  T  T </v>
   <v type="logical" >  T  T  T </v>
   <v type="logical" >  T  T  T </v>
   <v type="logical" >  T  T  T </v>
   <v type="logical" >  T  T  T </v>
   <v type="logical" >  T  T  T </v>
   <v type="logical" >  T  T  T </v>
   <v type="logical" >  T  T  T </v>
   <v type="logical" >  T  T  T </v>
   <v type="logical" >  T  T  T </v>
   <v type="logical" >  T  T  T </v>
   <v type="logical" >  T  T  T </v>
   <v type="logical" >  T  T  T </v>
   <v type="logical" >  T  T  T </v>
   <v type="logical" >  T  T  T </v>
   <v type="logical" >  T  T  T </v>
   <v type="logical" >  T  T  T </v>
   <v type="logical" >  T  T  T </v>
   <v type="logical" >  T  T  T </v>
   <v type="logical" >  T  T  T </v>
   <v type="logical" >  T  T  T </v>
   <v type="logical" >  T  T  T </v>
   <v type="logical" >  T  T  T </v>
   <v type="logical" >  T  T  T </v>
   <v type="logical" >  T  T  T </v>
   <v type="logical" >  T  T  T </v>
   <v type="logical" >  T  T  T </v>
   <v type="logical" >  T  T  T </v>
   <v type="logical" >  T  T  T </v>
   <v type="logical" >  T  T  T </v>
   <v type="logical" >  T  T  T </v>
   <v type="logical" >  T  T  T </v>
   <v type="logical" >  T  T  T </v>
   <v type="logical" >  T  T  T </v>
   <v type="logical" >  T  T  T </v>
   <v type="logical" >  T  T  T </v>
   <v type="logical" >  T  T  T </v>
   <v type="logical" >  T  T  T </v>
   <v type="logical" >  T  T  T </v>
   <v type="logical" >  T  T  T </v>
   <v type="logical" >  T  T  T </v>
   <v type="logical" >  T  T  T </v>
   <v type="logical" >  T  T  T </v>
   <v type="logical" >  T  T  T </v>
   <v type="logical" >  T  T  T </v>
   <v type="logical" >  T  T  T </v>
   <v type="logical" >  T  T  T </v>
   <v type="logical" >  T  T  T </v>
   <v type="logical" >  T  T  T </v>
   <v type="logical" >  T  T  T </v>
   <v type="logical" >  T  T  T </v>
   <v type="logical" >  T  T  T </v>
   <v type="logical" >  T  T  T </v>
   <v type="logical" >  T  T  T </v>
   <v type="logical" >  T  T  T </v>
   <v type="logical" >  T  T  T </v>
   <v type="logical" >  T  T  T </v>
   <v type="logical" >  T  T  T </v>
   <v type="logical" >  T  T  T </v>
   <v type="logical" >  T  T  T </v>
   <v type="logical" >  T  T  T </v>
   <v type="logical" >  T  T  T </v>
   <v type="logical" >  T  T  T </v>
   <v type="logical" >  T  T  T </v>
   <v type="logical" >  T  T  T </v>
   <v type="logical" >  T  T  T </v>
   <v type="logical" >  T  T  T </v>
   <v type="logical" >  T  T  T </v>
   <v type="logical" >  T  T  T </v>
   <v type="logical" >  T  T  T </v>
   <v type="logical" >  T  T  T </v>
   <v type="logical" >  T  T  T </v>
   <v type="logical" >  T  T  T </v>
   <v type="logical" >  T  T  T </v>
   <v type="logical" >  T  T  T </v>
   <v type="logical" >  T  T  T </v>
   <v type="logical" >  T  T  T </v>
   <v type="logical" >  T  T  T </v>
   <v type="logical" >  T  T  T </v>
   <v type="logical" >  T  T  T </v>
   <v type="logical" >  T  T  T </v>
   <v type="logical" >  T  T  T </v>
   <v type="logical" >  T  T  T </v>
   <v type="logical" >  T  T  T </v>
   <v type="logical" >  T  T  T </v>
   <v type="logical" >  T  T  T </v>
   <v type="logical" >  T  T  T </v>
   <v type="logical" >  T  T  T </v>
   <v type="logical" >  T  T  T </v>
   <v type="logical" >  T  T  T </v>
   <v type="logical" >  T  T  T </v>
  </varray>
  <nose>
   <v>      -3.00000000       0.00000000       0.00010000       0.00010000 </v>
  </nose>
 </structure>
 <calculation>
  <scstep>
   <time name="dav">   71.77   72.24</time>
   <time name="total">   76.95   77.48</time>
   <energy>
    <i name="alphaZ">    175.60570339 </i>
    <i name="ewald">  36574.60334155 </i>
    <i name="hartreedc"> -46984.26544052 </i>
    <i name="XCdc">   1231.28453075 </i>
    <i name="pawpsdc">  10290.17603344 </i>
    <i name="pawaedc"> -10344.35078173 </i>
    <i name="eentropy">     -0.04516804 </i>
    <i name="bandstr">  -1590.81923807 </i>
    <i name="atom">  13925.93113153 </i>
    <i name="e_fr_energy">   3278.12011231 </i>
    <i name="e_wo_entrp">   3278.16528034 </i>
    <i name="e_0_energy">   3278.14269632 </i>
   </energy>
  </scstep>
  <scstep>
   <time name="dav">   93.55   94.17</time>
   <time name="total">   93.56   94.18</time>
   <energy>
    <i name="e_fr_energy">   -234.80907409 </i>
    <i name="e_wo_entrp">   -234.80884993 </i>
    <i name="e_0_energy">   -234.80896201 </i>
   </energy>
  </scstep>
  <scstep>
   <time name="dav">   80.89   81.46</time>
   <time name="total">   80.89   81.48</time>
   <energy>
    <i name="e_fr_energy">   -852.96867391 </i>
    <i name="e_wo_entrp">   -852.96772212 </i>
    <i name="e_0_energy">   -852.96819801 </i>
   </energy>
  </scstep>
  <scstep>
   <time name="dav">   81.88   82.42</time>
   <time name="total">   81.88   82.43</time>
   <energy>
    <i name="e_fr_energy">   -875.14179495 </i>
    <i name="e_wo_entrp">   -875.13996108 </i>
    <i name="e_0_energy">   -875.14087802 </i>
   </energy>
  </scstep>
  <scstep>
   <time name="dav">   89.60   90.27</time>
   <time name="total">   94.62   95.34</time>
   <energy>
    <i name="e_fr_energy">   -875.78528067 </i>
    <i name="e_wo_entrp">   -875.78335959 </i>
    <i name="e_0_energy">   -875.78432013 </i>
   </energy>
  </scstep>
  <scstep>
   <time name="dav">   77.48   77.97</time>
   <time name="total">   87.46   88.05</time>
   <energy>
    <i name="e_fr_energy">   -859.37558367 </i>
    <i name="e_wo_entrp">   -859.37121218 </i>
    <i name="e_0_energy">   -859.37339792 </i>
   </energy>
  </scstep>
  <scstep>
   <time name="dav">   75.98   76.44</time>
   <time name="total">   86.36   86.93</time>
   <energy>
    <i name="e_fr_energy">   -838.27524246 </i>
    <i name="e_wo_entrp">   -838.27518882 </i>
    <i name="e_0_energy">   -838.27521564 </i>
   </energy>
  </scstep>
  <scstep>
   <time name="dav">   77.52   78.00</time>
   <time name="total">   87.99   88.58</time>
   <energy>
    <i name="e_fr_energy">   -833.57998637 </i>
    <i name="e_wo_entrp">   -833.57998482 </i>
    <i name="e_0_energy">   -833.57998559 </i>
   </energy>
  </scstep>
  <scstep>
   <time name="dav">   76.26   76.72</time>
   <time name="total">   86.92   87.48</time>
   <energy>
    <i name="e_fr_energy">   -833.49399023 </i>
    <i name="e_wo_entrp">   -833.49398922 </i>
    <i name="e_0_energy">   -833.49398973 </i>
   </energy>
  </scstep>
  <scstep>
   <time name="dav">   74.18   74.66</time>
   <time name="total">   84.59   85.17</time>
   <energy>
    <i name="e_fr_energy">   -833.39606232 </i>
    <i name="e_wo_entrp">   -833.39606118 </i>
    <i name="e_0_energy">   -833.39606175 </i>
   </energy>
  </scstep>
  <scstep>
   <time name="dav">   74.52   74.96</time>
   <time name="total">   84.75   85.29</time>
   <energy>
    <i name="e_fr_energy">   -833.38548563 </i>
    <i name="e_wo_entrp">   -833.38548465 </i>
    <i name="e_0_energy">   -833.38548514 </i>
   </energy>
  </scstep>
  <scstep>
   <time name="dav">   79.60   80.13</time>
   <time name="total">   90.11   90.73</time>
   <energy>
    <i name="e_fr_energy">   -833.38499129 </i>
    <i name="e_wo_entrp">   -833.38499034 </i>
    <i name="e_0_energy">   -833.38499082 </i>
   </energy>
  </scstep>
  <scstep>
   <time name="dav">   78.69   79.15</time>
   <time name="total">   89.30   89.85</time>
   <energy>
    <i name="e_fr_energy">   -833.38488904 </i>
    <i name="e_wo_entrp">   -833.38488807 </i>
    <i name="e_0_energy">   -833.38488855 </i>
   </energy>
  </scstep>
  <scstep>
   <time name="dav">   76.99   77.50</time>
   <time name="total">   87.83   88.44</time>
   <energy>
    <i name="e_fr_energy">   -833.38495692 </i>
    <i name="e_wo_entrp">   -833.38495595 </i>
    <i name="e_0_energy">   -833.38495643 </i>
   </energy>
  </scstep>
  <scstep>
   <time name="dav">   74.81   75.29</time>
   <time name="total">   85.62   86.20</time>
   <energy>
    <i name="e_fr_energy">   -833.38499323 </i>
    <i name="e_wo_entrp">   -833.38499226 </i>
    <i name="e_0_energy">   -833.38499275 </i>
   </energy>
  </scstep>
  <scstep>
   <time name="dav">   76.06   76.55</time>
   <time name="total">   86.83   87.43</time>
   <energy>
    <i name="e_fr_energy">   -833.38499498 </i>
    <i name="e_wo_entrp">   -833.38499401 </i>
    <i name="e_0_energy">   -833.38499449 </i>
   </energy>
  </scstep>
  <scstep>
   <time name="dav">   78.04   78.52</time>
   <time name="total">   83.35   83.89</time>
   <energy>
    <i name="alphaZ">    175.60570339 </i>
    <i name="ewald">  36574.60334155 </i>
    <i name="hartreedc"> -48448.15194852 </i>
    <i name="XCdc">   1280.21829948 </i>
    <i name="pawpsdc">  37186.59070042 </i>
    <i name="pawaedc"> -37251.63558744 </i>
    <i name="eentropy">     -0.00000097 </i>
    <i name="bandstr">  -4276.54663360 </i>
    <i name="atom">  13925.93113153 </i>
    <i name="e_fr_energy">   -833.38499416 </i>
    <i name="e_wo_entrp">   -833.38499320 </i>
    <i name="e_0_energy">   -833.38499368 </i>
   </energy>
  </scstep>
  <structure>
   <crystal>
    <varray name="basis" >
     <v>      17.27103806       0.00000000       0.00000000 </v>
     <v>      -8.63551903      14.95715771       0.00000000 </v>
     <v>       0.00000000       0.00000000      15.00000000 </v>
    </varray>
    <i name="volume">   3874.88459904 </i>
    <varray name="rec_basis" >
     <v>       0.05790040       0.03342881       0.00000000 </v>
     <v>       0.00000000       0.06685762       0.00000000 </v>
     <v>       0.00000000       0.00000000       0.06666667 </v>
    </varray>
   </crystal>
   <varray name="positions" >
    <v>       0.00021215       0.00013213       0.50103274 </v>
    <v>       0.99939101       0.14230862       0.50047363 </v>
    <v>       0.99942651       0.28545702       0.50025059 </v>
    <v>       0.99984001       0.42858714       0.50019347 </v>
    <v>       0.99997672       0.57158212       0.50040868 </v>
    <v>       0.00058226       0.71462079       0.50085075 </v>
    <v>       0.00154945       0.85819493       0.50117107 </v>
    <v>       0.14422216       0.00188544       0.50068449 </v>
    <v>       0.14350944       0.14421052       0.50087037 </v>
    <v>       0.14183412       0.28565334       0.50101694 </v>
    <v>       0.14293051       0.42906652       0.50079032 </v>
    <v>       0.14326323       0.57159393       0.50038289 </v>
    <v>       0.14343278       0.71469703       0.50007051 </v>
    <v>       0.14382569       0.85828754       0.50024208 </v>
    <v>       0.28688268       0.00207194       0.50015919 </v>
    <v>       0.28742877       0.14620695       0.50114568 </v>
    <v>       0.28688330       0.29159176       0.50212112 </v>
    <v>       0.28507756       0.42661300       0.50202716 </v>
    <v>       0.28774596       0.57111621       0.50096756 </v>
    <v>       0.28626046       0.71504196       0.50003455 </v>
    <v>       0.28595520       0.85837138       0.49982738 </v>
    <v>       0.42920804       0.00096331       0.49998202 </v>
    <v>       0.43035897       0.14552314       0.50048425 </v>
    <v>       0.42969217       0.28702173       0.50098903 </v>
    <v>       0.42789166       0.85687721       0.50007285 </v>
    <v>       0.57109690       0.99920293       0.50030779 </v>
    <v>       0.57188103       0.14304177       0.50009300 </v>
    <v>       0.57576974       0.28979779       0.50063491 </v>
    <v>       0.57007186       0.85414173       0.50082619 </v>
    <v>       0.71313499       0.99748217       0.50084590 </v>
    <v>       0.71419630       0.14186135       0.50017767 </v>
    <v>       0.71482637       0.28548882       0.50008038 </v>
    <v>       0.71091030       0.42566217       0.50087920 </v>
    <v>       0.71584045       0.57386471       0.50171768 </v>
    <v>       0.71205192       0.85344562       0.50198182 </v>
    <v>       0.85632089       0.99855977       0.50115618 </v>
    <v>       0.85634406       0.14172094       0.50031082 </v>
    <v>       0.85693586       0.28521824       0.49997002 </v>
    <v>       0.85699578       0.42850750       0.50025654 </v>
    <v>       0.85638096       0.57116892       0.50132078 </v>
    <v>       0.85851358       0.71516799       0.50210400 </v>
    <v>       0.85763263       0.85622102       0.50195972 </v>
    <v>       0.04794489       0.09559585       0.50070651 </v>
    <v>       0.04648498       0.23748750       0.50048314 </v>
    <v>       0.04724789       0.38096393       0.50034773 </v>
    <v>       0.04782778       0.52400161       0.50028442 </v>
    <v>       0.04800450       0.66701482       0.50042428 </v>
    <v>       0.04850304       0.81014554       0.50074263 </v>
    <v>       0.04869355       0.95334549       0.50093366 </v>
    <v>       0.19183184       0.09716820       0.50093447 </v>
    <v>       0.19057415       0.23958335       0.50121312 </v>
    <v>       0.18935486       0.38050998       0.50129102 </v>
    <v>       0.19140525       0.52446671       0.50083012 </v>
    <v>       0.19089239       0.66709292       0.50006855 </v>
    <v>       0.19104224       0.81039459       0.49997718 </v>
    <v>       0.19166557       0.95389023       0.50030505 </v>
    <v>       0.33492629       0.09818057       0.50056773 </v>
    <v>       0.33618262       0.24239711       0.50162403 </v>
    <v>       0.33172214       0.52181040       0.50120288 </v>
    <v>       0.33700662       0.66999762       0.50053519 </v>
    <v>       0.33315450       0.81010041       0.49991488 </v>
    <v>       0.33381133       0.95372079       0.49990112 </v>
    <v>       0.47689078       0.09632783       0.50015732 </v>
    <v>       0.47797640       0.24142460       0.50072842 </v>
    <v>       0.47228360       0.80575230       0.50054078 </v>
    <v>       0.47612687       0.95249032       0.50006605 </v>
    <v>       0.61881864       0.09458192       0.50015772 </v>
    <v>       0.62010306       0.23865385       0.50014671 </v>
    <v>       0.61855332       0.80872781       0.50116514 </v>
    <v>       0.61769975       0.95005553       0.50070629 </v>
    <v>       0.76116242       0.09354230       0.50043468 </v>
    <v>       0.76204479       0.23721436       0.50000432 </v>
    <v>       0.76165039       0.38057649       0.50027141 </v>
    <v>       0.75995443       0.52459828       0.50143546 </v>
    <v>       0.76277761       0.66914830       0.50273299 </v>
    <v>       0.76133805       0.80424862       0.50271665 </v>
    <v>       0.76070442       0.94956485       0.50143300 </v>
    <v>       0.90385575       0.09380864       0.50053556 </v>
    <v>       0.90412862       0.23729654       0.50007706 </v>
    <v>       0.90442468       0.38086464       0.50005079 </v>
    <v>       0.90452571       0.52402140       0.50064355 </v>
    <v>       0.90488971       0.66656619       0.50144184 </v>
    <v>       0.90619475       0.81003086       0.50186919 </v>
    <v>       0.90466187       0.95155777       0.50134486 </v>
    <v>       0.46729850       0.35977345       0.50009437 </v>
    <v>       0.40444323       0.55793899       0.49850127 </v>
    <v>       0.64300557       0.53804754       0.49874961 </v>
    <v>       0.58144918       0.73599321       0.50023878 </v>
    <v>       0.55848584       0.58897146       0.50474244 </v>
    <v>       0.47224088       0.49224301       0.49874152 </v>
    <v>       0.42691375       0.71528215       0.50104089 </v>
    <v>       0.71651758       0.71451256       0.50373889 </v>
    <v>       0.33151764       0.38142489       0.50318791 </v>
    <v>       0.62102551       0.38022486       0.50132876 </v>
    <v>       0.52266236       0.53880602       0.46511209 </v>
   </varray>
  </structure>
  <varray name="forces" >
   <v>       0.00109332      -0.00133806       0.00369292 </v>
   <v>       0.00052858      -0.00111625       0.00216341 </v>
   <v>      -0.00184997       0.00208008       0.00172414 </v>
   <v>      -0.00118175       0.00132714       0.00176869 </v>
   <v>      -0.00011740      -0.00059350       0.00104146 </v>
   <v>       0.00009018       0.00002607       0.00212327 </v>
   <v>       0.00028019       0.00108392       0.00294082 </v>
   <v>      -0.00018362      -0.00017488       0.00238380 </v>
   <v>       0.00030164      -0.00708571       0.00302743 </v>
   <v>      -0.00039415       0.00053479       0.00167462 </v>
   <v>      -0.00327165       0.00370189      -0.00014417 </v>
   <v>      -0.00106788       0.00075248       0.00060423 </v>
   <v>      -0.00016995      -0.00005704       0.00074289 </v>
   <v>      -0.00039802       0.00101526       0.00179970 </v>
   <v>      -0.00004507      -0.00056970       0.00061901 </v>
   <v>      -0.00003759      -0.00196848       0.00131545 </v>
   <v>       0.00235963       0.00022857      -0.00032678 </v>
   <v>      -0.00090037       0.00255720      -0.00110005 </v>
   <v>      -0.00108080       0.00160060       0.00062088 </v>
   <v>       0.00026722       0.00055048       0.00002554 </v>
   <v>      -0.00011350       0.00092149       0.00051259 </v>
   <v>      -0.00026138      -0.00084515      -0.00020349 </v>
   <v>       0.00041680      -0.00139970       0.00002904 </v>
   <v>       0.00158903       0.00038826      -0.00047846 </v>
   <v>       0.00039488       0.00034368      -0.00024459 </v>
   <v>      -0.00013662      -0.00018493      -0.00024094 </v>
   <v>      -0.00040087      -0.00079709      -0.00011328 </v>
   <v>       0.00111960       0.00100344       0.00033692 </v>
   <v>       0.00037901      -0.00018077      -0.00037045 </v>
   <v>      -0.00032125       0.00036301       0.00036789 </v>
   <v>      -0.00005299       0.00120573       0.00005493 </v>
   <v>       0.00087180       0.00147104       0.00045567 </v>
   <v>       0.00078033       0.00073586       0.00051608 </v>
   <v>       0.00006829       0.00080473       0.00010417 </v>
   <v>      -0.00107780      -0.00072032      -0.00043439 </v>
   <v>       0.00041704      -0.00102013       0.00195753 </v>
   <v>      -0.00178105       0.00189954      -0.00052661 </v>
   <v>      -0.00099084       0.00229404       0.00102332 </v>
   <v>       0.00042490       0.00084869       0.00130941 </v>
   <v>       0.00022395       0.00032870       0.00152408 </v>
   <v>      -0.00010873       0.00055843       0.00206367 </v>
   <v>       0.00043453       0.00035760       0.00267058 </v>
   <v>      -0.00005986       0.00571690       0.00361484 </v>
   <v>       0.00174236       0.00045630       0.00216527 </v>
   <v>       0.00225955      -0.00074007       0.00166925 </v>
   <v>       0.00075992       0.00060279       0.00121141 </v>
   <v>      -0.00009499       0.00282399       0.00140015 </v>
   <v>       0.00079544       0.00017992       0.00252170 </v>
   <v>       0.00029005      -0.00125589       0.00195356 </v>
   <v>       0.00149612       0.00494085       0.00103401 </v>
   <v>       0.00067604       0.00568167       0.00201239 </v>
   <v>       0.00151354      -0.00051766       0.00062947 </v>
   <v>       0.00105993      -0.00043641       0.00000168 </v>
   <v>       0.00034220       0.00087147       0.00036922 </v>
   <v>       0.00143100       0.00073150      -0.00004681 </v>
   <v>       0.00232515       0.00001105       0.00037018 </v>
   <v>      -0.00122716       0.00424140      -0.00065524 </v>
   <v>      -0.00023148       0.00199654      -0.00039709 </v>
   <v>      -0.00122026      -0.00140099      -0.00011667 </v>
   <v>      -0.00130668       0.00005032       0.00185543 </v>
   <v>       0.00131290      -0.00036502      -0.00110995 </v>
   <v>       0.00076270       0.00074041       0.00033875 </v>
   <v>       0.00152040       0.00475020      -0.00008646 </v>
   <v>      -0.00243485       0.00070019       0.00022787 </v>
   <v>       0.00030113       0.00056028      -0.00041392 </v>
   <v>       0.00106449       0.00112340      -0.00033558 </v>
   <v>       0.00056037       0.00112665      -0.00010584 </v>
   <v>      -0.00024972       0.00048466       0.00019978 </v>
   <v>       0.00090673       0.00179494      -0.00083214 </v>
   <v>       0.00104188       0.00120684      -0.00007486 </v>
   <v>       0.00128873       0.00059697       0.00017477 </v>
   <v>       0.00042165      -0.00116229      -0.00071220 </v>
   <v>      -0.00053208       0.00023536       0.00082190 </v>
   <v>      -0.00012025       0.00075600       0.00075124 </v>
   <v>       0.00011812       0.00152678      -0.00028945 </v>
   <v>       0.00080609       0.00134887       0.00159127 </v>
   <v>       0.00069307       0.00126347       0.00084847 </v>
   <v>       0.00138447       0.00111973       0.00103270 </v>
   <v>       0.00364781      -0.00263548       0.00173790 </v>
   <v>       0.00055119      -0.00001506       0.00167066 </v>
   <v>       0.00003072       0.00086730       0.00131156 </v>
   <v>       0.00045813       0.00083014       0.00213895 </v>
   <v>       0.00051883       0.00062059       0.00257519 </v>
   <v>      -0.00002699       0.00166930       0.00288164 </v>
   <v>       0.00169330       0.00053610       0.00112221 </v>
   <v>      -0.00104131       0.00194527      -0.00078750 </v>
   <v>      -0.00045607       0.00092807      -0.00093170 </v>
   <v>       0.00125726       0.00018848      -0.00072249 </v>
   <v>      -0.01942356      -0.01907074       0.01631726 </v>
   <v>      -0.01613086      -0.01971366      -0.01173821 </v>
   <v>      -0.00029224       0.00111860      -0.00038448 </v>
   <v>       0.00049558       0.00118263       0.00080809 </v>
   <v>      -0.00060970       0.00059195      -0.00304562 </v>
   <v>       0.00052973      -0.00052687       0.00022461 </v>
   <v>       0.01330379      -0.02120874      -0.07180810 </v>
  </varray>
  <varray name="stress" >
   <v>      -2.33192338       0.13196632      -0.01423711 </v>
   <v>       0.13196652     -11.10065825       0.00130130 </v>
   <v>      -0.01423698       0.00130158      -0.26217460 </v>
  </varray>
  <energy>
   <i name="e_fr_energy">   -841.01837222 </i>
   <i name="e_wo_entrp">   -841.01837126 </i>
   <i name="e_0_energy">   -841.01837174 </i>
  </energy>
  <time name="totalsc"> 1773.61 1785.65</time>
 </calculation>
 <calculation>
  <scstep>
   <time name="dav">   71.35   71.76</time>
   <time name="total">   81.90   82.38</time>
   <energy>
    <i name="alphaZ">    175.60570339 </i>
    <i name="ewald">  36574.49312528 </i>
    <i name="hartreedc"> -48448.06982508 </i>
    <i name="XCdc">   1280.21734865 </i>
    <i name="pawpsdc">  37187.05861686 </i>
    <i name="pawaedc"> -37252.10320970 </i>
    <i name="eentropy">     -0.00000097 </i>
    <i name="bandstr">  -4276.51795147 </i>
    <i name="atom">  13925.93113153 </i>
    <i name="e_fr_energy">   -833.38506149 </i>
    <i name="e_wo_entrp">   -833.38506052 </i>
    <i name="e_0_energy">   -833.38506100 </i>
   </energy>
  </scstep>
  <scstep>
   <time name="dav">   67.43   67.80</time>
   <time name="total">   75.96   76.47</time>
   <energy>
    <i name="e_fr_energy">   -833.38506377 </i>
    <i name="e_wo_entrp">   -833.38506280 </i>
    <i name="e_0_energy">   -833.38506328 </i>
   </energy>
  </scstep>
  <scstep>
   <time name="dav">   39.25   39.41</time>
   <time name="total">   43.40   43.68</time>
   <energy>
    <i name="alphaZ">    175.60570339 </i>
    <i name="ewald">  36574.49312528 </i>
    <i name="hartreedc"> -48448.04069139 </i>
    <i name="XCdc">   1280.21589526 </i>
    <i name="pawpsdc">  37186.63807001 </i>
    <i name="pawaedc"> -37251.68233920 </i>
    <i name="eentropy">     -0.00000097 </i>
    <i name="bandstr">  -4276.54595698 </i>
    <i name="atom">  13925.93113153 </i>
    <i name="e_fr_energy">   -833.38506305 </i>
    <i name="e_wo_entrp">   -833.38506209 </i>
    <i name="e_0_energy">   -833.38506257 </i>
   </energy>
  </scstep>
  <structure>
   <crystal>
    <varray name="basis" >
     <v>      17.27103806       0.00000000       0.00000000 </v>
     <v>      -8.63551903      14.95715771       0.00000000 </v>
     <v>       0.00000000       0.00000000      15.00000000 </v>
    </varray>
    <i name="volume">   3874.88459904 </i>
    <varray name="rec_basis" >
     <v>       0.05790040       0.03342881       0.00000000 </v>
     <v>       0.00000000       0.06685762       0.00000000 </v>
     <v>       0.00000000       0.00000000       0.06666667 </v>
    </varray>
   </crystal>
   <varray name="positions" >
    <v>       0.00021257       0.00013149       0.50103509 </v>
    <v>       0.99939113       0.14230809       0.50047502 </v>
    <v>       0.99942628       0.28545862       0.50025169 </v>
    <v>       0.99983990       0.42858824       0.50019457 </v>
    <v>       0.99997660       0.57158193       0.50040923 </v>
    <v>       0.00058250       0.71462103       0.50085198 </v>
    <v>       0.00155021       0.85819590       0.50117286 </v>
    <v>       0.14422221       0.00188556       0.50068601 </v>
    <v>       0.14350744       0.14420600       0.50087229 </v>
    <v>       0.14183421       0.28565388       0.50101792 </v>
    <v>       0.14292994       0.42906919       0.50079008 </v>
    <v>       0.14326298       0.57159464       0.50038320 </v>
    <v>       0.14343282       0.71469721       0.50007096 </v>
    <v>       0.14382598       0.85828844       0.50024323 </v>
    <v>       0.28688266       0.00207178       0.50015958 </v>
    <v>       0.28742830       0.14620588       0.50114641 </v>
    <v>       0.28688489       0.29159208       0.50212063 </v>
    <v>       0.28507791       0.42661490       0.50202614 </v>
    <v>       0.28774594       0.57111749       0.50096780 </v>
    <v>       0.28626093       0.71504253       0.50003456 </v>
    <v>       0.28595561       0.85837220       0.49982775 </v>
    <v>       0.42920777       0.00096293       0.49998186 </v>
    <v>       0.43035893       0.14552240       0.50048416 </v>
    <v>       0.42969348       0.28702225       0.50098856 </v>
    <v>       0.42789217       0.85687762       0.50007267 </v>
    <v>       0.57109692       0.99920299       0.50030754 </v>
    <v>       0.57188070       0.14304142       0.50009286 </v>
    <v>       0.57577092       0.28979866       0.50063496 </v>
    <v>       0.57007220       0.85414179       0.50082580 </v>
    <v>       0.71313510       0.99748262       0.50084599 </v>
    <v>       0.71419683       0.14186235       0.50017764 </v>
    <v>       0.71482754       0.28549000       0.50008062 </v>
    <v>       0.71091116       0.42566289       0.50087933 </v>
    <v>       0.71584086       0.57386550       0.50171750 </v>
    <v>       0.71205130       0.85344540       0.50198129 </v>
    <v>       0.85632101       0.99855933       0.50115734 </v>
    <v>       0.85634383       0.14172242       0.50031041 </v>
    <v>       0.85693621       0.28521998       0.49997066 </v>
    <v>       0.85699646       0.42850828       0.50025730 </v>
    <v>       0.85638135       0.57116938       0.50132152 </v>
    <v>       0.85851392       0.71516863       0.50210504 </v>
    <v>       0.85763328       0.85622155       0.50196123 </v>
    <v>       0.04794697       0.09559992       0.50070885 </v>
    <v>       0.04648630       0.23748801       0.50048452 </v>
    <v>       0.04724907       0.38096364       0.50034875 </v>
    <v>       0.04782855       0.52400222       0.50028512 </v>
    <v>       0.04800555       0.66701693       0.50042508 </v>
    <v>       0.04850376       0.81014590       0.50074417 </v>
    <v>       0.04869352       0.95334489       0.50093486 </v>
    <v>       0.19183456       0.09717174       0.50093506 </v>
    <v>       0.19057661       0.23958735       0.50121432 </v>
    <v>       0.18935563       0.38050982       0.50129124 </v>
    <v>       0.19140580       0.52446661       0.50082997 </v>
    <v>       0.19089302       0.66709372       0.50006877 </v>
    <v>       0.19104348       0.81039529       0.49997714 </v>
    <v>       0.19166711       0.95389047       0.50030526 </v>
    <v>       0.33492718       0.09818362       0.50056720 </v>
    <v>       0.33618338       0.24239870       0.50162355 </v>
    <v>       0.33172096       0.52180962       0.50120264 </v>
    <v>       0.33700599       0.66999785       0.50053631 </v>
    <v>       0.33315530       0.81010037       0.49991415 </v>
    <v>       0.33381219       0.95372150       0.49990136 </v>
    <v>       0.47689342       0.09633120       0.50015719 </v>
    <v>       0.47797541       0.24142525       0.50072841 </v>
    <v>       0.47228413       0.80575284       0.50054039 </v>
    <v>       0.47612803       0.95249126       0.50006579 </v>
    <v>       0.61881950       0.09458286       0.50015758 </v>
    <v>       0.62010325       0.23865436       0.50014677 </v>
    <v>       0.61855470       0.80872926       0.50116446 </v>
    <v>       0.61770093       0.95005653       0.50070610 </v>
    <v>       0.76116354       0.09354291       0.50043470 </v>
    <v>       0.76204481       0.23721379       0.50000379 </v>
    <v>       0.76165032       0.38057686       0.50027185 </v>
    <v>       0.75995476       0.52459904       0.50143568 </v>
    <v>       0.76277840       0.66914961       0.50273239 </v>
    <v>       0.76133925       0.80424982       0.50271736 </v>
    <v>       0.76070546       0.94956594       0.50143336 </v>
    <v>       0.90385712       0.09380962       0.50053618 </v>
    <v>       0.90413001       0.23729498       0.50007818 </v>
    <v>       0.90442514       0.38086483       0.50005183 </v>
    <v>       0.90452616       0.52402220       0.50064424 </v>
    <v>       0.90489044       0.66656699       0.50144299 </v>
    <v>       0.90619549       0.81003154       0.50187063 </v>
    <v>       0.90466266       0.95155915       0.50134662 </v>
    <v>       0.46730022       0.35977406       0.50009517 </v>
    <v>       0.40444325       0.55794056       0.49850122 </v>
    <v>       0.64300567       0.53804850       0.49874948 </v>
    <v>       0.58145041       0.73599359       0.50023837 </v>
    <v>       0.55845990       0.58895362       0.50475625 </v>
    <v>       0.47221880       0.49222318       0.49873748 </v>
    <v>       0.42691408       0.71528305       0.50104039 </v>
    <v>       0.71651854       0.71451368       0.50373891 </v>
    <v>       0.33151747       0.38142546       0.50318545 </v>
    <v>       0.62102582       0.38022469       0.50132859 </v>
    <v>       0.52266160       0.53878347       0.46507743 </v>
   </varray>
  </structure>
  <varray name="forces" >
   <v>       0.00035276       0.00074469       0.00367756 </v>
   <v>       0.00020057       0.00111224       0.00227551 </v>
   <v>       0.00062351       0.00053095       0.00183734 </v>
   <v>       0.00026114       0.00058445       0.00181754 </v>
   <v>       0.00014626       0.00082437       0.00112250 </v>
   <v>       0.00016043       0.00076730       0.00220259 </v>
   <v>       0.00049198       0.00011260       0.00296039 </v>
   <v>       0.00082418       0.00079672       0.00223316 </v>
   <v>      -0.00074401       0.00187985       0.00186982 </v>
   <v>       0.00043637       0.00100978       0.00175004 </v>
   <v>       0.00124239      -0.00033439       0.00136825 </v>
   <v>       0.00005510       0.00089798       0.00062962 </v>
   <v>       0.00024642       0.00077160       0.00072750 </v>
   <v>       0.00047430       0.00049177       0.00172383 </v>
   <v>       0.00040543       0.00098499       0.00053394 </v>
   <v>       0.00019455       0.00148778       0.00113138 </v>
   <v>      -0.00109715       0.00132462      -0.00113777 </v>
   <v>      -0.00024181       0.00073338      -0.00109755 </v>
   <v>      -0.00033716       0.00077015       0.00069245 </v>
   <v>      -0.00007695       0.00060327       0.00009069 </v>
   <v>       0.00070000       0.00055825       0.00038028 </v>
   <v>       0.00051306       0.00102538      -0.00017359 </v>
   <v>      -0.00007558       0.00090991      -0.00001087 </v>
   <v>       0.00033510       0.00104211      -0.00036991 </v>
   <v>       0.00036148       0.00074868      -0.00030079 </v>
   <v>       0.00054675       0.00068935      -0.00022409 </v>
   <v>       0.00048193       0.00093238      -0.00009381 </v>
   <v>       0.00015345       0.00036459       0.00034851 </v>
   <v>       0.00048565       0.00072364      -0.00040824 </v>
   <v>       0.00044759       0.00084778       0.00037512 </v>
   <v>       0.00038956       0.00049117       0.00001483 </v>
   <v>       0.00020266       0.00058413       0.00040006 </v>
   <v>       0.00017094       0.00080163       0.00055517 </v>
   <v>      -0.00015237       0.00083717       0.00015361 </v>
   <v>       0.00000840       0.00064695      -0.00028462 </v>
   <v>       0.00034220       0.00141836       0.00042944 </v>
   <v>       0.00110543       0.00025196       0.00121395 </v>
   <v>       0.00065975       0.00035714       0.00104924 </v>
   <v>       0.00007162       0.00061660       0.00134271 </v>
   <v>       0.00001983       0.00079995       0.00154195 </v>
   <v>       0.00039087       0.00096337       0.00200868 </v>
   <v>       0.00062845       0.00104606       0.00270006 </v>
   <v>       0.00076899      -0.00228059       0.00241839 </v>
   <v>       0.00015255       0.00054651       0.00218346 </v>
   <v>      -0.00028739       0.00094838       0.00165125 </v>
   <v>      -0.00007435       0.00062975       0.00123827 </v>
   <v>       0.00062250      -0.00080424       0.00068953 </v>
   <v>       0.00044352       0.00063830       0.00258812 </v>
   <v>       0.00055829      -0.00011386       0.00220430 </v>
   <v>      -0.00036215      -0.00071737       0.00231984 </v>
   <v>       0.00002932      -0.00189125       0.00083491 </v>
   <v>      -0.00065980       0.00119916       0.00055406 </v>
   <v>      -0.00036214       0.00117923       0.00003030 </v>
   <v>       0.00000369       0.00075300       0.00040188 </v>
   <v>       0.00053141       0.00080358       0.00013634 </v>
   <v>      -0.00057958       0.00121812       0.00213072 </v>
   <v>       0.00115536      -0.00111349       0.00005542 </v>
   <v>       0.00067965       0.00091187      -0.00034138 </v>
   <v>      -0.00086762       0.00096253      -0.00012965 </v>
   <v>       0.00087952       0.00103461      -0.00118334 </v>
   <v>      -0.00027895       0.00120422       0.00028602 </v>
   <v>       0.00041702       0.00077980       0.00036847 </v>
   <v>      -0.00048479      -0.00181924      -0.00073911 </v>
   <v>       0.00275177       0.00050736       0.00016666 </v>
   <v>       0.00039468       0.00070576      -0.00040724 </v>
   <v>       0.00027210       0.00052028      -0.00031982 </v>
   <v>       0.00028790       0.00059497      -0.00008954 </v>
   <v>       0.00059929       0.00053628       0.00021594 </v>
   <v>       0.00026952       0.00048695      -0.00083285 </v>
   <v>       0.00041751       0.00053917      -0.00007155 </v>
   <v>       0.00020066       0.00086148       0.00014435 </v>
   <v>       0.00035625       0.00054519      -0.00055422 </v>
   <v>       0.00044730       0.00073314       0.00084962 </v>
   <v>      -0.00008282       0.00086329       0.00077231 </v>
   <v>       0.00007880       0.00045816       0.00133552 </v>
   <v>       0.00047552       0.00097984       0.00154254 </v>
   <v>       0.00016006       0.00048408       0.00083873 </v>
   <v>       0.00026880       0.00045199       0.00107471 </v>
   <v>      -0.00124599       0.00268908       0.00106240 </v>
   <v>       0.00007902       0.00080207       0.00171712 </v>
   <v>       0.00016737       0.00062000       0.00135433 </v>
   <v>       0.00016539       0.00057070       0.00217969 </v>
   <v>       0.00040903       0.00083343       0.00268826 </v>
   <v>       0.00076668       0.00064664       0.00298880 </v>
   <v>       0.00176586       0.00077542       0.00106988 </v>
   <v>      -0.00134101       0.00169813      -0.00079991 </v>
   <v>      -0.00055822       0.00104782      -0.00097619 </v>
   <v>       0.00129507       0.00062188      -0.00074045 </v>
   <v>      -0.02128237      -0.03049973       0.00325855 </v>
   <v>      -0.00889108      -0.01043887      -0.02245432 </v>
   <v>       0.00004953       0.00031187      -0.00022400 </v>
   <v>       0.00029059       0.00129588       0.00085192 </v>
   <v>      -0.00032554       0.00139152      -0.00272974 </v>
   <v>       0.00019129       0.00067390       0.00029703 </v>
   <v>       0.00787693      -0.01912740      -0.04896278 </v>
  </varray>
  <varray name="stress" >
   <v>      -2.33551055       0.13005301      -0.01309448 </v>
   <v>       0.13005319     -11.11219754      -0.00027177 </v>
   <v>      -0.01309435      -0.00027151      -0.26487832 </v>
  </varray>
  <energy>
   <i name="e_fr_energy">   -841.01843826 </i>
   <i name="e_wo_entrp">   -841.01843729 </i>
   <i name="e_0_energy">   -841.01843778 </i>
  </energy>
  <time name="totalsc">  348.70  351.11</time>
 </calculation>
 <calculation>
  <scstep>
   <time name="dav">   69.67   70.10</time>
   <time name="total">   80.06   80.56</time>
   <energy>
    <i name="alphaZ">    175.60570339 </i>
    <i name="ewald">  36574.32409551 </i>
    <i name="hartreedc"> -48447.91866724 </i>
    <i name="XCdc">   1280.21433814 </i>
    <i name="pawpsdc">  37186.41449326 </i>
    <i name="pawaedc"> -37251.45864774 </i>
    <i name="eentropy">     -0.00000097 </i>
    <i name="bandstr">  -4276.49760080 </i>
    <i name="atom">  13925.93113153 </i>
    <i name="e_fr_energy">   -833.38515493 </i>
    <i name="e_wo_entrp">   -833.38515396 </i>
    <i name="e_0_energy">   -833.38515444 </i>
   </energy>
  </scstep>
  <scstep>
   <time name="dav">   68.18   68.60</time>
   <time name="total">   76.84   77.33</time>
   <energy>
    <i name="e_fr_energy">   -833.38516028 </i>
    <i name="e_wo_entrp">   -833.38515932 </i>
    <i name="e_0_energy">   -833.38515980 </i>
   </energy>
  </scstep>
  <scstep>
   <time name="dav">   42.85   43.04</time>
   <time name="total">   47.02   47.26</time>
   <energy>
    <i name="alphaZ">    175.60570339 </i>
    <i name="ewald">  36574.32409551 </i>
    <i name="hartreedc"> -48447.88713021 </i>
    <i name="XCdc">   1280.21250484 </i>
    <i name="pawpsdc">  37186.12661466 </i>
    <i name="pawaedc"> -37251.17022275 </i>
    <i name="eentropy">     -0.00000097 </i>
    <i name="bandstr">  -4276.52785566 </i>
    <i name="atom">  13925.93113153 </i>
    <i name="e_fr_energy">   -833.38515965 </i>
    <i name="e_wo_entrp">   -833.38515868 </i>
    <i name="e_0_energy">   -833.38515916 </i>
   </energy>
  </scstep>
  <structure>
   <crystal>
    <varray name="basis" >
     <v>      17.27103806       0.00000000       0.00000000 </v>
     <v>      -8.63551903      14.95715771       0.00000000 </v>
     <v>       0.00000000       0.00000000      15.00000000 </v>
    </varray>
    <i name="volume">   3874.88459904 </i>
    <varray name="rec_basis" >
     <v>       0.05790040       0.03342881       0.00000000 </v>
     <v>       0.00000000       0.06685762       0.00000000 </v>
     <v>       0.00000000       0.00000000       0.06666667 </v>
    </varray>
   </crystal>
   <varray name="positions" >
    <v>       0.00021358       0.00013160       0.50103990 </v>
    <v>       0.99939187       0.14230857       0.50047795 </v>
    <v>       0.99942676       0.28546056       0.50025403 </v>
    <v>       0.99984025       0.42858976       0.50019687 </v>
    <v>       0.99997696       0.57158250       0.50041051 </v>
    <v>       0.00058319       0.71462194       0.50085465 </v>
    <v>       0.00155136       0.85819698       0.50117660 </v>
[...]
       <r>   -13.5917    11.9327    62.1673 </r>
       <r>   -13.4928     7.0848    62.8677 </r>
       <r>   -13.3940     6.8471    63.5447 </r>
       <r>   -13.2951     4.9156    64.0307 </r>
       <r>   -13.1962     4.6302    64.4885 </r>
       <r>   -13.0974     1.7280    64.6593 </r>
       <r>   -12.9985     6.1586    65.2682 </r>
       <r>   -12.8996     6.8927    65.9497 </r>
       <r>   -12.8008     7.2356    66.6651 </r>
       <r>   -12.7019     9.2735    67.5819 </r>
       <r>   -12.6030    17.1528    69.2778 </r>
       <r>   -12.5041    10.1037    70.2768 </r>
       <r>   -12.4053    10.8450    71.3490 </r>
       <r>   -12.3064     4.2024    71.7645 </r>
       <r>   -12.2075     5.5655    72.3147 </r>
       <r>   -12.1087     3.6004    72.6707 </r>
       <r>   -12.0098     7.7296    73.4349 </r>
       <r>   -11.9109     5.6810    73.9966 </r>
       <r>   -11.8121     8.0520    74.7927 </r>
       <r>   -11.7132     9.8843    75.7699 </r>
       <r>   -11.6143    10.5323    76.8113 </r>
       <r>   -11.5155    10.4659    77.8460 </r>
       <r>   -11.4166    14.9009    79.3193 </r>
       <r>   -11.3177     8.8316    80.1924 </r>
       <r>   -11.2188     8.8961    81.0720 </r>
       <r>   -11.1200    10.7224    82.1321 </r>
       <r>   -11.0211    11.6336    83.2823 </r>
       <r>   -10.9222     8.0449    84.0777 </r>
       <r>   -10.8234     7.8261    84.8514 </r>
       <r>   -10.7245     8.9938    85.7406 </r>
       <r>   -10.6256     9.4134    86.6713 </r>
       <r>   -10.5268     4.8711    87.1529 </r>
       <r>   -10.4279     8.4746    87.9908 </r>
       <r>   -10.3290    12.9539    89.2715 </r>
       <r>   -10.2302    15.3134    90.7856 </r>
       <r>   -10.1313    15.4028    92.3084 </r>
       <r>   -10.0324    20.2466    94.3102 </r>
       <r>    -9.9336    16.5660    95.9480 </r>
       <r>    -9.8347    15.4374    97.4743 </r>
       <r>    -9.7358    13.1158    98.7711 </r>
       <r>    -9.6369    19.6751   100.7163 </r>
       <r>    -9.5381    18.2624   102.5219 </r>
       <r>    -9.4392    17.5100   104.2531 </r>
       <r>    -9.3403    14.9777   105.7339 </r>
       <r>    -9.2415    16.2241   107.3380 </r>
       <r>    -9.1426    23.8839   109.6994 </r>
       <r>    -9.0437    28.0979   112.4774 </r>
       <r>    -8.9449    24.7230   114.9217 </r>
       <r>    -8.8460    22.7582   117.1718 </r>
       <r>    -8.7471    16.7708   118.8299 </r>
       <r>    -8.6483    15.0351   120.3164 </r>
       <r>    -8.5494    16.7127   121.9688 </r>
       <r>    -8.4505    15.7336   123.5243 </r>
       <r>    -8.3517    18.9785   125.4007 </r>
       <r>    -8.2528    25.8764   127.9591 </r>
       <r>    -8.1539    18.0548   129.7441 </r>
       <r>    -8.0550    14.5844   131.1861 </r>
       <r>    -7.9562    16.5791   132.8252 </r>
       <r>    -7.8573    17.3479   134.5404 </r>
       <r>    -7.7584     5.1565   135.0502 </r>
       <r>    -7.6596    11.6112   136.1982 </r>
       <r>    -7.5607    11.7666   137.3616 </r>
       <r>    -7.4618    21.6070   139.4978 </r>
       <r>    -7.3630    19.6800   141.4436 </r>
       <r>    -7.2641    18.4273   143.2655 </r>
       <r>    -7.1652    13.6281   144.6129 </r>
       <r>    -7.0664    13.2591   145.9238 </r>
       <r>    -6.9675    14.8624   147.3932 </r>
       <r>    -6.8686    10.1039   148.3922 </r>
       <r>    -6.7697     9.2145   149.3032 </r>
       <r>    -6.6709    14.4675   150.7336 </r>
       <r>    -6.5720    12.7243   151.9916 </r>
       <r>    -6.4731    13.8371   153.3597 </r>
       <r>    -6.3743    17.5880   155.0986 </r>
       <r>    -6.2754    22.6088   157.3339 </r>
       <r>    -6.1765    15.0990   158.8267 </r>
       <r>    -6.0777     6.2176   159.4414 </r>
       <r>    -5.9788    12.0246   160.6303 </r>
       <r>    -5.8799    13.0380   161.9194 </r>
       <r>    -5.7811     9.5319   162.8618 </r>
       <r>    -5.6822     3.9097   163.2483 </r>
       <r>    -5.5833     4.8550   163.7283 </r>
       <r>    -5.4845     2.0153   163.9276 </r>
       <r>    -5.3856     4.5927   164.3816 </r>
       <r>    -5.2867     7.9698   165.1696 </r>
       <r>    -5.1878    21.2328   167.2689 </r>
       <r>    -5.0890    13.8498   168.6382 </r>
       <r>    -4.9901    19.2156   170.5380 </r>
       <r>    -4.8912    13.3215   171.8551 </r>
       <r>    -4.7924    11.0510   172.9477 </r>
       <r>    -4.6935     8.6772   173.8056 </r>
       <r>    -4.5946    11.8814   174.9803 </r>
       <r>    -4.4958    14.0509   176.3695 </r>
       <r>    -4.3969    21.9207   178.5368 </r>
       <r>    -4.2980     6.7714   179.2063 </r>
       <r>    -4.1992    11.4095   180.3343 </r>
       <r>    -4.1003     7.7951   181.1050 </r>
       <r>    -4.0014     8.4679   181.9422 </r>
       <r>    -3.9025     0.5858   182.0001 </r>
       <r>    -3.8037     0.8265   182.0819 </r>
       <r>    -3.7048     1.7161   182.2515 </r>
       <r>    -3.6059     3.7699   182.6242 </r>
       <r>    -3.5071     3.8550   183.0054 </r>
       <r>    -3.4082     2.1052   183.2135 </r>
       <r>    -3.3093     0.5665   183.2695 </r>
       <r>    -3.2105     2.1188   183.4790 </r>
       <r>    -3.1116     0.2127   183.5001 </r>
       <r>    -3.0127     0.6031   183.5597 </r>
       <r>    -2.9139     2.5221   183.8090 </r>
       <r>    -2.8150     1.8902   183.9959 </r>
       <r>    -2.7161     0.0414   184.0000 </r>
       <r>    -2.6173     0.3948   184.0390 </r>
       <r>    -2.5184     3.4910   184.3842 </r>
       <r>    -2.4195     1.1677   184.4996 </r>
       <r>    -2.3206     0.0036   184.5000 </r>
       <r>    -2.2218     0.0147   184.5015 </r>
       <r>    -2.1229     2.5566   184.7542 </r>
       <r>    -2.0240     2.4923   185.0006 </r>
       <r>    -1.9252     2.5116   185.2490 </r>
       <r>    -1.8263     4.0860   185.6529 </r>
       <r>    -1.7274     3.1574   185.9651 </r>
       <r>    -1.6286     0.3701   186.0017 </r>
       <r>    -1.5297     3.4449   186.3423 </r>
       <r>    -1.4308     8.8317   187.2155 </r>
       <r>    -1.3320     2.7543   187.4878 </r>
       <r>    -1.2331     0.2215   187.5097 </r>
       <r>    -1.1342     4.9718   188.0012 </r>
       <r>    -1.0354    15.6147   189.5451 </r>
       <r>    -0.9365    12.9149   190.8219 </r>
       <r>    -0.8376     5.0688   191.3231 </r>
       <r>    -0.7387    10.2969   192.3411 </r>
       <r>    -0.6399    11.2573   193.4541 </r>
       <r>    -0.5410     5.8477   194.0323 </r>
       <r>    -0.4421     3.2609   194.3547 </r>
       <r>    -0.3433     8.0260   195.1482 </r>
       <r>    -0.2444     9.7825   196.1154 </r>
       <r>    -0.1455    10.1823   197.1221 </r>
       <r>    -0.0467    10.2838   198.1389 </r>
       <r>     0.0522    11.6925   199.2949 </r>
       <r>     0.1511     5.4180   199.8305 </r>
       <r>     0.2499     1.6993   199.9986 </r>
       <r>     0.3488     1.3382   200.1309 </r>
       <r>     0.4477     7.2140   200.8441 </r>
       <r>     0.5466     9.1129   201.7451 </r>
       <r>     0.6454     6.7262   202.4101 </r>
       <r>     0.7443     5.1033   202.9146 </r>
       <r>     0.8432     5.0196   203.4109 </r>
       <r>     0.9420     8.3270   204.2342 </r>
       <r>     1.0409    12.3923   205.4594 </r>
       <r>     1.1398     3.4123   205.7968 </r>
       <r>     1.2386     7.6371   206.5519 </r>
       <r>     1.3375    17.5507   208.2871 </r>
       <r>     1.4364    22.2825   210.4901 </r>
       <r>     1.5352     9.0983   211.3897 </r>
       <r>     1.6341     7.6554   212.1466 </r>
       <r>     1.7330     6.8597   212.8248 </r>
       <r>     1.8318     9.7617   213.7899 </r>
       <r>     1.9307    16.4901   215.4203 </r>
       <r>     2.0296    29.0642   218.2938 </r>
       <r>     2.1285    11.4144   219.4223 </r>
       <r>     2.2273    12.3234   220.6407 </r>
       <r>     2.3262    19.2732   222.5463 </r>
       <r>     2.4251    24.2011   224.9390 </r>
       <r>     2.5239    13.3465   226.2586 </r>
       <r>     2.6228     7.5699   227.0070 </r>
       <r>     2.7217    16.1193   228.6007 </r>
       <r>     2.8205    22.7112   230.8461 </r>
       <r>     2.9194    54.8953   236.2736 </r>
       <r>     3.0183    27.1821   238.9610 </r>
       <r>     3.1171     9.8652   239.9364 </r>
       <r>     3.2160    13.0965   241.2312 </r>
       <r>     3.3149    16.2811   242.8409 </r>
       <r>     3.4138    19.1017   244.7295 </r>
       <r>     3.5126    24.9282   247.1941 </r>
       <r>     3.6115    12.5345   248.4334 </r>
       <r>     3.7104    12.9071   249.7095 </r>
       <r>     3.8092    26.0059   252.2806 </r>
       <r>     3.9081    29.8746   255.2343 </r>
       <r>     4.0070    21.6243   257.3723 </r>
       <r>     4.1058    12.5470   258.6128 </r>
       <r>     4.2047    15.2866   260.1242 </r>
       <r>     4.3036    34.9418   263.5788 </r>
       <r>     4.4024    14.1339   264.9762 </r>
       <r>     4.5013     0.2403   265.0000 </r>
       <r>     4.6002     0.0000   265.0000 </r>
       <r>     4.6990     0.0000   265.0000 </r>
       <r>     4.7979     0.0000   265.0000 </r>
       <r>     4.8968     0.0000   265.0000 </r>
       <r>     4.9957     0.0000   265.0000 </r>
       <r>     5.0945     0.0000   265.0000 </r>
       <r>     5.1934     0.0000   265.0000 </r>
       <r>     5.2923     0.0000   265.0000 </r>
       <r>     5.3911     0.0000   265.0000 </r>
       <r>     5.4900     0.0000   265.0000 </r>
       <r>     5.5889     0.0000   265.0000 </r>
       <r>     5.6877     0.0000   265.0000 </r>
      </set>
     </set>
    </array>
   </total>
  </dos>
 </calculation>
 <structure name="finalpos" >
  <crystal>
   <varray name="basis" >
    <v>      17.27103806       0.00000000       0.00000000 </v>
    <v>      -8.63551903      14.95715771       0.00000000 </v>
    <v>       0.00000000       0.00000000      15.00000000 </v>
   </varray>
   <i name="volume">   3874.88459904 </i>
   <varray name="rec_basis" >
    <v>       0.05790040       0.03342881       0.00000000 </v>
    <v>       0.00000000       0.06685762       0.00000000 </v>
    <v>       0.00000000       0.00000000       0.06666667 </v>
   </varray>
  </crystal>
  <varray name="positions" >
   <v>       0.00069197       0.00072211       0.50276679 </v>
   <v>       0.99981814       0.14287170       0.50228527 </v>
   <v>       0.99980307       0.28598820       0.50150142 </v>
   <v>       1.00016598       0.42908220       0.50115116 </v>
   <v>       1.00027964       0.57209871       0.50148195 </v>
   <v>       0.00093184       0.71513176       0.50210089 </v>
   <v>       0.00197890       0.85874032       0.50269992 </v>
   <v>       0.14466379       0.00242751       0.50194352 </v>
   <v>       0.14395595       0.14475521       0.50211025 </v>
   <v>       0.14220974       0.28614623       0.50180577 </v>
   <v>       0.14325844       0.42957742       0.50141858 </v>
   <v>       0.14358065       0.57211500       0.50103473 </v>
   <v>       0.14377601       0.71521473       0.50089783 </v>
   <v>       0.14422382       0.85880739       0.50132868 </v>
   <v>       0.28728991       0.00258264       0.50052899 </v>
   <v>       0.28786424       0.14674192       0.50118992 </v>
   <v>       0.28729991       0.29202963       0.50139378 </v>
   <v>       0.28533666       0.42710080       0.50128836 </v>
   <v>       0.28806629       0.57163224       0.50105634 </v>
   <v>       0.28659593       0.71553412       0.50024626 </v>
   <v>       0.28632400       0.85887562       0.50000530 </v>
   <v>       0.42958008       0.00141925       0.49964667 </v>
   <v>       0.43074772       0.14597220       0.50026701 </v>
   <v>       0.43022885       0.28756205       0.50075012 </v>
   <v>       0.42829284       0.85734441       0.49968402 </v>
   <v>       0.57149271       0.99966411       0.49992343 </v>
   <v>       0.57225195       0.14348335       0.49984671 </v>
   <v>       0.57616201       0.29024338       0.50074278 </v>
   <v>       0.57050288       0.85458709       0.50049408 </v>
   <v>       0.71353939       0.99800769       0.50118390 </v>
   <v>       0.71456587       0.14234708       0.50044375 </v>
   <v>       0.71517948       0.28597010       0.50039803 </v>
   <v>       0.71121117       0.42615775       0.50142596 </v>
   <v>       0.71594995       0.57439370       0.50178964 </v>
   <v>       0.71259546       0.85407901       0.50207893 </v>
   <v>       0.85679828       0.99915865       0.50251781 </v>
   <v>       0.85675409       0.14226945       0.50155133 </v>
   <v>       0.85728199       0.28571607       0.50084888 </v>
   <v>       0.85733060       0.42902818       0.50109981 </v>
   <v>       0.85662972       0.57169621       0.50225764 </v>
   <v>       0.85885880       0.71570581       0.50296056 </v>
   <v>       0.85815595       0.85685170       0.50301293 </v>
   <v>       0.04839573       0.09617845       0.50246511 </v>
   <v>       0.04687819       0.23802588       0.50189626 </v>
   <v>       0.04758381       0.38146677       0.50132107 </v>
   <v>       0.04813247       0.52451009       0.50119130 </v>
   <v>       0.04833222       0.66752624       0.50151861 </v>
   <v>       0.04890584       0.81067731       0.50213895 </v>
   <v>       0.04914231       0.95390214       0.50256677 </v>
   <v>       0.19227623       0.09772024       0.50180107 </v>
   <v>       0.19102077       0.24011329       0.50185103 </v>
   <v>       0.18965969       0.38099365       0.50158410 </v>
   <v>       0.19171429       0.52496960       0.50123322 </v>
   <v>       0.19123477       0.66761448       0.50065729 </v>
   <v>       0.19141059       0.81090410       0.50064899 </v>
   <v>       0.19209501       0.95441902       0.50125808 </v>
   <v>       0.33532984       0.09867775       0.50060943 </v>
   <v>       0.33668234       0.24296479       0.50110253 </v>
   <v>       0.33194839       0.52223805       0.50087317 </v>
   <v>       0.33732940       0.67048999       0.50061107 </v>
   <v>       0.33354062       0.81060332       0.49983912 </v>
   <v>       0.33420980       0.95422408       0.49993446 </v>
   <v>       0.47726625       0.09677496       0.49983764 </v>
   <v>       0.47836725       0.24183403       0.50058614 </v>
   <v>       0.47269067       0.80619504       0.50019057 </v>
   <v>       0.47651413       0.95295091       0.49958629 </v>
   <v>       0.61920202       0.09503909       0.49997736 </v>
   <v>       0.62046814       0.23909546       0.50016888 </v>
   <v>       0.61911540       0.80931046       0.50101854 </v>
   <v>       0.61810800       0.95052968       0.50049069 </v>
   <v>       0.76155896       0.09407735       0.50107565 </v>
   <v>       0.76240086       0.23770372       0.50049813 </v>
   <v>       0.76197194       0.38107063       0.50085350 </v>
   <v>       0.76014873       0.52512779       0.50200891 </v>
   <v>       0.76308200       0.66972565       0.50278386 </v>
   <v>       0.76188466       0.80487068       0.50283898 </v>
   <v>       0.76117520       0.95015503       0.50207054 </v>
   <v>       0.90429510       0.09438358       0.50221941 </v>
   <v>       0.90450724       0.23782700       0.50128106 </v>
   <v>       0.90476184       0.38136733       0.50097184 </v>
   <v>       0.90481487       0.52455342       0.50166906 </v>
   <v>       0.90521997       0.66709677       0.50254052 </v>
   <v>       0.90662505       0.81059122       0.50309349 </v>
   <v>       0.90517581       0.95217933       0.50283767 </v>
   <v>       0.46837192       0.36033349       0.50027183 </v>
   <v>       0.40461937       0.55853454       0.49890954 </v>
   <v>       0.64304669       0.53852692       0.49862115 </v>
   <v>       0.58241221       0.73657387       0.50032524 </v>
   <v>       0.54173393       0.57409090       0.49195211 </v>
   <v>       0.45884664       0.47693594       0.47911462 </v>
   <v>       0.42725782       0.71571280       0.50077821 </v>
   <v>       0.71696968       0.71519667       0.50302011 </v>
   <v>       0.33174355       0.38190729       0.50113221 </v>
   <v>       0.62135345       0.38063700       0.50173807 </v>
   <v>       0.51713029       0.52140784       0.45390511 </v>
  </varray>
  <varray name="selective"  type="logical" >
   <v type="logical" >  T  T  T </v>
   <v type="logical" >  T  T  T </v>
   <v type="logical" >  T  T  T </v>
   <v type="logical" >  T  T  T </v>
   <v type="logical" >  T  T  T </v>
   <v type="logical" >  T  T  T </v>
   <v type="logical" >  T  T  T </v>
   <v type="logical" >  T  T  T </v>
   <v type="logical" >  T  T  T </v>
   <v type="logical" >  T  T  T </v>
   <v type="logical" >  T  T  T </v>
   <v type="logical" >  T  T  T </v>
   <v type="logical" >  T  T  T </v>
   <v type="logical" >  T  T  T </v>
   <v type="logical" >  T  T  T </v>
   <v type="logical" >  T  T  T </v>
   <v type="logical" >  T  T  T </v>
   <v type="logical" >  T  T  T </v>
   <v type="logical" >  T  T  T </v>
   <v type="logical" >  T  T  T </v>
   <v type="logical" >  T  T  T </v>
   <v type="logical" >  T  T  T </v>
   <v type="logical" >  T  T  T </v>
   <v type="logical" >  T  T  T </v>
   <v type="logical" >  T  T  T </v>
   <v type="logical" >  T  T  T </v>
   <v type="logical" >  T  T  T </v>
   <v type="logical" >  T  T  T </v>
   <v type="logical" >  T  T  T </v>
   <v type="logical" >  T  T  T </v>
   <v type="logical" >  T  T  T </v>
   <v type="logical" >  T  T  T </v>
   <v type="logical" >  T  T  T </v>
   <v type="logical" >  T  T  T </v>
   <v type="logical" >  T  T  T </v>
   <v type="logical" >  T  T  T </v>
   <v type="logical" >  T  T  T </v>
   <v type="logical" >  T  T  T </v>
   <v type="logical" >  T  T  T </v>
   <v type="logical" >  T  T  T </v>
   <v type="logical" >  T  T  T </v>
   <v type="logical" >  T  T  T </v>
   <v type="logical" >  T  T  T </v>
   <v type="logical" >  T  T  T </v>
   <v type="logical" >  T  T  T </v>
   <v type="logical" >  T  T  T </v>
   <v type="logical" >  T  T  T </v>
   <v type="logical" >  T  T  T </v>
   <v type="logical" >  T  T  T </v>
   <v type="logical" >  T  T  T </v>
   <v type="logical" >  T  T  T </v>
   <v type="logical" >  T  T  T </v>
   <v type="logical" >  T  T  T </v>
   <v type="logical" >  T  T  T </v>
   <v type="logical" >  T  T  T </v>
   <v type="logical" >  T  T  T </v>
   <v type="logical" >  T  T  T </v>
   <v type="logical" >  T  T  T </v>
   <v type="logical" >  T  T  T </v>
   <v type="logical" >  T  T  T </v>
   <v type="logical" >  T  T  T </v>
   <v type="logical" >  T  T  T </v>
   <v type="logical" >  T  T  T </v>
   <v type="logical" >  T  T  T </v>
   <v type="logical" >  T  T  T </v>
   <v type="logical" >  T  T  T </v>
   <v type="logical" >  T  T  T </v>
   <v type="logical" >  T  T  T </v>
   <v type="logical" >  T  T  T </v>
   <v type="logical" >  T  T  T </v>
   <v type="logical" >  T  T  T </v>
   <v type="logical" >  T  T  T </v>
   <v type="logical" >  T  T  T </v>
   <v type="logical" >  T  T  T </v>
   <v type="logical" >  T  T  T </v>
   <v type="logical" >  T  T  T </v>
   <v type="logical" >  T  T  T </v>
   <v type="logical" >  T  T  T </v>
   <v type="logical" >  T  T  T </v>
   <v type="logical" >  T  T  T </v>
   <v type="logical" >  T  T  T </v>
   <v type="logical" >  T  T  T </v>
   <v type="logical" >  T  T  T </v>
   <v type="logical" >  T  T  T </v>
   <v type="logical" >  T  T  T </v>
   <v type="logical" >  T  T  T </v>
   <v type="logical" >  T  T  T </v>
   <v type="logical" >  T  T  T </v>
   <v type="logical" >  T  T  T </v>
   <v type="logical" >  T  T  T </v>
   <v type="logical" >  T  T  T </v>
   <v type="logical" >  T  T  T </v>
   <v type="logical" >  T  T  T </v>
   <v type="logical" >  T  T  T </v>
   <v type="logical" >  T  T  T </v>
  </varray>
  <nose>
   <v>      -3.00000000       0.00000000       0.00010000       0.00010000 </v>
  </nose>
 </structure>
</modeling>
