unknown system                          
           1
    17.271038    0.000000    0.000000
    -8.635519   14.957158    0.000000
     0.000000    0.000000   15.000000
   C    H    N    O 
    84     6     4     1
Direct configuration=     1
   0.00021257  0.00013149  0.50103509
   0.99939113  0.14230809  0.50047502
   0.99942628  0.28545862  0.50025169
   0.99983990  0.42858824  0.50019457
   0.99997660  0.57158193  0.50040923
   0.00058250  0.71462103  0.50085198
   0.00155021  0.85819590  0.50117286
   0.14422221  0.00188556  0.50068601
   0.14350744  0.14420600  0.50087229
   0.14183421  0.28565388  0.50101792
   0.14292994  0.42906919  0.50079008
   0.14326298  0.57159464  0.50038320
   0.14343282  0.71469721  0.50007096
   0.14382598  0.85828844  0.50024323
   0.28688266  0.00207178  0.50015958
   0.28742830  0.14620588  0.50114641
   0.28688489  0.29159208  0.50212063
   0.28507791  0.42661490  0.50202614
   0.28774594  0.57111749  0.50096780
   0.28626093  0.71504253  0.50003456
   0.28595561  0.85837220  0.49982775
   0.42920777  0.00096293  0.49998186
   0.43035893  0.14552240  0.50048416
   0.42969348  0.28702225  0.50098856
   0.42789217  0.85687762  0.50007267
   0.57109692  0.99920299  0.50030754
   0.57188070  0.14304142  0.50009286
   0.57577092  0.28979866  0.50063496
   0.57007220  0.85414179  0.50082580
   0.71313510  0.99748262  0.50084599
   0.71419683  0.14186235  0.50017764
   0.71482754  0.28549000  0.50008062
   0.71091116  0.42566289  0.50087933
   0.71584086  0.57386550  0.50171750
   0.71205130  0.85344540  0.50198129
   0.85632101  0.99855933  0.50115734
   0.85634383  0.14172242  0.50031041
   0.85693621  0.28521998  0.49997066
   0.85699646  0.42850828  0.50025730
   0.85638135  0.57116938  0.50132152
   0.85851392  0.71516863  0.50210504
   0.85763328  0.85622155  0.50196123
   0.04794697  0.09559992  0.50070885
   0.04648630  0.23748801  0.50048452
   0.04724907  0.38096364  0.50034875
   0.04782855  0.52400222  0.50028512
   0.04800555  0.66701693  0.50042508
   0.04850376  0.81014590  0.50074417
   0.04869352  0.95334489  0.50093486
   0.19183456  0.09717174  0.50093506
   0.19057661  0.23958735  0.50121432
   0.18935563  0.38050982  0.50129124
   0.19140580  0.52446661  0.50082997
   0.19089302  0.66709372  0.50006877
   0.19104348  0.81039529  0.49997714
   0.19166711  0.95389047  0.50030526
   0.33492718  0.09818362  0.50056720
   0.33618338  0.24239870  0.50162355
   0.33172096  0.52180962  0.50120264
   0.33700599  0.66999785  0.50053631
   0.33315530  0.81010037  0.49991415
   0.33381219  0.95372150  0.49990136
   0.47689342  0.09633120  0.50015719
   0.47797541  0.24142525  0.50072841
   0.47228413  0.80575284  0.50054039
   0.47612803  0.95249126  0.50006579
   0.61881950  0.09458286  0.50015758
   0.62010325  0.23865436  0.50014677
   0.61855470  0.80872926  0.50116446
   0.61770093  0.95005653  0.50070610
   0.76116354  0.09354291  0.50043470
   0.76204481  0.23721379  0.50000379
   0.76165032  0.38057686  0.50027185
   0.75995476  0.52459904  0.50143568
   0.76277840  0.66914961  0.50273239
   0.76133925  0.80424982  0.50271736
   0.76070546  0.94956594  0.50143336
   0.90385712  0.09380962  0.50053618
   0.90413001  0.23729498  0.50007818
   0.90442514  0.38086483  0.50005183
   0.90452616  0.52402220  0.50064424
   0.90489044  0.66656699  0.50144299
   0.90619549  0.81003154  0.50187063
   0.90466266  0.95155915  0.50134662
   0.46730022  0.35977406  0.50009517
   0.40444325  0.55794056  0.49850122
   0.64300567  0.53804850  0.49874948
   0.58145041  0.73599359  0.50023837
   0.55845990  0.58895362  0.50475625
   0.47221880  0.49222318  0.49873748
   0.42691408  0.71528305  0.50104039
   0.71651854  0.71451368  0.50373891
   0.33151747  0.38142546  0.50318545
   0.62102582  0.38022469  0.50132859
   0.52266160  0.53878347  0.46507743
Direct configuration=     2
   0.00021358  0.00013160  0.50103990
   0.99939187  0.14230857  0.50047795
   0.99942676  0.28546056  0.50025403
   0.99984025  0.42858976  0.50019687
   0.99997696  0.57158250  0.50041051
   0.00058319  0.71462194  0.50085465
   0.00155136  0.85819698  0.50117660
   0.14422320  0.00188638  0.50068901
   0.14350596  0.14420346  0.50087538
   0.14183502  0.28565522  0.50102005
   0.14293017  0.42907144  0.50079082
   0.14326318  0.57159606  0.50038390
   0.14343338  0.71469806  0.50007189
   0.14382683  0.85828973  0.50024554
   0.28688336  0.00207249  0.50016032
   0.28742866  0.14620614  0.50114783
   0.28688619  0.29159344  0.50211920
   0.28507836  0.42661724  0.50202427
   0.28774602  0.57111932  0.50096845
   0.28626159  0.71504360  0.50003463
   0.28595672  0.85837347  0.49982838
   0.42920833  0.00096346  0.49998158
   0.43035927  0.14552251  0.50048401
   0.42969540  0.28702362  0.50098780
   0.42789323  0.85687864  0.50007227
   0.57109764  0.99920365  0.50030711
   0.57188115  0.14304190  0.50009263
   0.57577231  0.28979981  0.50063518
   0.57007319  0.85414246  0.50082507
   0.71313590  0.99748377  0.50084629
   0.71419784  0.14186373  0.50017758
   0.71482902  0.28549161  0.50008111
   0.71091243  0.42566426  0.50087977
   0.71584151  0.57386696  0.50171733
   0.71205112  0.85344584  0.50198048
   0.85632198  0.99856012  0.50115862
   0.85634452  0.14172405  0.50031092
   0.85693716  0.28522192  0.49997201
   0.85699743  0.42850956  0.50025894
   0.85638209  0.57117051  0.50132319
   0.85851494  0.71517006  0.50210731
   0.85763479  0.85622296  0.50196449
   0.04794858  0.09560197  0.50071274
   0.04648787  0.23748899  0.50048737
   0.04725035  0.38096418  0.50035087
   0.04782949  0.52400335  0.50028663
   0.04800667  0.66701832  0.50042625
   0.04850504  0.81014681  0.50074744
   0.04869392  0.95334439  0.50093754
   0.19183661  0.09717450  0.50093727
   0.19057822  0.23958963  0.50121595
   0.18935638  0.38051066  0.50129176
   0.19140655  0.52446751  0.50082977
   0.19089394  0.66709510  0.50006926
   0.19104533  0.81039663  0.49997720
   0.19166868  0.95389170  0.50030703
   0.33492841  0.09818563  0.50056673
   0.33618496  0.24240094  0.50162276
   0.33171969  0.52180972  0.50120224
   0.33700644  0.66999893  0.50053637
   0.33315637  0.81010134  0.49991372
   0.33381362  0.95372282  0.49990185
   0.47689488  0.09633295  0.50015649
   0.47797660  0.24142630  0.50072845
   0.47228521  0.80575394  0.50053967
   0.47612953  0.95249258  0.50006530
   0.61882078  0.09458424  0.50015735
   0.62010410  0.23865531  0.50014695
   0.61855643  0.80873105  0.50116316
   0.61770255  0.95005792  0.50070581
   0.76116508  0.09354422  0.50043478
   0.76204534  0.23721378  0.50000288
   0.76165090  0.38057785  0.50027284
   0.75995539  0.52460050  0.50143632
   0.76277945  0.66915126  0.50273265
   0.76134116  0.80425177  0.50271898
   0.76070678  0.94956741  0.50143422
   0.90385879  0.09381095  0.50053751
   0.90413153  0.23729571  0.50007998
   0.90442597  0.38086571  0.50005403
   0.90452698  0.52402350  0.50064579
   0.90489151  0.66656826  0.50144552
   0.90619685  0.81003290  0.50187380
   0.90466424  0.95156102  0.50135036
   0.46730347  0.35977531  0.50009672
   0.40444301  0.55794339  0.49850081
   0.64300582  0.53805032  0.49874887
   0.58145281  0.73599452  0.50023749
   0.55840711  0.58891209  0.50477258
   0.47218615  0.49219418  0.49871888
   0.42691459  0.71528417  0.50103966
   0.71652021  0.71451583  0.50373932
   0.33151761  0.38142710  0.50318098
   0.62102656  0.38022514  0.50132850
   0.52265816  0.53874464  0.46501603
Direct configuration=     3
   0.00021508  0.00013297  0.50104720
   0.99939347  0.14231059  0.50048253
   0.99942849  0.28546177  0.50025773
   0.99984143  0.42859100  0.50020049
   0.99997805  0.57158414  0.50041268
   0.00058439  0.71462341  0.50085897
   0.00155255  0.85819739  0.50118248
   0.14422520  0.00188803  0.50069350
   0.14350917  0.14420875  0.50087974
   0.14183669  0.28565707  0.50102346
   0.14293162  0.42907206  0.50079271
   0.14326422  0.57159789  0.50038507
   0.14343469  0.71469974  0.50007327
   0.14382839  0.85829094  0.50024899
   0.28688519  0.00207446  0.50016140
   0.28743105  0.14620965  0.50114868
   0.28688691  0.29159580  0.50211708
   0.28507846  0.42661873  0.50202180
   0.28774623  0.57112104  0.50096956
   0.28626235  0.71504504  0.50003474
   0.28595859  0.85837491  0.49982912
   0.42921019  0.00096538  0.49998116
   0.43036037  0.14552418  0.50048382
   0.42969737  0.28702562  0.50098700
   0.42789473  0.85688018  0.50007163
   0.57109941  0.99920522  0.50030657
   0.57188277  0.14304358  0.50009234
   0.57577340  0.28980072  0.50063573
   0.57007474  0.85414401  0.50082409
   0.71313772  0.99748562  0.50084691
   0.71419911  0.14186480  0.50017748
   0.71483006  0.28549275  0.50008180
   0.71091346  0.42566586  0.50088073
   0.71584208  0.57386885  0.50171751
   0.71205321  0.85344801  0.50198096
   0.85632379  0.99856241  0.50116037
   0.85634648  0.14172516  0.50031247
   0.85693854  0.28522282  0.49997405
   0.85699833  0.42851100  0.50026159
   0.85638303  0.57117223  0.50132610
   0.85851732  0.71517141  0.50211039
   0.85763703  0.85622526  0.50196980
   0.04794842  0.09559994  0.50071836
   0.04648870  0.23749029  0.50049179
   0.04725092  0.38096624  0.50035419
   0.04783008  0.52400475  0.50028907
   0.04800730  0.66701832  0.50042803
   0.04850649  0.81014812  0.50075261
   0.04869516  0.95334472  0.50094213
   0.19183654  0.09717418  0.50094134
   0.19057784  0.23958819  0.50121818
   0.18935667  0.38051312  0.50129274
   0.19140666  0.52446887  0.50083085
   0.19089474  0.66709665  0.50007005
   0.19104625  0.81039792  0.49997876
   0.19167025  0.95389298  0.50030923
   0.33492923  0.09818532  0.50056657
   0.33618703  0.24240293  0.50162188
   0.33171928  0.52181184  0.50120182
   0.33700792  0.67000082  0.50053552
   0.33315754  0.81010324  0.49991362
   0.33381510  0.95372440  0.49990258
   0.47689424  0.09633190  0.50015532
   0.47797719  0.24142686  0.50072867
   0.47228665  0.80575539  0.50053872
   0.47613072  0.95249379  0.50006460
   0.61882193  0.09458545  0.50015709
   0.62010573  0.23865654  0.50014733
   0.61855739  0.80873197  0.50116136
   0.61770385  0.95005910  0.50070553
   0.76116639  0.09354596  0.50043502
   0.76204669  0.23721521  0.50000185
   0.76165246  0.38057954  0.50027448
   0.75995625  0.52460230  0.50143767
   0.76278050  0.66915302  0.50273428
   0.76134315  0.80425394  0.50272176
   0.76070772  0.94956860  0.50143565
   0.90385986  0.09381213  0.50053967
   0.90413246  0.23729866  0.50008125
   0.90442697  0.38086748  0.50005746
   0.90452789  0.52402486  0.50064843
   0.90489252  0.66656965  0.50144974
   0.90619843  0.81003459  0.50187912
   0.90466625  0.95156255  0.50135628
   0.46730770  0.35977703  0.50009884
   0.40444208  0.55794685  0.49849952
   0.64300602  0.53805271  0.49874721
   0.58145604  0.73599598  0.50023600
   0.55832909  0.58884062  0.50477363
   0.47216014  0.49217149  0.49866961
   0.42691509  0.71528518  0.50103897
   0.71652228  0.71451861  0.50374067
   0.33151822  0.38142985  0.50317521
   0.62102791  0.38022643  0.50132885
   0.52264934  0.53870072  0.46494146
Direct configuration=     4
   0.00021697  0.00013451  0.50105682
   0.99939548  0.14231270  0.50048879
   0.99943074  0.28546290  0.50026276
   0.99984304  0.42859230  0.50020547
   0.99997945  0.57158621  0.50041585
   0.00058608  0.71462505  0.50086501
   0.00155396  0.85819770  0.50119054
   0.14422729  0.00188968  0.50069942
   0.14351212  0.14421424  0.50088553
   0.14183842  0.28565893  0.50102814
   0.14293334  0.42907210  0.50079585
   0.14326691  0.57159941  0.50038617
   0.14343628  0.71470186  0.50007511
   0.14382867  0.85829240  0.50025277
   0.28688758  0.00207677  0.50016279
   0.28743425  0.14621419  0.50114910
   0.28688746  0.29159863  0.50211444
   0.28507851  0.42662022  0.50201890
   0.28774648  0.57112288  0.50097105
   0.28626339  0.71504706  0.50003481
   0.28596069  0.85837675  0.49982999
   0.42921246  0.00096761  0.49998059
   0.43036172  0.14552614  0.50048351
   0.42969942  0.28702801  0.50098639
   0.42789650  0.85688216  0.50007073
   0.57110168  0.99920728  0.50030595
   0.57188469  0.14304560  0.50009196
   0.57577425  0.28980157  0.50063668
   0.57007654  0.85414603  0.50082284
   0.71313970  0.99748670  0.50084893
   0.71420063  0.14186592  0.50017724
   0.71483114  0.28549374  0.50008266
   0.71091665  0.42566602  0.50088228
   0.71584237  0.57387104  0.50171826
   0.71205597  0.85345089  0.50198166
   0.85632664  0.99856529  0.50116170
   0.85634868  0.14172681  0.50031362
   0.85694005  0.28522358  0.49997664
   0.85699938  0.42851270  0.50026533
   0.85638405  0.57117419  0.50133037
   0.85852006  0.71517283  0.50211468
   0.85763973  0.85622812  0.50197731
   0.04794792  0.09559724  0.50072587
   0.04649057  0.23749188  0.50049662
   0.04725135  0.38096901  0.50035881
   0.04783066  0.52400650  0.50029248
   0.04800780  0.66701811  0.50043064
   0.04850805  0.81014946  0.50075972
   0.04869736  0.95334617  0.50094908
   0.19183613  0.09717343  0.50094720
   0.19057705  0.23958645  0.50122113
   0.18935697  0.38051602  0.50129430
   0.19140650  0.52447062  0.50083327
   0.19089570  0.66709848  0.50007115
   0.19104738  0.81039960  0.49998062
   0.19167189  0.95389437  0.50031209
   0.33493009  0.09818465  0.50056689
   0.33618925  0.24240532  0.50162092
   0.33171964  0.52181530  0.50120138
   0.33700844  0.67000283  0.50053643
   0.33315812  0.81010407  0.49991441
   0.33381665  0.95372613  0.49990349
   0.47689320  0.09633030  0.50015386
   0.47797762  0.24142743  0.50072908
   0.47228832  0.80575716  0.50053758
   0.47613203  0.95249513  0.50006371
   0.61882310  0.09458672  0.50015680
   0.62010767  0.23865797  0.50014792
   0.61855877  0.80873332  0.50116050
   0.61770514  0.95006043  0.50070530
   0.76116783  0.09354797  0.50043556
   0.76204877  0.23721841  0.50000224
   0.76165443  0.38058165  0.50027684
   0.75995715  0.52460432  0.50143986
   0.76278185  0.66915517  0.50273743
   0.76134538  0.80425642  0.50272580
   0.76070882  0.94957005  0.50143763
   0.90386082  0.09381372  0.50054280
   0.90413368  0.23730021  0.50008283
   0.90442814  0.38086974  0.50006214
   0.90452877  0.52402645  0.50065228
   0.90489384  0.66657123  0.50145568
   0.90620011  0.81003624  0.50188676
   0.90466761  0.95156527  0.50136317
   0.46731258  0.35977928  0.50010136
   0.40444053  0.55795086  0.49849715
   0.64300641  0.53805560  0.49874427
   0.58145976  0.73599766  0.50023383
   0.55823087  0.58874097  0.50475063
   0.47214536  0.49215803  0.49858199
   0.42691606  0.71528638  0.50103841
   0.71652450  0.71452171  0.50374317
   0.33151897  0.38143297  0.50316857
   0.62102944  0.38022818  0.50132984
   0.52263210  0.53865698  0.46486216
Direct configuration=     5
   0.00021888  0.00013511  0.50106869
   0.99939738  0.14231340  0.50049676
   0.99943281  0.28546480  0.50026901
   0.99984447  0.42859465  0.50021189
   0.99998062  0.57158781  0.50042009
   0.00058821  0.71462633  0.50087287
   0.00155599  0.85819909  0.50120101
   0.14422894  0.00189078  0.50070688
   0.14351217  0.14421438  0.50089301
   0.14183985  0.28566060  0.50103394
   0.14293356  0.42907502  0.50079907
   0.14326804  0.57160123  0.50038818
   0.14343766  0.71470385  0.50007746
   0.14382884  0.85829451  0.50025704
   0.28688959  0.00207813  0.50016453
   0.28743396  0.14621339  0.50115178
   0.28689019  0.29160129  0.50211207
   0.28507923  0.42662331  0.50201563
   0.28774663  0.57112553  0.50097294
   0.28626457  0.71504948  0.50003505
   0.28596237  0.85837894  0.49983110
   0.42921398  0.00096868  0.49997983
   0.43036272  0.14552682  0.50048300
   0.42970191  0.28703075  0.50098613
   0.42789812  0.85688412  0.50006967
   0.57110368  0.99920923  0.50030522
   0.57188576  0.14304687  0.50009144
   0.57577539  0.28980303  0.50063800
   0.57007610  0.85414537  0.50082085
   0.71314182  0.99748874  0.50085099
   0.71420261  0.14186801  0.50017692
   0.71483302  0.28549556  0.50008378
   0.71091856  0.42566785  0.50088453
   0.71584247  0.57387346  0.50171967
   0.71205851  0.85345375  0.50198279
   0.85632945  0.99856805  0.50116320
   0.85635042  0.14172919  0.50031445
   0.85694193  0.28522562  0.49997978
   0.85700118  0.42851503  0.50027029
   0.85638515  0.57117623  0.50133606
   0.85852214  0.71517464  0.50212063
   0.85764276  0.85623085  0.50198568
   0.04794915  0.09559816  0.50073559
   0.04649406  0.23749404  0.50050228
   0.04725269  0.38097102  0.50036493
   0.04783227  0.52400869  0.50029688
   0.04800907  0.66701953  0.50043436
   0.04850948  0.81015058  0.50076883
   0.04870006  0.95334818  0.50095896
   0.19183942  0.09717712  0.50095375
   0.19057746  0.23958793  0.50122350
   0.18935802  0.38051773  0.50129653
   0.19140709  0.52447200  0.50083700
   0.19089734  0.66710069  0.50007252
   0.19104904  0.81040201  0.49998287
   0.19167382  0.95389607  0.50031586
   0.33493180  0.09818646  0.50056771
   0.33619144  0.24240921  0.50161966
   0.33172183  0.52181810  0.50120176
   0.33700893  0.67000495  0.50053769
   0.33315964  0.81010405  0.49991477
   0.33381872  0.95372808  0.49990455
   0.47689435  0.09633134  0.50015224
   0.47797850  0.24142875  0.50072961
   0.47229022  0.80575922  0.50053616
   0.47613423  0.95249707  0.50006260
   0.61882489  0.09458865  0.50015645
   0.62010938  0.23865948  0.50014871
   0.61856147  0.80873583  0.50116049
   0.61770711  0.95006240  0.50070521
   0.76116984  0.09354994  0.50043645
   0.76205085  0.23722110  0.50000282
   0.76165655  0.38058324  0.50027993
   0.75995807  0.52460618  0.50144293
   0.76278408  0.66915882  0.50274071
   0.76134847  0.80425951  0.50273106
   0.76071120  0.94957249  0.50144002
   0.90386293  0.09381653  0.50054693
   0.90413604  0.23730020  0.50008505
   0.90442961  0.38087179  0.50006814
   0.90452970  0.52402855  0.50065751
   0.90489618  0.66657322  0.50146334
   0.90620212  0.81003795  0.50189690
   0.90466892  0.95156899  0.50137119
   0.46731818  0.35978212  0.50010422
   0.40443891  0.55795583  0.49849387
   0.64300723  0.53805908  0.49874014
   0.58146405  0.73599946  0.50023106
   0.55812101  0.58862474  0.50470790
   0.47212842  0.49213934  0.49845849
   0.42691752  0.71528800  0.50103800
   0.71652703  0.71452507  0.50374672
   0.33151936  0.38143559  0.50316093
   0.62103138  0.38022977  0.50133146
   0.52260577  0.53860995  0.46477425
Direct configuration=     6
   0.00022066  0.00013566  0.50108279
   0.99939958  0.14231400  0.50050647
   0.99943605  0.28546954  0.50027497
   0.99984578  0.42859793  0.50021991
   0.99998160  0.57158918  0.50042553
   0.00059060  0.71462750  0.50088266
   0.00155921  0.85820186  0.50121130
   0.14423130  0.00189279  0.50071608
   0.14351077  0.14421094  0.50090231
   0.14184185  0.28566276  0.50104054
   0.14293301  0.42907978  0.50080282
   0.14326788  0.57160395  0.50039145
   0.14343915  0.71470598  0.50008045
   0.14383027  0.85829713  0.50026218
   0.28689007  0.00207790  0.50016544
   0.28743334  0.14621155  0.50115506
   0.28689378  0.29160376  0.50210967
   0.28508090  0.42662762  0.50201212
   0.28774752  0.57112867  0.50097539
   0.28626591  0.71505161  0.50003573
   0.28596381  0.85838099  0.49983263
   0.42921521  0.00096901  0.49997894
   0.43036393  0.14552715  0.50048230
   0.42970472  0.28703391  0.50098634
   0.42789986  0.85688588  0.50006857
   0.57110575  0.99921115  0.50030441
   0.57188642  0.14304777  0.50009080
   0.57577724  0.28980518  0.50063967
   0.57007556  0.85414420  0.50081833
   0.71314414  0.99749189  0.50085295
   0.71420521  0.14187132  0.50017663
   0.71483572  0.28549845  0.50008533
   0.71091911  0.42567139  0.50088753
   0.71584331  0.57387667  0.50172165
   0.71206122  0.85345691  0.50198463
   0.85633164  0.99857124  0.50116561
   0.85635200  0.14173173  0.50031529
   0.85694219  0.28522424  0.49998358
   0.85700369  0.42851790  0.50027663
   0.85638649  0.57117858  0.50134321
   0.85852398  0.71517613  0.50212716
   0.85764604  0.85623397  0.50199510
   0.04795225  0.09560221  0.50074792
   0.04649763  0.23749542  0.50050795
   0.04725457  0.38097244  0.50037272
   0.04783479  0.52401136  0.50030239
   0.04801160  0.66702284  0.50043951
   0.04851082  0.81015189  0.50077991
   0.04870284  0.95335010  0.50097229
   0.19184450  0.09718292  0.50096113
   0.19058034  0.23959334  0.50122435
   0.18935962  0.38051932  0.50129945
   0.19140909  0.52447509  0.50084055
   0.19089924  0.66710322  0.50007425
   0.19105109  0.81040531  0.49998573
   0.19167595  0.95389827  0.50032085
   0.33493387  0.09819002  0.50056919
   0.33619360  0.24241322  0.50161812
   0.33172330  0.52182004  0.50120263
   0.33701094  0.67000805  0.50053782
   0.33316187  0.81010615  0.49991599
   0.33382129  0.95373000  0.49990581
   0.47689796  0.09633530  0.50015065
   0.47798038  0.24143080  0.50073020
   0.47229181  0.80576099  0.50053444
   0.47613706  0.95249949  0.50006133
   0.61882753  0.09459143  0.50015603
   0.62011074  0.23866126  0.50014972
   0.61856440  0.80873796  0.50115961
   0.61770941  0.95006435  0.50070524
   0.76117232  0.09355216  0.50043769
   0.76205313  0.23722284  0.50000373
   0.76165883  0.38058470  0.50028384
   0.75995868  0.52460830  0.50144691
   0.76278646  0.66916263  0.50274282
   0.76135273  0.80426330  0.50273726
   0.76071519  0.94957619  0.50144261
   0.90386650  0.09382034  0.50055203
   0.90413905  0.23730330  0.50008775
   0.90443174  0.38087381  0.50007558
   0.90453110  0.52403129  0.50066428
   0.90489990  0.66657642  0.50147120
   0.90620494  0.81004037  0.50190951
   0.90467156  0.95157258  0.50138051
   0.46732477  0.35978558  0.50010754
   0.40443861  0.55796251  0.49849029
   0.64300850  0.53806325  0.49873541
   0.58146957  0.73600182  0.50022800
   0.55800968  0.58850975  0.50465942
   0.47208324  0.49208898  0.49831126
   0.42691883  0.71528983  0.50103774
   0.71653028  0.71452915  0.50375082
   0.33151967  0.38143773  0.50315197
   0.62103380  0.38023129  0.50133360
   0.52257256  0.53855164  0.46466666
Direct configuration=     7
   0.00022314  0.00013844  0.50110083
   0.99940331  0.14231745  0.50051877
   0.99944095  0.28547491  0.50028116
   0.99984740  0.42860106  0.50023053
   0.99998336  0.57159196  0.50043293
   0.00059361  0.71463004  0.50089546
   0.00156317  0.85820535  0.50122353
   0.14423580  0.00189777  0.50072833
   0.14351261  0.14421198  0.50091426
   0.14184559  0.28566652  0.50104786
   0.14293505  0.42908245  0.50080958
   0.14327065  0.57160802  0.50039555
   0.14344180  0.71470962  0.50008440
   0.14383315  0.85829997  0.50026916
   0.28689105  0.00207878  0.50016580
   0.28743925  0.14621845  0.50115763
   0.28689429  0.29160673  0.50210532
   0.28508296  0.42663130  0.50200820
   0.28775015  0.57113210  0.50097852
   0.28626804  0.71505401  0.50003683
   0.28596590  0.85838315  0.49983475
   0.42921809  0.00097113  0.49997769
   0.43036590  0.14553005  0.50048293
   0.42970763  0.28703757  0.50098696
   0.42790240  0.85688809  0.50006724
   0.57110910  0.99921396  0.50030325
   0.57188873  0.14305026  0.50008977
   0.57577991  0.28980760  0.50064171
   0.57008044  0.85414860  0.50081564
   0.71314656  0.99749427  0.50085623
   0.71420823  0.14187524  0.50017632
   0.71483873  0.28550194  0.50008752
   0.71091964  0.42567567  0.50089164
   0.71584539  0.57388145  0.50172405
   0.71206526  0.85346127  0.50198758
   0.85633451  0.99857611  0.50116998
   0.85635521  0.14173515  0.50031648
   0.85694299  0.28522257  0.49998845
   0.85700662  0.42852077  0.50028519
   0.85638837  0.57118199  0.50135251
   0.85852695  0.71517877  0.50213538
   0.85765035  0.85623831  0.50200699
   0.04795563  0.09560532  0.50076467
   0.04649953  0.23749667  0.50051488
   0.04725643  0.38097577  0.50038287
   0.04783684  0.52401461  0.50030971
   0.04801517  0.66702662  0.50044701
   0.04851305  0.81015426  0.50079385
   0.04870624  0.95335267  0.50099071
   0.19184467  0.09718467  0.50096870
   0.19058473  0.23959724  0.50122642
   0.18936107  0.38052389  0.50130330
   0.19141163  0.52448118  0.50084411
   0.19090088  0.66710628  0.50007650
   0.19105037  0.81040749  0.49998774
   0.19167791  0.95390108  0.50032765
   0.33493523  0.09819207  0.50057131
   0.33619623  0.24241532  0.50161618
   0.33172308  0.52182306  0.50120347
   0.33701322  0.67001133  0.50053851
   0.33316506  0.81011008  0.49991644
   0.33382375  0.95373163  0.49990702
   0.47690185  0.09633929  0.50014880
   0.47798334  0.24143329  0.50073075
   0.47229284  0.80576227  0.50053193
   0.47613990  0.95250192  0.50005959
   0.61883090  0.09459475  0.50015526
   0.62011255  0.23866387  0.50015086
   0.61856749  0.80873969  0.50115733
   0.61771141  0.95006535  0.50070514
   0.76117514  0.09355554  0.50043910
   0.76205534  0.23722386  0.50000506
   0.76166131  0.38058796  0.50028899
   0.75995910  0.52461197  0.50145235
   0.76278885  0.66916649  0.50274441
   0.76135799  0.80426803  0.50274485
   0.76071855  0.94957729  0.50144669
   0.90387050  0.09382450  0.50055850
   0.90414248  0.23730940  0.50009136
   0.90443322  0.38087275  0.50008360
   0.90453336  0.52403480  0.50067353
   0.90490377  0.66657992  0.50148030
   0.90620800  0.81004343  0.50192388
   0.90467612  0.95157559  0.50139230
   0.46733286  0.35978985  0.50011151
   0.40444034  0.55797178  0.49848613
   0.64301036  0.53806854  0.49872950
   0.58147709  0.73600485  0.50022425
   0.55789556  0.58839777  0.50460532
   0.47198795  0.49198407  0.49812754
   0.42692003  0.71529190  0.50103733
   0.71653480  0.71453463  0.50375534
   0.33152094  0.38144073  0.50314039
   0.62103622  0.38023345  0.50133641
   0.52253345  0.53847672  0.46452243
Direct configuration=     8
   0.00022822  0.00014421  0.50112369
   0.99940829  0.14232352  0.50053376
   0.99944425  0.28547512  0.50029006
   0.99984926  0.42860315  0.50024408
   0.99998719  0.57159763  0.50044307
   0.00059775  0.71463513  0.50091166
   0.00156681  0.85820886  0.50123985
   0.14423917  0.00190264  0.50074228
   0.14351969  0.14422154  0.50092899
   0.14185000  0.28567155  0.50105538
   0.14294070  0.42908608  0.50082035
   0.14327578  0.57161360  0.50040090
   0.14344512  0.71471448  0.50008955
   0.14383564  0.85830325  0.50027880
   0.28689406  0.00208268  0.50016636
   0.28744463  0.14622617  0.50116102
   0.28689695  0.29160978  0.50209992
   0.28508509  0.42663466  0.50200460
   0.28775382  0.57113802  0.50098034
   0.28627130  0.71505796  0.50003842
   0.28596752  0.85838526  0.49983730
   0.42922337  0.00097676  0.49997619
   0.43036908  0.14553546  0.50048522
   0.42971167  0.28704164  0.50098829
   0.42790610  0.85689139  0.50006574
   0.57111358  0.99921791  0.50030187
   0.57189414  0.14305549  0.50008848
   0.57578338  0.28981025  0.50064441
   0.57008480  0.85415127  0.50081240
   0.71315053  0.99749763  0.50085916
   0.71420945  0.14187552  0.50017778
   0.71483844  0.28550452  0.50009074
   0.71092604  0.42567699  0.50089750
   0.71584761  0.57388779  0.50172692
   0.71207001  0.85346457  0.50199240
   0.85633726  0.99857818  0.50117613
   0.85636117  0.14174124  0.50031878
   0.85694954  0.28523205  0.49999454
   0.85700985  0.42852249  0.50029638
   0.85639043  0.57118642  0.50136443
   0.85853152  0.71518371  0.50214610
   0.85765625  0.85624355  0.50202234
   0.04795826  0.09560660  0.50078674
   0.04650195  0.23750139  0.50052418
   0.04725997  0.38098267  0.50039565
   0.04783782  0.52401833  0.50031950
   0.04801876  0.66702945  0.50045778
   0.04851704  0.81016077  0.50080890
   0.04870789  0.95335951  0.50101277
   0.19184440  0.09718502  0.50097713
   0.19058797  0.23959741  0.50123139
   0.18936337  0.38053072  0.50130863
   0.19140572  0.52447961  0.50084884
   0.19090373  0.66711122  0.50007959
   0.19105075  0.81040960  0.49998936
   0.19168043  0.95390467  0.50033653
   0.33493676  0.09819300  0.50057410
   0.33620039  0.24241863  0.50161429
   0.33172430  0.52182837  0.50120402
   0.33701499  0.67001416  0.50054037
   0.33316801  0.81011426  0.49991609
   0.33382597  0.95373354  0.49990789
   0.47690370  0.09634110  0.50014715
   0.47798653  0.24143682  0.50073182
   0.47229593  0.80576474  0.50052887
   0.47614342  0.95250486  0.50005747
   0.61883433  0.09459780  0.50015420
   0.62011652  0.23866801  0.50015226
   0.61857220  0.80874335  0.50115384
   0.61771505  0.95006803  0.50070521
   0.76117859  0.09355958  0.50044078
   0.76205661  0.23722579  0.50000718
   0.76166384  0.38059447  0.50029588
   0.75996049  0.52461808  0.50146008
   0.76279199  0.66917153  0.50274714
   0.76136141  0.80426790  0.50275619
   0.76072087  0.94957882  0.50145271
   0.90387390  0.09382878  0.50056656
   0.90414791  0.23731066  0.50009710
   0.90443343  0.38087060  0.50009269
   0.90453611  0.52403833  0.50068614
   0.90490628  0.66658289  0.50149173
   0.90621182  0.81004734  0.50193993
   0.90468003  0.95157951  0.50140522
   0.46734174  0.35979442  0.50011624
   0.40444306  0.55798289  0.49848117
   0.64301315  0.53807503  0.49872177
   0.58148615  0.73600778  0.50021972
   0.55777972  0.58828415  0.50452872
   0.47184945  0.49182906  0.49788078
   0.42692242  0.71529494  0.50103704
   0.71654141  0.71454174  0.50376035
   0.33152392  0.38144581  0.50312632
   0.62103726  0.38023656  0.50134051
   0.52248332  0.53838790  0.46434287
Direct configuration=     9
   0.00023265  0.00015103  0.50115321
   0.99941194  0.14232724  0.50055256
   0.99944826  0.28548120  0.50030056
   0.99985220  0.42860613  0.50026127
   0.99999078  0.57160287  0.50045785
   0.00060358  0.71464165  0.50092960
   0.00156954  0.85821358  0.50126106
   0.14423804  0.00190395  0.50075961
   0.14352464  0.14422717  0.50094761
   0.14185413  0.28567698  0.50106372
   0.14294109  0.42909303  0.50083370
   0.14327359  0.57161470  0.50040622
   0.14344766  0.71471783  0.50009639
   0.14383507  0.85830599  0.50028722
   0.28689788  0.00208672  0.50016856
   0.28744364  0.14622541  0.50116551
   0.28690454  0.29161282  0.50209398