 running   50 mpi-ranks, on    1 nodes
 each image running on   10 cores
 distrk:  each k-point on    5 cores,    2 groups
 distr:  one band on    1 cores,    5 groups
 vasp.6.4.2 20Jul23 (build Aug 26 2025 15:10:52) complex                        
  
 POSCAR found type information on POSCAR C H F O 
 01/POSCAR found :  4 types and      99 ions
 Reading from existing POTCAR
 scaLAPACK will be used
 -----------------------------------------------------------------------------
|                                                                             |
|           W    W    AA    RRRRR   N    N  II  N    N   GGGG   !!!           |
|           W    W   A  A   R    R  NN   N  II  NN   N  G    G  !!!           |
|           W    W  A    A  R    R  N N  N  II  N N  N  G       !!!           |
|           W WW W  AAAAAA  RRRRR   N  N N  II  N  N N  G  GGG   !            |
|           WW  WW  A    A  R   R   N   NN  II  N   NN  G    G                |
|           W    W  A    A  R    R  N    N  II  N    N   GGGG   !!!           |
|                                                                             |
|     For optimal performance we recommend to set                             |
|       NCORE = 2 up to number-of-cores-per-socket                            |
|     NCORE specifies how many cores store one orbital (NPAR=cpu/NCORE).      |
|     This setting can greatly improve the performance of VASP for DFT.       |
|     The default, NCORE=1 might be grossly inefficient on modern             |
|     multi-core architectures or massively parallel machines. Do your        |
|     own testing! More info at https://www.vasp.at/wiki/index.php/NCORE      |
|     Unfortunately you need to use the default for GW and RPA                |
|     calculations (for HF NCORE is supported but not extensively tested      |
|     yet).                                                                   |
|                                                                             |
 -----------------------------------------------------------------------------

 Reading from existing POTCAR
 LDA part: xc-table for Pade appr. of Perdew
 POSCAR found type information on POSCAR C H F O 
 00/POSCAR found :  4 types and      99 ions
 POSCAR found type information on POSCAR C H F O 
 06/POSCAR found :  4 types and      99 ions
 Jacobian:    33.7825262909836     
 POSCAR found type information on POSCAR C H F O 
 00/POSCAR found :  4 types and      99 ions
 POSCAR found type information on POSCAR C H F O 
 06/POSCAR found :  4 types and      99 ions
 POSCAR, INCAR and KPOINTS ok, starting setup
 FFT: planning ... GRIDC
 FFT: planning ... GRID_SOFT
 FFT: planning ... GRID
 WAVECAR not read
 entering main loop
       N       E                     dE             d eps       ncg     rms          rms(c)
DAV:   1     0.356760263950E+04    0.35676E+04   -0.14926E+05  4810   0.107E+03
DAV:   2    -0.221824313202E+03   -0.37894E+04   -0.35724E+04  6730   0.266E+02
DAV:   3    -0.874574853326E+03   -0.65275E+03   -0.64979E+03  5590   0.115E+02
DAV:   4    -0.896544105421E+03   -0.21969E+02   -0.21880E+02  5630   0.261E+01
DAV:   5    -0.897199220271E+03   -0.65511E+00   -0.65425E+00  6370   0.391E+00    0.526E+01
DAV:   6    -0.878500994269E+03    0.18698E+02   -0.23447E+01  5520   0.974E+00    0.341E+01
DAV:   7    -0.856589128172E+03    0.21912E+02   -0.36931E+01  5370   0.997E+00    0.208E+01
DAV:   8    -0.851560324454E+03    0.50288E+01   -0.22030E+01  5450   0.712E+00    0.870E+00
DAV:   9    -0.851699927708E+03   -0.13960E+00   -0.10742E+00  5430   0.195E+00    0.393E+00
DAV:  10    -0.851513563007E+03    0.18636E+00   -0.58934E-01  5300   0.137E+00    0.111E+00
DAV:  11    -0.851499138213E+03    0.14425E-01   -0.10335E-01  5250   0.617E-01    0.290E-01
DAV:  12    -0.851499029447E+03    0.10877E-03   -0.14758E-02  5330   0.279E-01    0.143E-01
DAV:  13    -0.851499142947E+03   -0.11350E-03   -0.19604E-03  5560   0.875E-02    0.112E-01
DAV:  14    -0.851499142917E+03    0.30173E-07   -0.58366E-04  5280   0.536E-02    0.566E-02
DAV:  15    -0.851499208756E+03   -0.65840E-04   -0.13524E-04  5230   0.244E-02    0.341E-02
DAV:  16    -0.851499214305E+03   -0.55491E-05   -0.82872E-05  5180   0.259E-02    0.123E-02
DAV:  17    -0.851499214173E+03    0.13191E-06   -0.14218E-05  5300   0.905E-03    0.896E-03
DAV:  18    -0.851499213497E+03    0.67602E-06   -0.88193E-06  5020   0.863E-03
   1 F= -.85941098E+03 E0= -.85941098E+03  d E =-.859411E+03  mag=     0.0001
quench:  g(F)=  0.000E+00 g(S)=  0.000E+00 dE (1.order)= 0.000E+00
 bond charge predicted
       N       E                     dE             d eps       ncg     rms          rms(c)
DAV:   1    -0.851499279741E+03   -0.65568E-04   -0.40891E-03  4720   0.106E-01    0.116E-02
DAV:   2    -0.851499286680E+03   -0.69386E-05   -0.95193E-05  4810   0.147E-02    0.952E-03
DAV:   3    -0.851499285599E+03    0.10804E-05   -0.83290E-07  4080   0.182E-03    0.780E-03
DAV:   4    -0.851499286513E+03   -0.91407E-06   -0.47493E-06  3620   0.336E-03
   2 F= -.85941104E+03 E0= -.85941104E+03  d E =-.594146E-04  mag=    -0.0000
quench:  g(F)=  0.000E+00 g(S)=  0.000E+00 dE (1.order)= 0.000E+00
 bond charge predicted
       N       E                     dE             d eps       ncg     rms          rms(c)
DAV:   1    -0.851499382217E+03   -0.96618E-04   -0.11498E-02  4720   0.190E-01    0.190E-02
DAV:   2    -0.851499401823E+03   -0.19606E-04   -0.25448E-04  4650   0.252E-02    0.144E-02
DAV:   3    -0.851499400194E+03    0.16284E-05   -0.21830E-06  4590   0.303E-03    0.115E-02
DAV:   4    -0.851499404475E+03   -0.42805E-05   -0.73642E-06  4300   0.487E-03    0.234E-03
DAV:   5    -0.851499404526E+03   -0.50837E-07   -0.14010E-06  4070   0.188E-03
   3 F= -.85941114E+03 E0= -.85941114E+03  d E =-.958595E-04  mag=     0.0000
quench:  g(F)=  0.000E+00 g(S)=  0.000E+00 dE (1.order)= 0.000E+00
 bond charge predicted
       N       E                     dE             d eps       ncg     rms          rms(c)
DAV:   1    -0.851499549918E+03   -0.14544E-03   -0.21171E-02  4720   0.271E-01    0.253E-02
DAV:   2    -0.851499588953E+03   -0.39035E-04   -0.47106E-04  4660   0.359E-02    0.181E-02
DAV:   3    -0.851499587175E+03    0.17778E-05   -0.44065E-06  5170   0.435E-03    0.144E-02
DAV:   4    -0.851499592372E+03   -0.51972E-05   -0.74038E-06  4440   0.600E-03    0.285E-03
DAV:   5    -0.851499592460E+03   -0.87239E-07   -0.18390E-06  3960   0.241E-03
   4 F= -.85941130E+03 E0= -.85941130E+03  d E =-.162158E-03  mag=     0.0000
quench:  g(F)=  0.000E+00 g(S)=  0.000E+00 dE (1.order)= 0.000E+00
 bond charge predicted
       N       E                     dE             d eps       ncg     rms          rms(c)
DAV:   1    -0.851499716517E+03   -0.12415E-03   -0.35763E-02  4720   0.355E-01    0.325E-02
DAV:   2    -0.851499781633E+03   -0.65116E-04   -0.78602E-04  4660   0.465E-02    0.234E-02
DAV:   3    -0.851499779087E+03    0.25468E-05   -0.75368E-06  5560   0.569E-03    0.186E-02
DAV:   4    -0.851499787205E+03   -0.81183E-05   -0.11786E-05  4440   0.766E-03    0.366E-03
DAV:   5    -0.851499787428E+03   -0.22253E-06   -0.31613E-06  4700   0.312E-03
   5 F= -.85941146E+03 E0= -.85941146E+03  d E =-.164895E-03  mag=     0.0000
quench:  g(F)=  0.000E+00 g(S)=  0.000E+00 dE (1.order)= 0.000E+00
 bond charge predicted
       N       E                     dE             d eps       ncg     rms          rms(c)
DAV:   1    -0.851499911025E+03   -0.12382E-03   -0.48376E-02  4720   0.408E-01    0.388E-02
DAV:   2    -0.851499992647E+03   -0.81622E-04   -0.10323E-03  4640   0.538E-02    0.287E-02
DAV:   3    -0.851499987398E+03    0.52488E-05   -0.10905E-05  5580   0.688E-03    0.226E-02
DAV:   4    -0.851500000517E+03   -0.13119E-04   -0.22830E-05  4530   0.962E-03    0.454E-03
DAV:   5    -0.851500000845E+03   -0.32794E-06   -0.51753E-06  5060   0.390E-03
   6 F= -.85941163E+03 E0= -.85941163E+03  d E =-.169620E-03  mag=     0.0000
quench:  g(F)=  0.000E+00 g(S)=  0.000E+00 dE (1.order)= 0.000E+00
 bond charge predicted
       N       E                     dE             d eps       ncg     rms          rms(c)
DAV:   1    -0.851500141057E+03   -0.14054E-03   -0.64766E-02  4680   0.465E-01    0.459E-02
DAV:   2    -0.851500244199E+03   -0.10314E-03   -0.13635E-03  4640   0.617E-02    0.350E-02
DAV:   3    -0.851500235729E+03    0.84708E-05   -0.15564E-05  5570   0.814E-03    0.276E-02
DAV:   4    -0.851500255131E+03   -0.19402E-04   -0.38875E-05  4560   0.117E-02    0.551E-03
DAV:   5    -0.851500255679E+03   -0.54816E-06   -0.80368E-06  5160   0.468E-03
   7 F= -.85941183E+03 E0= -.85941183E+03  d E =-.197443E-03  mag=    -0.0000
quench:  g(F)=  0.000E+00 g(S)=  0.000E+00 dE (1.order)= 0.000E+00
 bond charge predicted
       N       E                     dE             d eps       ncg     rms          rms(c)
DAV:   1    -0.851500428641E+03   -0.17351E-03   -0.84348E-02  4640   0.540E-01    0.549E-02
DAV:   2    -0.851500556986E+03   -0.12834E-03   -0.17261E-03  4640   0.718E-02    0.422E-02
DAV:   3    -0.851500547405E+03    0.95815E-05   -0.23175E-05  5530   0.101E-02    0.326E-02
DAV:   4    -0.851500569891E+03   -0.22487E-04   -0.45818E-05  4740   0.136E-02    0.666E-03
DAV:   5    -0.851500570667E+03   -0.77506E-06   -0.11034E-05  5120   0.570E-03    0.399E-03
DAV:   6    -0.851500571222E+03   -0.55538E-06   -0.81507E-07  3160   0.179E-03
   8 F= -.85941208E+03 E0= -.85941208E+03  d E =-.246607E-03  mag=     0.0000
quench:  g(F)=  0.000E+00 g(S)=  0.000E+00 dE (1.order)= 0.000E+00
 bond charge predicted
       N       E                     dE             d eps       ncg     rms          rms(c)
DAV:   1    -0.851500782604E+03   -0.21194E-03   -0.11622E-01  4600   0.643E-01    0.653E-02
DAV:   2    -0.851500954220E+03   -0.17162E-03   -0.23062E-03  4620   0.849E-02    0.513E-02
DAV:   3    -0.851500939857E+03    0.14364E-04   -0.35323E-05  5540   0.125E-02    0.392E-02
DAV:   4    -0.851500964295E+03   -0.24438E-04   -0.63179E-05  4920   0.164E-02    0.818E-03
DAV:   5    -0.851500965004E+03   -0.70980E-06   -0.16744E-05  5080   0.713E-03    0.452E-03
DAV:   6    -0.851500965646E+03   -0.64212E-06   -0.11199E-06  3220   0.207E-03
   9 F= -.85941240E+03 E0= -.85941240E+03  d E =-.319219E-03  mag=    -0.0000
quench:  g(F)=  0.000E+00 g(S)=  0.000E+00 dE (1.order)= 0.000E+00
 bond charge predicted
       N       E                     dE             d eps       ncg     rms          rms(c)
DAV:   1    -0.851501360794E+03   -0.39579E-03   -0.16905E-01  4580   0.735E-01    0.817E-02
DAV:   2    -0.851501588734E+03   -0.22794E-03   -0.31979E-03  4580   0.972E-02    0.660E-02
DAV:   3    -0.851501561801E+03    0.26933E-04   -0.52948E-05  5580   0.151E-02    0.503E-02
DAV:   4    -0.851501597168E+03   -0.35367E-04   -0.11635E-04  5020   0.202E-02    0.105E-02
DAV:   5    -0.851501599392E+03   -0.22238E-05   -0.25943E-05  5140   0.845E-03    0.627E-03
DAV:   6    -0.851501600714E+03   -0.13217E-05   -0.20407E-06  3780   0.271E-03    0.333E-03
DAV:   7    -0.851501600918E+03   -0.20400E-06   -0.70251E-07  3520   0.150E-03
  10 F= -.85941291E+03 E0= -.85941291E+03  d E =-.509709E-03  mag=     0.0000
quench:  g(F)=  0.000E+00 g(S)=  0.000E+00 dE (1.order)= 0.000E+00
 bond charge predicted
       N       E                     dE             d eps       ncg     rms          rms(c)
DAV:   1    -0.851502123869E+03   -0.52316E-03   -0.26253E-01  4580   0.904E-01    0.103E-01
DAV:   2    -0.851502476759E+03   -0.35289E-03   -0.48849E-03  4630   0.120E-01    0.844E-02
DAV:   3    -0.851502433576E+03    0.43182E-04   -0.80796E-05  5540   0.186E-02    0.645E-02
DAV:   4    -0.851502481548E+03   -0.47971E-04   -0.19946E-04  5130   0.261E-02    0.130E-02
DAV:   5    -0.851502484084E+03   -0.25365E-05   -0.42398E-05  5120   0.108E-02    0.819E-03
DAV:   6    -0.851502486299E+03   -0.22148E-05   -0.36236E-06  4180   0.361E-03    0.418E-03
DAV:   7    -0.851502486495E+03   -0.19607E-06   -0.10944E-06  3680   0.179E-03
  11 F= -.85941361E+03 E0= -.85941361E+03  d E =-.701421E-03  mag=    -0.0000
quench:  g(F)=  0.000E+00 g(S)=  0.000E+00 dE (1.order)= 0.000E+00
 bond charge predicted
       N       E                     dE             d eps       ncg     rms          rms(c)
DAV:   1    -0.851503097844E+03   -0.61154E-03   -0.36397E-01  4560   0.110E+00    0.125E-01
DAV:   2    -0.851503577902E+03   -0.48006E-03   -0.66575E-03  4710   0.146E-01    0.103E-01
DAV:   3    -0.851503524602E+03    0.53300E-04   -0.12521E-04  5440   0.237E-02    0.771E-02
DAV:   4    -0.851503587029E+03   -0.62427E-04   -0.23405E-04  5250   0.306E-02    0.161E-02
DAV:   5    -0.851503590020E+03   -0.29906E-05   -0.59523E-05  5100   0.133E-02    0.911E-03
DAV:   6    -0.851503592035E+03   -0.20153E-05   -0.53103E-06  4390   0.430E-03    0.476E-03
DAV:   7    -0.851503592234E+03   -0.19899E-06   -0.11920E-06  3740   0.200E-03
  12 F= -.85941448E+03 E0= -.85941448E+03  d E =-.876678E-03  mag=    -0.0000
quench:  g(F)=  0.000E+00 g(S)=  0.000E+00 dE (1.order)= 0.000E+00
 bond charge predicted
       N       E                     dE             d eps       ncg     rms          rms(c)
DAV:   1    -0.851503952584E+03   -0.36055E-03   -0.74098E-01  4560   0.146E+00    0.170E-01
DAV:   2    -0.851504993398E+03   -0.10408E-02   -0.13896E-02  4740   0.193E-01    0.141E-01
DAV:   3    -0.851504860863E+03    0.13253E-03   -0.22502E-04  5580   0.302E-02    0.110E-01
DAV:   4    -0.851504927108E+03   -0.66244E-04   -0.64581E-04  5350   0.441E-02    0.227E-02
DAV:   5    -0.851504938717E+03   -0.11609E-04   -0.12415E-04  5120   0.175E-02    0.146E-02
DAV:   6    -0.851504948074E+03   -0.93571E-05   -0.10844E-05  4500   0.592E-03    0.724E-03
DAV:   7    -0.851504948868E+03   -0.79418E-06   -0.35955E-06  3860   0.311E-03
  13 F= -.85941550E+03 E0= -.85941550E+03  d E =-.101370E-02  mag=    -0.0000
quench:  g(F)=  0.000E+00 g(S)=  0.000E+00 dE (1.order)= 0.000E+00
 bond charge predicted
       N       E                     dE             d eps       ncg     rms          rms(c)
DAV:   1    -0.851504730639E+03    0.21743E-03   -0.76182E-01  4560   0.166E+00    0.189E-01
DAV:   2    -0.851505728225E+03   -0.99759E-03   -0.14106E-02  4860   0.219E-01    0.161E-01
DAV:   3    -0.851505602224E+03    0.12600E-03   -0.34695E-04  5720   0.391E-02    0.119E-01
DAV:   4    -0.851505677429E+03   -0.75205E-04   -0.45225E-04  5160   0.461E-02    0.285E-02
DAV:   5    -0.851505682670E+03   -0.52409E-05   -0.16147E-04  4960   0.216E-02    0.130E-02
DAV:   6    -0.851505685254E+03   -0.25841E-05   -0.12000E-05  5080   0.626E-03    0.715E-03
DAV:   7    -0.851505685556E+03   -0.30235E-06   -0.20187E-06  4200   0.312E-03
  14 F= -.85941585E+03 E0= -.85941585E+03  d E =-.350523E-03  mag=    -0.0000
quench:  g(F)=  0.000E+00 g(S)=  0.000E+00 dE (1.order)= 0.000E+00
 bond charge predicted
       N       E                     dE             d eps       ncg     rms          rms(c)
DAV:   1    -0.851506795826E+03   -0.11106E-02   -0.87887E-02  4730   0.415E-01    0.601E-02
DAV:   2    -0.851506968583E+03   -0.17276E-03   -0.24417E-03  5020   0.616E-02    0.570E-02
DAV:   3    -0.851506937437E+03    0.31146E-04   -0.32037E-05  5840   0.957E-03    0.492E-02
DAV:   4    -0.851506922878E+03    0.14559E-04   -0.11981E-04  4690   0.166E-02    0.161E-02
DAV:   5    -0.851506932682E+03   -0.98034E-05   -0.35211E-05  5040   0.719E-03    0.746E-03
DAV:   6    -0.851506935221E+03   -0.25392E-05   -0.25980E-06  3400   0.310E-03    0.299E-03
DAV:   7    -0.851506935598E+03   -0.37686E-06   -0.39183E-07  3420   0.132E-03
  15 F= -.85941704E+03 E0= -.85941704E+03  d E =-.118972E-02  mag=     0.0000
quench:  g(F)=  0.000E+00 g(S)=  0.000E+00 dE (1.order)= 0.000E+00
 bond charge predicted
       N       E                     dE             d eps       ncg     rms          rms(c)
DAV:   1    -0.851506956650E+03   -0.21429E-04   -0.80148E-05  4640   0.174E-02    0.233E-03
DAV:   2    -0.851506956729E+03   -0.78995E-07   -0.14818E-06  3500   0.234E-03
  16 F= -.85941706E+03 E0= -.85941706E+03  d E =-.175485E-04  mag=    -0.0000
quench:  g(F)=  0.000E+00 g(S)=  0.000E+00 dE (1.order)= 0.000E+00
 bond charge predicted
       N       E                     dE             d eps       ncg     rms          rms(c)
DAV:   1    -0.851506996403E+03   -0.39753E-04   -0.31327E-04  4640   0.342E-02    0.510E-03
DAV:   2    -0.851506996647E+03   -0.24365E-06   -0.56218E-06  4770   0.441E-03
  17 F= -.85941709E+03 E0= -.85941709E+03  d E =-.325671E-04  mag=     0.0000
quench:  g(F)=  0.000E+00 g(S)=  0.000E+00 dE (1.order)= 0.000E+00
 bond charge predicted
       N       E                     dE             d eps       ncg     rms          rms(c)
DAV:   1    -0.851507052269E+03   -0.55866E-04   -0.71117E-04  4600   0.507E-02    0.831E-03
DAV:   2    -0.851507052712E+03   -0.44303E-06   -0.11910E-05  4880   0.642E-03    0.703E-03
DAV:   3    -0.851507052662E+03    0.49928E-07   -0.54987E-07  3240   0.181E-03
  18 F= -.85941713E+03 E0= -.85941713E+03  d E =-.445394E-04  mag=     0.0000
quench:  g(F)=  0.000E+00 g(S)=  0.000E+00 dE (1.order)= 0.000E+00
 bond charge predicted
       N       E                     dE             d eps       ncg     rms          rms(c)
DAV:   1    -0.851507123616E+03   -0.70904E-04   -0.12994E-03  4600   0.667E-02    0.809E-03
DAV:   2    -0.851507124918E+03   -0.13021E-05   -0.20760E-05  4680   0.822E-03    0.677E-03
DAV:   3    -0.851507124853E+03    0.64720E-07   -0.40801E-07  3350   0.151E-03
  19 F= -.85941719E+03 E0= -.85941719E+03  d E =-.562196E-04  mag=    -0.0000
quench:  g(F)=  0.000E+00 g(S)=  0.000E+00 dE (1.order)= 0.000E+00
 bond charge predicted
       N       E                     dE             d eps       ncg     rms          rms(c)
DAV:   1    -0.851507212189E+03   -0.87272E-04   -0.21503E-03  4580   0.834E-02    0.993E-03
DAV:   2    -0.851507214269E+03   -0.20794E-05   -0.34262E-05  4620   0.103E-02    0.828E-03
DAV:   3    -0.851507214085E+03    0.18355E-06   -0.65402E-07  3710   0.181E-03
  20 F= -.85941726E+03 E0= -.85941726E+03  d E =-.685984E-04  mag=    -0.0000
quench:  g(F)=  0.000E+00 g(S)=  0.000E+00 dE (1.order)= 0.000E+00
 bond charge predicted
       N       E                     dE             d eps       ncg     rms          rms(c)
DAV:   1    -0.851507319150E+03   -0.10488E-03   -0.32479E-03  4580   0.995E-02    0.121E-02
DAV:   2    -0.851507322149E+03   -0.29994E-05   -0.51827E-05  4600   0.122E-02    0.101E-02
DAV:   3    -0.851507321822E+03    0.32710E-06   -0.93743E-07  3890   0.210E-03
  21 F= -.85941734E+03 E0= -.85941734E+03  d E =-.820278E-04  mag=    -0.0000
quench:  g(F)=  0.000E+00 g(S)=  0.000E+00 dE (1.order)= 0.000E+00
 bond charge predicted
       N       E                     dE             d eps       ncg     rms          rms(c)
DAV:   1    -0.851507455698E+03   -0.13355E-03   -0.56361E-03  4580   0.128E-01    0.157E-02
DAV:   2    -0.851507460836E+03   -0.51378E-05   -0.90675E-05  4600   0.158E-02    0.131E-02
DAV:   3    -0.851507460133E+03    0.70324E-06   -0.16233E-06  4090   0.268E-03
  22 F= -.85941744E+03 E0= -.85941744E+03  d E =-.104162E-03  mag=    -0.0000
quench:  g(F)=  0.000E+00 g(S)=  0.000E+00 dE (1.order)= 0.000E+00
 bond charge predicted
       N       E                     dE             d eps       ncg     rms          rms(c)
DAV:   1    -0.851507627608E+03   -0.16677E-03   -0.91063E-03  4560   0.163E-01    0.202E-02
DAV:   2    -0.851507635703E+03   -0.80952E-05   -0.14591E-04  4600   0.200E-02    0.168E-02
DAV:   3    -0.851507634611E+03    0.10923E-05   -0.26824E-06  4340   0.337E-03    0.126E-02
DAV:   4    -0.851507638955E+03   -0.43438E-05   -0.67628E-06  4120   0.481E-03    0.251E-03
DAV:   5    -0.851507638989E+03   -0.34073E-07   -0.14882E-06  3830   0.203E-03
  23 F= -.85941758E+03 E0= -.85941758E+03  d E =-.135577E-03  mag=    -0.0000
quench:  g(F)=  0.000E+00 g(S)=  0.000E+00 dE (1.order)= 0.000E+00
 bond charge predicted
       N       E                     dE             d eps       ncg     rms          rms(c)
DAV:   1    -0.851507843862E+03   -0.20491E-03   -0.13965E-02  4560   0.204E-01    0.242E-02
DAV:   2    -0.851507858400E+03   -0.14538E-04   -0.23842E-04  4520   0.260E-02    0.201E-02
DAV:   3    -0.851507855942E+03    0.24582E-05   -0.48010E-06  4960   0.449E-03    0.151E-02
DAV:   4    -0.851507860565E+03   -0.46231E-05   -0.10285E-05  4280   0.609E-03    0.326E-03
DAV:   5    -0.851507860694E+03   -0.12905E-06   -0.25454E-06  4160   0.265E-03
  24 F= -.85941775E+03 E0= -.85941775E+03  d E =-.168780E-03  mag=    -0.0000
quench:  g(F)=  0.000E+00 g(S)=  0.000E+00 dE (1.order)= 0.000E+00
 bond charge predicted
       N       E                     dE             d eps       ncg     rms          rms(c)
DAV:   1    -0.851508114608E+03   -0.25404E-03   -0.20586E-02  4560   0.252E-01    0.297E-02
DAV:   2    -0.851508135793E+03   -0.21185E-04   -0.34590E-04  4500   0.320E-02    0.247E-02
DAV:   3    -0.851508132379E+03    0.34136E-05   -0.74081E-06  5120   0.563E-03    0.183E-02
DAV:   4    -0.851508138862E+03   -0.64832E-05   -0.13675E-05  4400   0.722E-03    0.394E-03
DAV:   5    -0.851508139032E+03   -0.16995E-06   -0.39077E-06  4500   0.328E-03
  25 F= -.85941796E+03 E0= -.85941796E+03  d E =-.215237E-03  mag=     0.0000
quench:  g(F)=  0.000E+00 g(S)=  0.000E+00 dE (1.order)= 0.000E+00
 bond charge predicted
       N       E                     dE             d eps       ncg     rms          rms(c)
DAV:   1    -0.851508446874E+03   -0.30801E-03   -0.31767E-02  4560   0.312E-01    0.370E-02
DAV:   2    -0.851508479256E+03   -0.32382E-04   -0.53177E-04  4510   0.398E-02    0.308E-02
DAV:   3    -0.851508474022E+03    0.52345E-05   -0.11422E-05  5240   0.700E-03    0.228E-02
DAV:   4    -0.851508484279E+03   -0.10257E-04   -0.21197E-05  4410   0.894E-03    0.484E-03
DAV:   5    -0.851508484518E+03   -0.23874E-06   -0.61069E-06  5120   0.410E-03
  26 F= -.85941823E+03 E0= -.85941823E+03  d E =-.268179E-03  mag=    -0.0000
quench:  g(F)=  0.000E+00 g(S)=  0.000E+00 dE (1.order)= 0.000E+00
 bond charge predicted
       N       E                     dE             d eps       ncg     rms          rms(c)
DAV:   1    -0.851508845444E+03   -0.36116E-03   -0.51293E-02  4560   0.390E-01    0.465E-02
DAV:   2    -0.851508898740E+03   -0.53296E-04   -0.86679E-04  4500   0.498E-02    0.388E-02
DAV:   3    -0.851508889832E+03    0.89080E-05   -0.17518E-05  5540   0.861E-03    0.290E-02
DAV:   4    -0.851508906738E+03   -0.16906E-04   -0.36949E-05  4420   0.114E-02    0.603E-03
DAV:   5    -0.851508907169E+03   -0.43160E-06   -0.96632E-06  5160   0.515E-03
  27 F= -.85941856E+03 E0= -.85941856E+03  d E =-.323696E-03  mag=     0.0000
quench:  g(F)=  0.000E+00 g(S)=  0.000E+00 dE (1.order)= 0.000E+00
 bond charge predicted
       N       E                     dE             d eps       ncg     rms          rms(c)
DAV:   1    -0.851509312396E+03   -0.40566E-03   -0.79408E-02  4560   0.485E-01    0.577E-02
DAV:   2    -0.851509399621E+03   -0.87225E-04   -0.13667E-03  4500   0.623E-02    0.479E-02
DAV:   3    -0.851509386722E+03    0.12900E-04   -0.26449E-05  5540   0.106E-02    0.360E-02
DAV:   4    -0.851509410643E+03   -0.23922E-04   -0.58122E-05  4560   0.142E-02    0.744E-03
DAV:   5    -0.851509411320E+03   -0.67705E-06   -0.14399E-05  5160   0.631E-03    0.438E-03
DAV:   6    -0.851509412086E+03   -0.76507E-06   -0.99827E-07  3380   0.184E-03
  28 F= -.85941894E+03 E0= -.85941894E+03  d E =-.382013E-03  mag=    -0.0000
quench:  g(F)=  0.000E+00 g(S)=  0.000E+00 dE (1.order)= 0.000E+00
 bond charge predicted
       N       E                     dE             d eps       ncg     rms          rms(c)
DAV:   1    -0.851509878661E+03   -0.46734E-03   -0.11577E-01  4560   0.591E-01    0.695E-02
DAV:   2    -0.851510009314E+03   -0.13065E-03   -0.19911E-03  4530   0.760E-02    0.578E-02
DAV:   3    -0.851509989989E+03    0.19325E-04   -0.39291E-05  5500   0.129E-02    0.433E-02
DAV:   4    -0.851510019265E+03   -0.29277E-04   -0.84952E-05  4920   0.172E-02    0.897E-03
DAV:   5    -0.851510020010E+03   -0.74475E-06   -0.21264E-05  5140   0.778E-03    0.511E-03
DAV:   6    -0.851510021176E+03   -0.11658E-05   -0.13109E-06  3500   0.212E-03    0.280E-03
DAV:   7    -0.851510021251E+03   -0.75401E-07   -0.43898E-07  3560   0.118E-03
  29 F= -.85941940E+03 E0= -.85941940E+03  d E =-.459893E-03  mag=    -0.0000
quench:  g(F)=  0.000E+00 g(S)=  0.000E+00 dE (1.order)= 0.000E+00
 bond charge predicted
       N       E                     dE             d eps       ncg     rms          rms(c)
DAV:   1    -0.851510539971E+03   -0.51879E-03   -0.17231E-01  4560   0.729E-01    0.846E-02
DAV:   2    -0.851510740482E+03   -0.20051E-03   -0.29855E-03  4580   0.942E-02    0.703E-02
DAV:   3    -0.851510712208E+03    0.28274E-04   -0.58914E-05  5400   0.160E-02    0.526E-02
DAV:   4    -0.851510750440E+03   -0.38233E-04   -0.12315E-04  4980   0.210E-02    0.110E-02
DAV:   5    -0.851510751640E+03   -0.11993E-05   -0.31075E-05  5120   0.938E-03    0.619E-03
DAV:   6    -0.851510753292E+03   -0.16527E-05   -0.20620E-06  3740   0.262E-03    0.334E-03
DAV:   7    -0.851510753441E+03   -0.14847E-06   -0.60612E-07  3520   0.140E-03
  30 F= -.85941995E+03 E0= -.85941995E+03  d E =-.553382E-03  mag=    -0.0000
quench:  g(F)=  0.000E+00 g(S)=  0.000E+00 dE (1.order)= 0.000E+00
 bond charge predicted
       N       E                     dE             d eps       ncg     rms          rms(c)
DAV:   1    -0.851511269139E+03   -0.51585E-03   -0.26725E-01  4560   0.917E-01    0.104E-01
DAV:   2    -0.851511603632E+03   -0.33449E-03   -0.47845E-03  4600   0.120E-01    0.858E-02
DAV:   3    -0.851511561771E+03    0.41862E-04   -0.89125E-05  5500   0.197E-02    0.647E-02
DAV:   4    -0.851511613777E+03   -0.52006E-04   -0.18979E-04  5080   0.264E-02    0.136E-02
DAV:   5    -0.851511616149E+03   -0.23722E-05   -0.46267E-05  5060   0.115E-02    0.769E-03
DAV:   6    -0.851511618750E+03   -0.26017E-05   -0.32788E-06  4180   0.328E-03    0.411E-03
DAV:   7    -0.851511618975E+03   -0.22409E-06   -0.90137E-07  3600   0.170E-03
  31 F= -.85942060E+03 E0= -.85942060E+03  d E =-.649915E-03  mag=    -0.0000
quench:  g(F)=  0.000E+00 g(S)=  0.000E+00 dE (1.order)= 0.000E+00
 bond charge predicted
       N       E                     dE             d eps       ncg     rms          rms(c)
DAV:   1    -0.851512086473E+03   -0.46772E-03   -0.39571E-01  4560   0.112E+00    0.126E-01
DAV:   2    -0.851512598318E+03   -0.51184E-03   -0.71721E-03  4640   0.147E-01    0.103E-01
DAV:   3    -0.851512540332E+03    0.57986E-04   -0.13383E-04  5520   0.241E-02    0.779E-02
DAV:   4    -0.851512605253E+03   -0.64921E-04   -0.27124E-04  5100   0.318E-02    0.167E-02
DAV:   5    -0.851512609837E+03   -0.45834E-05   -0.67073E-05  5100   0.138E-02    0.926E-03
DAV:   6    -0.851512613290E+03   -0.34531E-05   -0.49935E-06  4360   0.401E-03    0.493E-03
DAV:   7    -0.851512613671E+03   -0.38133E-06   -0.12638E-06  3600   0.202E-03
  32 F= -.85942135E+03 E0= -.85942135E+03  d E =-.746564E-03  mag=     0.0000
quench:  g(F)=  0.000E+00 g(S)=  0.000E+00 dE (1.order)= 0.000E+00
 bond charge predicted
       N       E                     dE             d eps       ncg     rms          rms(c)
DAV:   1    -0.851513003460E+03   -0.39017E-03   -0.56035E-01  4560   0.135E+00    0.149E-01
DAV:   2    -0.851513731473E+03   -0.72801E-03   -0.10122E-02  4680   0.177E-01    0.122E-01
DAV:   3    -0.851513652130E+03    0.79343E-04   -0.19758E-04  5480   0.292E-02    0.922E-02
DAV:   4    -0.851513730369E+03   -0.78240E-04   -0.37144E-04  5280   0.378E-02    0.205E-02
DAV:   5    -0.851513736993E+03   -0.66231E-05   -0.90483E-05  5120   0.162E-02    0.112E-02
DAV:   6    -0.851513741202E+03   -0.42093E-05   -0.81645E-06  4480   0.510E-03    0.576E-03
DAV:   7    -0.851513741772E+03   -0.56998E-06   -0.17657E-06  3760   0.243E-03
  33 F= -.85942220E+03 E0= -.85942220E+03  d E =-.853507E-03  mag=    -0.0000
quench:  g(F)=  0.000E+00 g(S)=  0.000E+00 dE (1.order)= 0.000E+00
 bond charge predicted
       N       E                     dE             d eps       ncg     rms          rms(c)
DAV:   1    -0.851513910150E+03   -0.16895E-03   -0.82046E-01  4560   0.163E+00    0.180E-01
DAV:   2    -0.851515018939E+03   -0.11088E-02   -0.15104E-02  4660   0.214E-01    0.148E-01
DAV:   3    -0.851514893765E+03    0.12517E-03   -0.29139E-04  5580   0.354E-02    0.113E-01
DAV:   4    -0.851514980162E+03   -0.86398E-04   -0.58516E-04  5320   0.475E-02    0.251E-02
DAV:   5    -0.851514990110E+03   -0.99475E-05   -0.14121E-04  5120   0.200E-02    0.141E-02
DAV:   6    -0.851514996885E+03   -0.67754E-05   -0.12126E-05  4700   0.621E-03    0.722E-03
DAV:   7    -0.851514997538E+03   -0.65281E-06   -0.25500E-06  4020   0.284E-03
  34 F= -.85942312E+03 E0= -.85942312E+03  d E =-.922519E-03  mag=    -0.0000
quench:  g(F)=  0.000E+00 g(S)=  0.000E+00 dE (1.order)= 0.000E+00
 bond charge predicted
       N       E                     dE             d eps       ncg     rms          rms(c)
DAV:   1    -0.851514663045E+03    0.33384E-03   -0.10326E+00  4560   0.187E+00    0.207E-01
DAV:   2    -0.851516008388E+03   -0.13453E-02   -0.18726E-02  4780   0.246E-01    0.172E-01
DAV:   3    -0.851515837189E+03    0.17120E-03   -0.46236E-04  5660   0.443E-02    0.130E-01
DAV:   4    -0.851515899337E+03   -0.62148E-04   -0.62756E-04  5220   0.519E-02    0.336E-02
DAV:   5    -0.851515925002E+03   -0.25665E-04   -0.17608E-04  5080   0.218E-02    0.175E-02
DAV:   6    -0.851515929652E+03   -0.46498E-05   -0.21099E-05  4820   0.829E-03    0.848E-03
DAV:   7    -0.851515931015E+03   -0.13632E-05   -0.42942E-06  4440   0.371E-03    0.471E-03
DAV:   8    -0.851515931168E+03   -0.15306E-06   -0.12542E-06  3420   0.222E-03
  35 F= -.85942373E+03 E0= -.85942373E+03  d E =-.605513E-03  mag=    -0.0000
quench:  g(F)=  0.000E+00 g(S)=  0.000E+00 dE (1.order)= 0.000E+00
 bond charge predicted
       N       E                     dE             d eps       ncg     rms          rms(c)
DAV:   1    -0.851516584760E+03   -0.65374E-03   -0.29874E-02  4540   0.350E-01    0.385E-02
DAV:   2    -0.851516637528E+03   -0.52767E-04   -0.78198E-04  5280   0.523E-02    0.349E-02
DAV:   3    -0.851516624909E+03    0.12619E-04   -0.32550E-05  5880   0.111E-02    0.274E-02
DAV:   4    -0.851516614177E+03    0.10731E-04   -0.25644E-05  4660   0.110E-02    0.115E-02
DAV:   5    -0.851516614657E+03   -0.47983E-06   -0.96839E-06  4860   0.581E-03
  36 F= -.85942440E+03 E0= -.85942440E+03  d E =-.668842E-03  mag=     0.0000
quench:  g(F)=  0.000E+00 g(S)=  0.000E+00 dE (1.order)= 0.000E+00
 bond charge predicted
       N       E                     dE             d eps       ncg     rms          rms(c)
DAV:   1    -0.851516267352E+03    0.34683E-03   -0.35988E-02  4480   0.380E-01    0.417E-02
DAV:   2    -0.851516330241E+03   -0.62889E-04   -0.91798E-04  5300   0.565E-02    0.372E-02
DAV:   3    -0.851516317194E+03    0.13047E-04   -0.35586E-05  5760   0.117E-02    0.295E-02
DAV:   4    -0.851516308409E+03    0.87848E-05   -0.30612E-05  4740   0.120E-02    0.119E-02
DAV:   5    -0.851516309892E+03   -0.14830E-05   -0.10542E-05  4780   0.601E-03    0.562E-03
DAV:   6    -0.851516310278E+03   -0.38526E-06   -0.14711E-06  3140   0.262E-03
  37 F= -.85942406E+03 E0= -.85942406E+03  d E =0.333572E-03  mag=    -0.0000
quench:  g(F)=  0.000E+00 g(S)=  0.000E+00 dE (1.order)= 0.000E+00
 bond charge predicted
       N       E                     dE             d eps       ncg     rms          rms(c)
DAV:   1    -0.851516504366E+03   -0.19447E-03   -0.12482E-03  4600   0.723E-02    0.812E-03
DAV:   2    -0.851516506540E+03   -0.21740E-05   -0.33346E-05  5320   0.109E-02    0.753E-03
DAV:   3    -0.851516505850E+03    0.68951E-06   -0.13435E-06  3640   0.243E-03
  38 F= -.85942426E+03 E0= -.85942426E+03  d E =-.195605E-03  mag=    -0.0000
quench:  g(F)=  0.000E+00 g(S)=  0.000E+00 dE (1.order)= 0.000E+00
 bond charge predicted
       N       E                     dE             d eps       ncg     rms          rms(c)
DAV:   1    -0.851516733092E+03   -0.22655E-03   -0.39106E-03  4500   0.128E-01    0.159E-02
DAV:   2    -0.851516739349E+03   -0.62575E-05   -0.97249E-05  5360   0.187E-02    0.142E-02
DAV:   3    -0.851516737175E+03    0.21747E-05   -0.49116E-06  5460   0.440E-03    0.106E-02
DAV:   4    -0.851516735453E+03    0.17222E-05   -0.38242E-06  4400   0.436E-03    0.403E-03
DAV:   5    -0.851516735425E+03    0.27976E-07   -0.11547E-06  3120   0.202E-03
  39 F= -.85942449E+03 E0= -.85942449E+03  d E =-.229569E-03  mag=    -0.0000
quench:  g(F)=  0.000E+00 g(S)=  0.000E+00 dE (1.order)= 0.000E+00
 bond charge predicted
       N       E                     dE             d eps       ncg     rms          rms(c)
DAV:   1    -0.851516818367E+03   -0.82914E-04   -0.59330E-03  4500   0.158E-01    0.174E-02
DAV:   2    -0.851516829901E+03   -0.11534E-04   -0.15815E-04  5320   0.237E-02    0.155E-02
DAV:   3    -0.851516827632E+03    0.22686E-05   -0.65111E-06  5560   0.493E-03    0.122E-02
DAV:   4    -0.851516825311E+03    0.23210E-05   -0.48862E-06  4420   0.486E-03    0.512E-03
DAV:   5    -0.851516825234E+03    0.77125E-07   -0.16306E-06  3500   0.245E-03
  40 F= -.85942458E+03 E0= -.85942458E+03  d E =-.891009E-04  mag=    -0.0000
quench:  g(F)=  0.000E+00 g(S)=  0.000E+00 dE (1.order)= 0.000E+00
 bond charge predicted
       N       E                     dE             d eps       ncg     rms          rms(c)
DAV:   1    -0.851516830108E+03   -0.47971E-05   -0.98223E-06  4320   0.583E-03    0.142E-03
DAV:   2    -0.851516830115E+03   -0.62355E-08   -0.26713E-07  2560   0.985E-04
  41 F= -.85942458E+03 E0= -.85942458E+03  d E =-.467118E-05  mag=     0.0000
quench:  g(F)=  0.000E+00 g(S)=  0.000E+00 dE (1.order)= 0.000E+00
 bond charge predicted
       N       E                     dE             d eps       ncg     rms          rms(c)
DAV:   1    -0.851516839693E+03   -0.95847E-05   -0.38121E-05  4520   0.114E-02    0.171E-03
DAV:   2    -0.851516839738E+03   -0.44834E-07   -0.83261E-07  3110   0.163E-03
  42 F= -.85942459E+03 E0= -.85942459E+03  d E =-.922811E-05  mag=     0.0000
quench:  g(F)=  0.000E+00 g(S)=  0.000E+00 dE (1.order)= 0.000E+00
 bond charge predicted
       N       E                     dE             d eps       ncg     rms          rms(c)
DAV:   1    -0.851516853443E+03   -0.13750E-04   -0.85055E-05  4520   0.170E-02    0.263E-03
DAV:   2    -0.851516853506E+03   -0.62188E-07   -0.18008E-06  3520   0.236E-03
  43 F= -.85942461E+03 E0= -.85942461E+03  d E =-.131582E-04  mag=    -0.0000
quench:  g(F)=  0.000E+00 g(S)=  0.000E+00 dE (1.order)= 0.000E+00
 bond charge predicted
       N       E                     dE             d eps       ncg     rms          rms(c)
DAV:   1    -0.851516870612E+03   -0.17169E-04   -0.13984E-04  4490   0.217E-02    0.358E-03
DAV:   2    -0.851516870676E+03   -0.63956E-07   -0.29124E-06  3840   0.299E-03
  44 F= -.85942462E+03 E0= -.85942462E+03  d E =-.162762E-04  mag=    -0.0000
quench:  g(F)=  0.000E+00 g(S)=  0.000E+00 dE (1.order)= 0.000E+00
 bond charge predicted
       N       E                     dE             d eps       ncg     rms          rms(c)
DAV:   1    -0.851516890306E+03   -0.19693E-04   -0.18587E-04  4490   0.250E-02    0.433E-03
DAV:   2    -0.851516890380E+03   -0.74397E-07   -0.38822E-06  4140   0.342E-03
  45 F= -.85942464E+03 E0= -.85942464E+03  d E =-.183554E-04  mag=    -0.0000
quench:  g(F)=  0.000E+00 g(S)=  0.000E+00 dE (1.order)= 0.000E+00
 bond charge predicted
       N       E                     dE             d eps       ncg     rms          rms(c)
DAV:   1    -0.851516910973E+03   -0.20667E-04   -0.19999E-04  4490   0.260E-02    0.477E-03
DAV:   2    -0.851516911000E+03   -0.26797E-07   -0.39235E-06  4140   0.348E-03
  46 F= -.85942466E+03 E0= -.85942466E+03  d E =-.186859E-04  mag=    -0.0000
quench:  g(F)=  0.000E+00 g(S)=  0.000E+00 dE (1.order)= 0.000E+00
 bond charge predicted
       N       E                     dE             d eps       ncg     rms          rms(c)
DAV:   1    -0.851516933127E+03   -0.22154E-04   -0.24169E-04  4500   0.288E-02    0.515E-03
DAV:   2    -0.851516933175E+03   -0.48232E-07   -0.46549E-06  4460   0.384E-03
  47 F= -.85942468E+03 E0= -.85942468E+03  d E =-.191758E-04  mag=    -0.0000
quench:  g(F)=  0.000E+00 g(S)=  0.000E+00 dE (1.order)= 0.000E+00
 bond charge predicted
       N       E                     dE             d eps       ncg     rms          rms(c)
DAV:   1    -0.851516954979E+03   -0.21852E-04   -0.35738E-04  4560   0.351E-02    0.607E-03
DAV:   2    -0.851516955103E+03   -0.12413E-06   -0.65527E-06  4850   0.459E-03
  48 F= -.85942470E+03 E0= -.85942470E+03  d E =-.174044E-04  mag=     0.0000
quench:  g(F)=  0.000E+00 g(S)=  0.000E+00 dE (1.order)= 0.000E+00
 bond charge predicted
       N       E                     dE             d eps       ncg     rms          rms(c)
DAV:   1    -0.851516973335E+03   -0.18356E-04   -0.73854E-04  4560   0.503E-02    0.817E-03
DAV:   2    -0.851516973779E+03   -0.44364E-06   -0.13235E-05  4930   0.651E-03    0.658E-03
DAV:   3    -0.851516973822E+03   -0.43692E-07   -0.80963E-07  3540   0.182E-03
  49 F= -.85942471E+03 E0= -.85942471E+03  d E =-.120356E-04  mag=     0.0000
quench:  g(F)=  0.000E+00 g(S)=  0.000E+00 dE (1.order)= 0.000E+00
 bond charge predicted
       N       E                     dE             d eps       ncg     rms          rms(c)
DAV:   1    -0.851516985231E+03   -0.11452E-04   -0.15982E-03  4560   0.744E-02    0.948E-03
DAV:   2    -0.851516986899E+03   -0.16687E-05   -0.28680E-05  4860   0.959E-03    0.756E-03
DAV:   3    -0.851516986675E+03    0.22475E-06   -0.10620E-06  3950   0.209E-03
  50 F= -.85942471E+03 E0= -.85942471E+03  d E =-.336977E-05  mag=     0.0000
quench:  g(F)=  0.000E+00 g(S)=  0.000E+00 dE (1.order)= 0.000E+00
 bond charge predicted
       N       E                     dE             d eps       ncg     rms          rms(c)
DAV:   1    -0.851516988116E+03   -0.12167E-05   -0.32405E-03  4560   0.107E-01    0.132E-02
DAV:   2    -0.851516991637E+03   -0.35208E-05   -0.58574E-05  4770   0.139E-02    0.105E-02
DAV:   3    -0.851516991189E+03    0.44738E-06   -0.19193E-06  4130   0.288E-03
  51 F= -.85942470E+03 E0= -.85942470E+03  d E =0.871787E-05  mag=    -0.0000
quench:  g(F)=  0.000E+00 g(S)=  0.000E+00 dE (1.order)= 0.000E+00
 bond charge predicted
       N       E                     dE             d eps       ncg     rms          rms(c)
DAV:   1    -0.851516981125E+03    0.10512E-04   -0.61128E-03  4560   0.149E-01    0.174E-02
DAV:   2    -0.851516988132E+03   -0.70064E-05   -0.10982E-04  4630   0.193E-02    0.139E-02
DAV:   3    -0.851516987404E+03    0.72744E-06   -0.30117E-06  4450   0.371E-03
  52 F= -.85942468E+03 E0= -.85942468E+03  d E =0.221487E-04  mag=     0.0000
quench:  g(F)=  0.000E+00 g(S)=  0.000E+00 dE (1.order)= 0.000E+00
 bond charge predicted
       N       E                     dE             d eps       ncg     rms          rms(c)
DAV:   1    -0.851516969217E+03    0.18914E-04   -0.10775E-02  4560   0.199E-01    0.219E-02
DAV:   2    -0.851516981915E+03   -0.12697E-04   -0.19056E-04  4600   0.257E-02    0.177E-02
DAV:   3    -0.851516980921E+03    0.99417E-06   -0.45569E-06  5140   0.460E-03
  53 F= -.85942465E+03 E0= -.85942465E+03  d E =0.314408E-04  mag=    -0.0000
quench:  g(F)=  0.000E+00 g(S)=  0.000E+00 dE (1.order)= 0.000E+00
 bond charge predicted
       N       E                     dE             d eps       ncg     rms          rms(c)
DAV:   1    -0.851516966933E+03    0.14981E-04   -0.18162E-02  4560   0.260E-01    0.273E-02
DAV:   2    -0.851516988529E+03   -0.21596E-04   -0.31703E-04  4520   0.333E-02    0.221E-02
DAV:   3    -0.851516987120E+03    0.14097E-05   -0.68702E-06  5360   0.566E-03    0.161E-02
DAV:   4    -0.851516990557E+03   -0.34372E-05   -0.81169E-06  4340   0.646E-03    0.399E-03
DAV:   5    -0.851516990866E+03   -0.30874E-06   -0.33155E-06  4040   0.297E-03
  54 F= -.85942462E+03 E0= -.85942462E+03  d E =0.232727E-04  mag=    -0.0000
quench:  g(F)=  0.000E+00 g(S)=  0.000E+00 dE (1.order)= 0.000E+00
 bond charge predicted
       N       E                     dE             d eps       ncg     rms          rms(c)
DAV:   1    -0.851516981418E+03    0.91393E-05   -0.29677E-02  4560   0.332E-01    0.318E-02
DAV:   2    -0.851517020054E+03   -0.38637E-04   -0.54650E-04  4480   0.439E-02    0.258E-02
DAV:   3    -0.851517016208E+03    0.38461E-05   -0.11853E-05  5500   0.734E-03    0.191E-02
DAV:   4    -0.851517019592E+03   -0.33840E-05   -0.14756E-05  4380   0.842E-03    0.549E-03
DAV:   5    -0.851517020071E+03   -0.47849E-06   -0.51848E-06  4700   0.377E-03
  55 F= -.85942461E+03 E0= -.85942461E+03  d E =0.132098E-04  mag=    -0.0000
quench:  g(F)=  0.000E+00 g(S)=  0.000E+00 dE (1.order)= 0.000E+00
 bond charge predicted
       N       E                     dE             d eps       ncg     rms          rms(c)
DAV:   1    -0.851517018997E+03    0.59477E-06   -0.44477E-02  4560   0.406E-01    0.392E-02
DAV:   2    -0.851517074942E+03   -0.55945E-04   -0.80675E-04  4500   0.533E-02    0.322E-02
DAV:   3    -0.851517068617E+03    0.63246E-05   -0.19005E-05  5620   0.927E-03    0.237E-02
DAV:   4    -0.851517073038E+03   -0.44209E-05   -0.21673E-05  4380   0.101E-02    0.746E-03
DAV:   5    -0.851517074078E+03   -0.10397E-05   -0.80979E-06  4800   0.468E-03    0.298E-03
DAV:   6    -0.851517074295E+03   -0.21722E-06   -0.53280E-07  3240   0.136E-03
  56 F= -.85942461E+03 E0= -.85942461E+03  d E =-.196985E-05  mag=     0.0000
quench:  g(F)=  0.000E+00 g(S)=  0.000E+00 dE (1.order)= 0.000E+00
 bond charge predicted
       N       E                     dE             d eps       ncg     rms          rms(c)
DAV:   1    -0.851517056810E+03    0.17268E-04   -0.62352E-02  4560   0.480E-01    0.464E-02
DAV:   2    -0.851517132313E+03   -0.75503E-04   -0.11087E-03  4500   0.626E-02    0.387E-02
DAV:   3    -0.851517122428E+03    0.98855E-05   -0.28029E-05  5640   0.112E-02    0.282E-02
DAV:   4    -0.851517127423E+03   -0.49953E-05   -0.30875E-05  4460   0.119E-02    0.917E-03
DAV:   5    -0.851517128947E+03   -0.15242E-05   -0.11942E-05  4820   0.570E-03    0.339E-03
DAV:   6    -0.851517129271E+03   -0.32419E-06   -0.64611E-07  3260   0.148E-03
  57 F= -.85942461E+03 E0= -.85942461E+03  d E =0.600120E-05  mag=     0.0000
quench:  g(F)=  0.000E+00 g(S)=  0.000E+00 dE (1.order)= 0.000E+00
 bond charge predicted
       N       E                     dE             d eps       ncg     rms          rms(c)
DAV:   1    -0.851517120243E+03    0.87041E-05   -0.77496E-02  4560   0.530E-01    0.519E-02
DAV:   2    -0.851517207913E+03   -0.87669E-04   -0.13136E-03  4480   0.680E-02    0.438E-02
DAV:   3    -0.851517194939E+03    0.12973E-04   -0.34490E-05  5600   0.125E-02    0.318E-02
DAV:   4    -0.851517201559E+03   -0.66202E-05   -0.42485E-05  4500   0.139E-02    0.927E-03
DAV:   5    -0.851517202658E+03   -0.10985E-05   -0.17220E-05  4860   0.688E-03    0.379E-03
DAV:   6    -0.851517203127E+03   -0.46886E-06   -0.79253E-07  3280   0.168E-03
  58 F= -.85942461E+03 E0= -.85942461E+03  d E =-.344003E-05  mag=    -0.0000
quench:  g(F)=  0.000E+00 g(S)=  0.000E+00 dE (1.order)= 0.000E+00
 bond charge predicted
       N       E                     dE             d eps       ncg     rms          rms(c)
DAV:   1    -0.851517294022E+03   -0.91365E-04   -0.88148E-02  4560   0.552E-01    0.568E-02
DAV:   2    -0.851517384429E+03   -0.90407E-04   -0.14145E-03  4500   0.690E-02    0.475E-02
DAV:   3    -0.851517368035E+03    0.16394E-04   -0.40884E-05  5600   0.137E-02    0.338E-02
DAV:   4    -0.851517375497E+03   -0.74615E-05   -0.44093E-05  4580   0.144E-02    0.936E-03
DAV:   5    -0.851517377109E+03   -0.16123E-05   -0.19430E-05  4900   0.706E-03    0.398E-03
DAV:   6    -0.851517377560E+03   -0.45051E-06   -0.78407E-07  3060   0.176E-03
  59 F= -.85942470E+03 E0= -.85942470E+03  d E =-.937385E-04  mag=     0.0000
quench:  g(F)=  0.000E+00 g(S)=  0.000E+00 dE (1.order)= 0.000E+00
 bond charge predicted
       N       E                     dE             d eps       ncg     rms          rms(c)
DAV:   1    -0.851517567002E+03   -0.18989E-03   -0.10027E-01  4560   0.578E-01    0.618E-02
DAV:   2    -0.851517667129E+03   -0.10013E-03   -0.16033E-03  4500   0.720E-02    0.510E-02
DAV:   3    -0.851517647198E+03    0.19931E-04   -0.48391E-05  5500   0.147E-02    0.361E-02
DAV:   4    -0.851517655735E+03   -0.85369E-05   -0.46355E-05  4760   0.147E-02    0.105E-02
DAV:   5    -0.851517658557E+03   -0.28218E-05   -0.20104E-05  4960   0.708E-03    0.427E-03
DAV:   6    -0.851517659098E+03   -0.54152E-06   -0.95360E-07  3100   0.198E-03
  60 F= -.85942490E+03 E0= -.85942490E+03  d E =-.191222E-03  mag=    -0.0000
quench:  g(F)=  0.000E+00 g(S)=  0.000E+00 dE (1.order)= 0.000E+00
 bond charge predicted
       N       E                     dE             d eps       ncg     rms          rms(c)
DAV:   1    -0.851517924994E+03   -0.26644E-03   -0.11772E-01  4580   0.628E-01    0.656E-02
DAV:   2    -0.851518054680E+03   -0.12969E-03   -0.19785E-03  4480   0.800E-02    0.545E-02
DAV:   3    -0.851518032269E+03    0.22410E-04   -0.49544E-05  5620   0.147E-02    0.401E-02
DAV:   4    -0.851518047169E+03   -0.14900E-04   -0.67859E-05  4840   0.172E-02    0.103E-02
DAV:   5    -0.851518049630E+03   -0.24606E-05   -0.23165E-05  5020   0.799E-03    0.471E-03
DAV:   6    -0.851518050616E+03   -0.98647E-06   -0.12223E-06  3220   0.225E-03
  61 F= -.85942519E+03 E0= -.85942519E+03  d E =-.295129E-03  mag=     0.0000
quench:  g(F)=  0.000E+00 g(S)=  0.000E+00 dE (1.order)= 0.000E+00
 bond charge predicted
       N       E                     dE             d eps       ncg     rms          rms(c)
DAV:   1    -0.851518368251E+03   -0.31862E-03   -0.15040E-01  4580   0.722E-01    0.723E-02
DAV:   2    -0.851518560009E+03   -0.19176E-03   -0.27313E-03  4540   0.944E-02    0.602E-02
DAV:   3    -0.851518535455E+03    0.24555E-04   -0.54501E-05  5540   0.154E-02    0.457E-02
DAV:   4    -0.851518560509E+03   -0.25055E-04   -0.10123E-04  5000   0.204E-02    0.110E-02
DAV:   5    -0.851518562177E+03   -0.16673E-05   -0.28552E-05  4940   0.936E-03    0.532E-03
DAV:   6    -0.851518563917E+03   -0.17405E-05   -0.16907E-06  3560   0.245E-03    0.289E-03
DAV:   7    -0.851518564042E+03   -0.12478E-06   -0.22919E-07  3580   0.100E-03
  62 F= -.85942561E+03 E0= -.85942561E+03  d E =-.417369E-03  mag=    -0.0000
quench:  g(F)=  0.000E+00 g(S)=  0.000E+00 dE (1.order)= 0.000E+00
 bond charge predicted
       N       E                     dE             d eps       ncg     rms          rms(c)
DAV:   1    -0.851518903658E+03   -0.33974E-03   -0.20948E-01  4580   0.858E-01    0.855E-02
DAV:   2    -0.851519208880E+03   -0.30522E-03   -0.40794E-03  4560   0.114E-01    0.686E-02
DAV:   3    -0.851519180779E+03    0.28102E-04   -0.67345E-05  5520   0.172E-02    0.526E-02
DAV:   4    -0.851519214752E+03   -0.33973E-04   -0.12933E-04  5140   0.230E-02    0.119E-02
DAV:   5    -0.851519217122E+03   -0.23701E-05   -0.32198E-05  5040   0.995E-03    0.628E-03
DAV:   6    -0.851519219190E+03   -0.20676E-05   -0.25671E-06  3800   0.294E-03    0.328E-03
DAV:   7    -0.851519219419E+03   -0.22926E-06   -0.39178E-07  3520   0.128E-03
  63 F= -.85942617E+03 E0= -.85942617E+03  d E =-.557239E-03  mag=    -0.0000
quench:  g(F)=  0.000E+00 g(S)=  0.000E+00 dE (1.order)= 0.000E+00
 bond charge predicted
       N       E                     dE             d eps       ncg     rms          rms(c)
DAV:   1    -0.851519584632E+03   -0.36544E-03   -0.31702E-01  4560   0.105E+00    0.107E-01
DAV:   2    -0.851520081956E+03   -0.49732E-03   -0.64352E-03  4720   0.140E-01    0.825E-02
DAV:   3    -0.851520044918E+03    0.37038E-04   -0.96532E-05  5480   0.205E-02    0.633E-02
DAV:   4    -0.851520090568E+03   -0.45650E-04   -0.17197E-04  5120   0.264E-02    0.141E-02
DAV:   5    -0.851520096735E+03   -0.61668E-05   -0.40013E-05  5080   0.109E-02    0.779E-03
DAV:   6    -0.851520099188E+03   -0.24531E-05   -0.38980E-06  4280   0.369E-03    0.404E-03
DAV:   7    -0.851520099638E+03   -0.44994E-06   -0.92278E-07  3680   0.182E-03
  64 F= -.85942694E+03 E0= -.85942694E+03  d E =-.773625E-03  mag=    -0.0000
quench:  g(F)=  0.000E+00 g(S)=  0.000E+00 dE (1.order)= 0.000E+00
 bond charge predicted
       N       E                     dE             d eps       ncg     rms          rms(c)
DAV:   1    -0.851520413826E+03   -0.31464E-03   -0.45903E-01  4560   0.125E+00    0.129E-01
DAV:   2    -0.851521140359E+03   -0.72653E-03   -0.93029E-03  4720   0.168E-01    0.100E-01
DAV:   3    -0.851521086043E+03    0.54316E-04   -0.14304E-04  5480   0.249E-02    0.766E-02
DAV:   4    -0.851521140780E+03   -0.54736E-04   -0.24815E-04  5320   0.318E-02    0.177E-02
DAV:   5    -0.851521150401E+03   -0.96212E-05   -0.56593E-05  5080   0.130E-02    0.967E-03
DAV:   6    -0.851521154033E+03   -0.36318E-05   -0.61518E-06  4340   0.464E-03    0.488E-03
DAV:   7    -0.851521154675E+03   -0.64196E-06   -0.12918E-06  3720   0.221E-03
  65 F= -.85942787E+03 E0= -.85942787E+03  d E =-.934142E-03  mag=    -0.0000
quench:  g(F)=  0.000E+00 g(S)=  0.000E+00 dE (1.order)= 0.000E+00
 bond charge predicted
       N       E                     dE             d eps       ncg     rms          rms(c)
DAV:   1    -0.851521488249E+03   -0.33422E-03   -0.61487E-01  4560   0.144E+00    0.150E-01
DAV:   2    -0.851522412610E+03   -0.92436E-03   -0.11923E-02  4700   0.190E-01    0.119E-01
DAV:   3    -0.851522329815E+03    0.82796E-04   -0.19842E-04  5540   0.294E-02    0.909E-02
DAV:   4    -0.851522389886E+03   -0.60071E-04   -0.37321E-04  5320   0.389E-02    0.203E-02
DAV:   5    -0.851522397051E+03   -0.71649E-05   -0.84216E-05  5120   0.158E-02    0.117E-02
DAV:   6    -0.851522402830E+03   -0.57796E-05   -0.93421E-06  4500   0.582E-03    0.572E-03
DAV:   7    -0.851522403795E+03   -0.96462E-06   -0.17165E-06  3820   0.246E-03
  66 F= -.85942897E+03 E0= -.85942897E+03  d E =-.109310E-02  mag=     0.0000
quench:  g(F)=  0.000E+00 g(S)=  0.000E+00 dE (1.order)= 0.000E+00
 bond charge predicted
       N       E                     dE             d eps       ncg     rms          rms(c)
DAV:   1    -0.851522515200E+03   -0.11237E-03   -0.83293E-01  4580   0.167E+00    0.174E-01
DAV:   2    -0.851523683196E+03   -0.11680E-02   -0.15427E-02  4740   0.218E-01    0.142E-01
DAV:   3    -0.851523554003E+03    0.12919E-03   -0.29252E-04  5600   0.358E-02    0.108E-01
DAV:   4    -0.851523620817E+03   -0.66813E-04   -0.52198E-04  5340   0.464E-02    0.246E-02
DAV:   5    -0.851523628492E+03   -0.76752E-05   -0.13190E-04  5100   0.199E-02    0.135E-02
DAV:   6    -0.851523635946E+03   -0.74545E-05   -0.11263E-05  4820   0.625E-03    0.693E-03
DAV:   7    -0.851523637191E+03   -0.12442E-05   -0.23060E-06  3940   0.290E-03    0.359E-03
DAV:   8    -0.851523637281E+03   -0.90586E-07   -0.88692E-07  3700   0.177E-03
  67 F= -.85943001E+03 E0= -.85943001E+03  d E =-.103916E-02  mag=     0.0000
quench:  g(F)=  0.000E+00 g(S)=  0.000E+00 dE (1.order)= 0.000E+00
 bond charge predicted
       N       E                     dE             d eps       ncg     rms          rms(c)
DAV:   1    -0.851523229412E+03    0.40778E-03   -0.11491E+00  4580   0.198E+00    0.206E-01
DAV:   2    -0.851524731070E+03   -0.15017E-02   -0.20609E-02  4740   0.256E-01    0.172E-01
DAV:   3    -0.851524524934E+03    0.20614E-03   -0.47322E-04  5680   0.453E-02    0.129E-01
DAV:   4    -0.851524574424E+03   -0.49490E-04   -0.68969E-04  5340   0.546E-02    0.325E-02
DAV:   5    -0.851524592317E+03   -0.17893E-04   -0.20159E-04  5020   0.238E-02    0.162E-02
DAV:   6    -0.851524601380E+03   -0.90629E-05   -0.16175E-05  4980   0.716E-03    0.844E-03
DAV:   7    -0.851524603078E+03   -0.16988E-05   -0.30969E-06  4080   0.337E-03    0.451E-03
DAV:   8    -0.851524603328E+03   -0.24960E-06   -0.13144E-06  3820   0.214E-03
  68 F= -.85943071E+03 E0= -.85943071E+03  d E =-.704297E-03  mag=    -0.0000
quench:  g(F)=  0.000E+00 g(S)=  0.000E+00 dE (1.order)= 0.000E+00
 bond charge predicted
       N       E                     dE             d eps       ncg     rms          rms(c)
DAV:   1    -0.851521614469E+03    0.29886E-02   -0.17642E+00  4560   0.249E+00    0.257E-01
DAV:   2    -0.851523903585E+03   -0.22891E-02   -0.32247E-02  4800   0.324E-01    0.227E-01
DAV:   3    -0.851523482295E+03    0.42129E-03   -0.94200E-04  5820   0.616E-02    0.172E-01
DAV:   4    -0.851523394038E+03    0.88257E-04   -0.12727E-03  5180   0.750E-02    0.510E-02
DAV:   5    -0.851523428326E+03   -0.34289E-04   -0.36907E-04  4940   0.322E-02    0.251E-02
DAV:   6    -0.851523446508E+03   -0.18181E-04   -0.37730E-05  4920   0.105E-02    0.115E-02
DAV:   7    -0.851523447623E+03   -0.11149E-05   -0.38176E-06  4700   0.411E-03    0.771E-03
DAV:   8    -0.851523447934E+03   -0.31104E-06   -0.35255E-06  3960   0.372E-03
  69 F= -.85942926E+03 E0= -.85942926E+03  d E =0.144816E-02  mag=    -0.0000
quench:  g(F)=  0.000E+00 g(S)=  0.000E+00 dE (1.order)= 0.000E+00
 bond charge predicted
       N       E                     dE             d eps       ncg     rms          rms(c)
DAV:   1    -0.851526263773E+03   -0.28162E-02   -0.21135E-01  4580   0.923E-01    0.105E-01
DAV:   2    -0.851526625293E+03   -0.36152E-03   -0.52179E-03  5520   0.132E-01    0.949E-02
DAV:   3    -0.851526520614E+03    0.10468E-03   -0.24490E-04  6080   0.294E-02    0.714E-02
DAV:   4    -0.851526432723E+03    0.87891E-04   -0.16691E-04  4720   0.277E-02    0.309E-02
DAV:   5    -0.851526428621E+03    0.41022E-05   -0.62382E-05  4720   0.145E-02    0.107E-02
DAV:   6    -0.851526429475E+03   -0.85388E-06   -0.55310E-06  4620   0.438E-03
  70 F= -.85943223E+03 E0= -.85943223E+03  d E =-.296440E-02  mag=     0.0000
quench:  g(F)=  0.000E+00 g(S)=  0.000E+00 dE (1.order)= 0.000E+00
 bond charge predicted
       N       E                     dE             d eps       ncg     rms          rms(c)
DAV:   1    -0.851526515994E+03   -0.87373E-04   -0.70078E-04  4600   0.531E-02    0.689E-03
DAV:   2    -0.851526516655E+03   -0.66142E-06   -0.16648E-05  5620   0.752E-03    0.629E-03
DAV:   3    -0.851526515949E+03    0.70610E-06   -0.10083E-06  2640   0.213E-03
  71 F= -.85943231E+03 E0= -.85943231E+03  d E =-.855991E-04  mag=    -0.0000
quench:  g(F)=  0.000E+00 g(S)=  0.000E+00 dE (1.order)= 0.000E+00
 bond charge predicted
       N       E                     dE             d eps       ncg     rms          rms(c)
DAV:   1    -0.851526607780E+03   -0.91124E-04   -0.21068E-03  4540   0.920E-02    0.110E-02
DAV:   2    -0.851526610746E+03   -0.29668E-05   -0.45891E-05  5660   0.124E-02    0.988E-03
DAV:   3    -0.851526609697E+03    0.10495E-05   -0.19823E-06  3660   0.284E-03    0.736E-03
DAV:   4    -0.851526609130E+03    0.56717E-06   -0.28975E-06  4180   0.349E-03
  72 F= -.85943240E+03 E0= -.85943240E+03  d E =-.910746E-04  mag=    -0.0000
quench:  g(F)=  0.000E+00 g(S)=  0.000E+00 dE (1.order)= 0.000E+00
 bond charge predicted
       N       E                     dE             d eps       ncg     rms          rms(c)
DAV:   1    -0.851526645331E+03   -0.35634E-04   -0.29243E-03  4540   0.108E-01    0.121E-02
DAV:   2    -0.851526649693E+03   -0.43620E-05   -0.62912E-05  5560   0.145E-02    0.107E-02
DAV:   3    -0.851526648615E+03    0.10777E-05   -0.25513E-06  4280   0.318E-03    0.807E-03
DAV:   4    -0.851526648170E+03    0.44531E-06   -0.27521E-06  3880   0.345E-03
  73 F= -.85943244E+03 E0= -.85943244E+03  d E =-.347311E-04  mag=    -0.0000
quench:  g(F)=  0.000E+00 g(S)=  0.000E+00 dE (1.order)= 0.000E+00
 bond charge predicted
       N       E                     dE             d eps       ncg     rms          rms(c)
DAV:   1    -0.851526666525E+03   -0.17910E-04   -0.25303E-03  4540   0.969E-02    0.107E-02
DAV:   2    -0.851526669639E+03   -0.31137E-05   -0.46051E-05  5060   0.124E-02    0.900E-03
DAV:   3    -0.851526669031E+03    0.60776E-06   -0.15220E-06  4160   0.266E-03
  74 F= -.85943245E+03 E0= -.85943245E+03  d E =-.143631E-04  mag=    -0.0000
quench:  g(F)=  0.000E+00 g(S)=  0.000E+00 dE (1.order)= 0.000E+00
 bond charge predicted
       N       E                     dE             d eps       ncg     rms          rms(c)
DAV:   1    -0.851526734807E+03   -0.65168E-04   -0.24742E-03  4560   0.927E-02    0.109E-02
DAV:   2    -0.851526736953E+03   -0.21465E-05   -0.36360E-05  4720   0.109E-02    0.890E-03
DAV:   3    -0.851526736651E+03    0.30158E-06   -0.10408E-06  4060   0.239E-03
  75 F= -.85943251E+03 E0= -.85943251E+03  d E =-.592946E-04  mag=     0.0000
quench:  g(F)=  0.000E+00 g(S)=  0.000E+00 dE (1.order)= 0.000E+00
 bond charge predicted
       N       E                     dE             d eps       ncg     rms          rms(c)
DAV:   1    -0.851526850328E+03   -0.11337E-03   -0.34407E-03  4560   0.112E-01    0.121E-02
DAV:   2    -0.851526853968E+03   -0.36396E-05   -0.54681E-05  4760   0.135E-02    0.103E-02
DAV:   3    -0.851526853360E+03    0.60800E-06   -0.15618E-06  4220   0.280E-03
  76 F= -.85943262E+03 E0= -.85943262E+03  d E =-.106863E-03  mag=    -0.0000
quench:  g(F)=  0.000E+00 g(S)=  0.000E+00 dE (1.order)= 0.000E+00
 bond charge predicted
       N       E                     dE             d eps       ncg     rms          rms(c)
DAV:   1    -0.851526965912E+03   -0.11194E-03   -0.61008E-03  4520   0.151E-01    0.162E-02
DAV:   2    -0.851526973154E+03   -0.72418E-05   -0.10501E-04  4860   0.187E-02    0.142E-02
DAV:   3    -0.851526971768E+03    0.13856E-05   -0.35396E-06  4760   0.387E-03    0.106E-02
DAV:   4    -0.851526972155E+03   -0.38623E-06   -0.49589E-06  4320   0.479E-03
  77 F= -.85943272E+03 E0= -.85943272E+03  d E =-.106064E-03  mag=     0.0000
quench:  g(F)=  0.000E+00 g(S)=  0.000E+00 dE (1.order)= 0.000E+00
 bond charge predicted
       N       E                     dE             d eps       ncg     rms          rms(c)
DAV:   1    -0.851527045703E+03   -0.73934E-04   -0.87970E-03  4560   0.178E-01    0.185E-02
DAV:   2    -0.851527055531E+03   -0.98280E-05   -0.14734E-04  4700   0.222E-02    0.163E-02
DAV:   3    -0.851527053447E+03    0.20836E-05   -0.49435E-06  5400   0.463E-03    0.120E-02
DAV:   4    -0.851527054025E+03   -0.57839E-06   -0.59943E-06  4500   0.532E-03
  78 F= -.85943279E+03 E0= -.85943279E+03  d E =-.654474E-04  mag=    -0.0000
quench:  g(F)=  0.000E+00 g(S)=  0.000E+00 dE (1.order)= 0.000E+00
 bond charge predicted
       N       E                     dE             d eps       ncg     rms          rms(c)
DAV:   1    -0.851527168053E+03   -0.11461E-03   -0.10921E-02  4560   0.193E-01    0.203E-02
DAV:   2    -0.851527178051E+03   -0.99977E-05   -0.16312E-04  4560   0.231E-02    0.174E-02
DAV:   3    -0.851527175828E+03    0.22228E-05   -0.54240E-06  5370   0.502E-03    0.121E-02
DAV:   4    -0.851527177437E+03   -0.16094E-05   -0.58409E-06  4420   0.519E-03    0.338E-03
DAV:   5    -0.851527177624E+03   -0.18605E-06   -0.25713E-06  3820   0.265E-03
  79 F= -.85943289E+03 E0= -.85943289E+03  d E =-.104038E-03  mag=    -0.0000
quench:  g(F)=  0.000E+00 g(S)=  0.000E+00 dE (1.order)= 0.000E+00
 bond charge predicted
       N       E                     dE             d eps       ncg     rms          rms(c)
DAV:   1    -0.851527359306E+03   -0.18187E-03   -0.16486E-02  4580   0.239E-01    0.242E-02
DAV:   2    -0.851527375891E+03   -0.16584E-04   -0.26256E-04  4580   0.291E-02    0.210E-02
DAV:   3    -0.851527371806E+03    0.40844E-05   -0.89525E-06  5620   0.616E-03    0.150E-02
DAV:   4    -0.851527373136E+03   -0.13297E-05   -0.91892E-06  4420   0.652E-03    0.450E-03
DAV:   5    -0.851527373514E+03   -0.37777E-06   -0.36454E-06  4140   0.312E-03
  80 F= -.85943307E+03 E0= -.85943307E+03  d E =-.172128E-03  mag=     0.0000
quench:  g(F)=  0.000E+00 g(S)=  0.000E+00 dE (1.order)= 0.000E+00
 bond charge predicted
       N       E                     dE             d eps       ncg     rms          rms(c)
DAV:   1    -0.851527528484E+03   -0.15535E-03   -0.25058E-02  4580   0.294E-01    0.300E-02
DAV:   2    -0.851527553939E+03   -0.25455E-04   -0.40271E-04  4600   0.361E-02    0.260E-02
DAV:   3    -0.851527547620E+03    0.63191E-05   -0.13979E-05  5720   0.766E-03    0.185E-02
DAV:   4    -0.851527549507E+03   -0.18868E-05   -0.13539E-05  4420   0.793E-03    0.563E-03
DAV:   5    -0.851527550110E+03   -0.60289E-06   -0.57049E-06  4600   0.386E-03
  81 F= -.85943321E+03 E0= -.85943321E+03  d E =-.145608E-03  mag=    -0.0000
quench:  g(F)=  0.000E+00 g(S)=  0.000E+00 dE (1.order)= 0.000E+00
 bond charge predicted
       N       E                     dE             d eps       ncg     rms          rms(c)
DAV:   1    -0.851527785207E+03   -0.23570E-03   -0.33158E-02  4600   0.333E-01    0.343E-02
DAV:   2    -0.851527815223E+03   -0.30016E-04   -0.49777E-04  4540   0.399E-02    0.292E-02
DAV:   3    -0.851527807613E+03    0.76096E-05   -0.16943E-05  5500   0.869E-03    0.199E-02
DAV:   4    -0.851527811604E+03   -0.39904E-05   -0.16334E-05  4600   0.864E-03    0.567E-03
DAV:   5    -0.851527812265E+03   -0.66102E-06   -0.85610E-06  4860   0.471E-03
  82 F= -.85943343E+03 E0= -.85943343E+03  d E =-.221994E-03  mag=    -0.0000
quench:  g(F)=  0.000E+00 g(S)=  0.000E+00 dE (1.order)= 0.000E+00
 bond charge predicted
       N       E                     dE             d eps       ncg     rms          rms(c)
DAV:   1    -0.851528087655E+03   -0.27605E-03   -0.52046E-02  4580   0.422E-01    0.432E-02
DAV:   2    -0.851528140028E+03   -0.52373E-04   -0.83203E-04  4560   0.518E-02    0.372E-02
DAV:   3    -0.851528127267E+03    0.12761E-04   -0.28278E-05  5680   0.109E-02    0.263E-02
DAV:   4    -0.851528131735E+03   -0.44677E-05   -0.28680E-05  4660   0.115E-02    0.765E-03
DAV:   5    -0.851528132776E+03   -0.10413E-05   -0.12372E-05  4900   0.572E-03    0.327E-03
DAV:   6    -0.851528133170E+03   -0.39356E-06   -0.49541E-07  2980   0.135E-03
  83 F= -.85943370E+03 E0= -.85943370E+03  d E =-.271229E-03  mag=    -0.0000
quench:  g(F)=  0.000E+00 g(S)=  0.000E+00 dE (1.order)= 0.000E+00
 bond charge predicted
       N       E                     dE             d eps       ncg     rms          rms(c)
DAV:   1    -0.851528452241E+03   -0.31947E-03   -0.72186E-02  4620   0.490E-01    0.507E-02
DAV:   2    -0.851528519843E+03   -0.67601E-04   -0.10996E-03  4520   0.591E-02    0.427E-02
DAV:   3    -0.851528503278E+03    0.16564E-04   -0.35129E-05  5500   0.125E-02    0.294E-02
DAV:   4    -0.851528511062E+03   -0.77834E-05   -0.37624E-05  4840   0.130E-02    0.793E-03
DAV:   5    -0.851528512149E+03   -0.10875E-05   -0.19536E-05  4880   0.722E-03    0.301E-03
DAV:   6    -0.851528512518E+03   -0.36903E-06   -0.45356E-07  3110   0.144E-03
  84 F= -.85943403E+03 E0= -.85943403E+03  d E =-.324240E-03  mag=     0.0000
quench:  g(F)=  0.000E+00 g(S)=  0.000E+00 dE (1.order)= 0.000E+00
 bond charge predicted
       N       E                     dE             d eps       ncg     rms          rms(c)
DAV:   1    -0.851528856516E+03   -0.34437E-03   -0.11100E-01  4580   0.615E-01    0.630E-02
DAV:   2    -0.851528970109E+03   -0.11359E-03   -0.17733E-03  4560   0.758E-02    0.535E-02
DAV:   3    -0.851528943935E+03    0.26174E-04   -0.57262E-05  5600   0.157E-02    0.375E-02
DAV:   4    -0.851528952094E+03   -0.81590E-05   -0.60345E-05  4960   0.166E-02    0.106E-02
DAV:   5    -0.851528953858E+03   -0.17635E-05   -0.26831E-05  4900   0.845E-03    0.432E-03
DAV:   6    -0.851528954546E+03   -0.68801E-06   -0.93106E-07  3180   0.185E-03
  85 F= -.85943441E+03 E0= -.85943441E+03  d E =-.380178E-03  mag=    -0.0000
quench:  g(F)=  0.000E+00 g(S)=  0.000E+00 dE (1.order)= 0.000E+00
 bond charge predicted
       N       E                     dE             d eps       ncg     rms          rms(c)
DAV:   1    -0.851529372125E+03   -0.41827E-03   -0.15708E-01  4620   0.731E-01    0.745E-02
DAV:   2    -0.851529534159E+03   -0.16203E-03   -0.24991E-03  4560   0.902E-02    0.625E-02
DAV:   3    -0.851529499957E+03    0.34202E-04   -0.74815E-05  5590   0.181E-02    0.439E-02
DAV:   4    -0.851529513298E+03   -0.13341E-04   -0.85874E-05  5100   0.197E-02    0.117E-02
DAV:   5    -0.851529515496E+03   -0.21984E-05   -0.37931E-05  4920   0.102E-02    0.468E-03
DAV:   6    -0.851529516394E+03   -0.89771E-06   -0.12026E-06  3280   0.214E-03
  86 F= -.85943490E+03 E0= -.85943490E+03  d E =-.487831E-03  mag=    -0.0000
quench:  g(F)=  0.000E+00 g(S)=  0.000E+00 dE (1.order)= 0.000E+00
 bond charge predicted
       N       E                     dE             d eps       ncg     rms          rms(c)
DAV:   1    -0.851529889882E+03   -0.37439E-03   -0.23117E-01  4600   0.896E-01    0.901E-02
DAV:   2    -0.851530135447E+03   -0.24557E-03   -0.37250E-03  4580   0.112E-01    0.755E-02
DAV:   3    -0.851530086565E+03    0.48882E-04   -0.11209E-04  5580   0.223E-02    0.528E-02
DAV:   4    -0.851530103169E+03   -0.16605E-04   -0.12116E-04  5120   0.235E-02    0.145E-02
DAV:   5    -0.851530106265E+03   -0.30953E-05   -0.55696E-05  4900   0.123E-02    0.562E-03
DAV:   6    -0.851530107392E+03   -0.11271E-05   -0.17859E-06  3620   0.256E-03    0.348E-03
DAV:   7    -0.851530107481E+03   -0.88723E-07   -0.49435E-07  3420   0.156E-03
  87 F= -.85943543E+03 E0= -.85943543E+03  d E =-.529974E-03  mag=    -0.0000
quench:  g(F)=  0.000E+00 g(S)=  0.000E+00 dE (1.order)= 0.000E+00
 bond charge predicted
       N       E                     dE             d eps       ncg     rms          rms(c)
DAV:   1    -0.851530418403E+03   -0.31101E-03   -0.34507E-01  4580   0.110E+00    0.110E-01
DAV:   2    -0.851530807819E+03   -0.38942E-03   -0.57728E-03  4660   0.139E-01    0.932E-02
DAV:   3    -0.851530731088E+03    0.76731E-04   -0.17067E-04  5680   0.270E-02    0.666E-02
DAV:   4    -0.851530745746E+03   -0.14658E-04   -0.19694E-04  5200   0.300E-02    0.184E-02
DAV:   5    -0.851530750685E+03   -0.49386E-05   -0.76878E-05  4860   0.144E-02    0.781E-03
DAV:   6    -0.851530752847E+03   -0.21622E-05   -0.34192E-06  4240   0.331E-03    0.439E-03
DAV:   7    -0.851530752991E+03   -0.14335E-06   -0.64746E-07  3460   0.183E-03
  88 F= -.85943599E+03 E0= -.85943599E+03  d E =-.566863E-03  mag=    -0.0000
quench:  g(F)=  0.000E+00 g(S)=  0.000E+00 dE (1.order)= 0.000E+00
 bond charge predicted
       N       E                     dE             d eps       ncg     rms          rms(c)
DAV:   1    -0.851530804872E+03   -0.52025E-04   -0.49247E-01  4580   0.133E+00    0.132E-01
DAV:   2    -0.851531392302E+03   -0.58743E-03   -0.85560E-03  4680   0.170E-01    0.114E-01
DAV:   3    -0.851531277217E+03    0.11509E-03   -0.26871E-04  5760   0.336E-02    0.822E-02
DAV:   4    -0.851531278680E+03   -0.14631E-05   -0.28234E-04  5160   0.363E-02    0.243E-02
DAV:   5    -0.851531286022E+03   -0.73418E-05   -0.10726E-04  4900   0.170E-02    0.104E-02
DAV:   6    -0.851531288926E+03   -0.29045E-05   -0.64969E-06  4960   0.430E-03    0.548E-03
DAV:   7    -0.851531289044E+03   -0.11765E-06   -0.71089E-07  3600   0.202E-03
  89 F= -.85943645E+03 E0= -.85943645E+03  d E =-.453765E-03  mag=     0.0000
quench:  g(F)=  0.000E+00 g(S)=  0.000E+00 dE (1.order)= 0.000E+00
 bond charge predicted
       N       E                     dE             d eps       ncg     rms          rms(c)
DAV:   1    -0.851531719403E+03   -0.43048E-03   -0.17178E-02  4540   0.266E-01    0.291E-02
DAV:   2    -0.851531749896E+03   -0.30492E-04   -0.42935E-04  5560   0.382E-02    0.266E-02
DAV:   3    -0.851531742310E+03    0.75859E-05   -0.18584E-05  5900   0.799E-03    0.205E-02
DAV:   4    -0.851531735130E+03    0.71802E-05   -0.14148E-05  4520   0.811E-03    0.861E-03
DAV:   5    -0.851531734929E+03    0.20033E-06   -0.50830E-06  4160   0.412E-03
  90 F= -.85943689E+03 E0= -.85943689E+03  d E =-.445918E-03  mag=    -0.0000
quench:  g(F)=  0.000E+00 g(S)=  0.000E+00 dE (1.order)= 0.000E+00
 bond charge predicted
       N       E                     dE             d eps       ncg     rms          rms(c)
DAV:   1    -0.851531499374E+03    0.23576E-03   -0.21530E-02  4500   0.299E-01    0.320E-02
DAV:   2    -0.851531539271E+03   -0.39896E-04   -0.53696E-04  5520   0.431E-02    0.287E-02
DAV:   3    -0.851531531334E+03    0.79370E-05   -0.21659E-05  5940   0.865E-03    0.225E-02
DAV:   4    -0.851531524041E+03    0.72929E-05   -0.16966E-05  4560   0.890E-03    0.930E-03
DAV:   5    -0.851531524077E+03   -0.36591E-07   -0.56922E-06  4180   0.435E-03
  91 F= -.85943668E+03 E0= -.85943668E+03  d E =0.213221E-03  mag=    -0.0000
quench:  g(F)=  0.000E+00 g(S)=  0.000E+00 dE (1.order)= 0.000E+00
 bond charge predicted
       N       E                     dE             d eps       ncg     rms          rms(c)
DAV:   1    -0.851531645414E+03   -0.12137E-03   -0.74601E-04  4580   0.551E-02    0.628E-03
DAV:   2    -0.851531646611E+03   -0.11963E-05   -0.19569E-05  5700   0.806E-03    0.588E-03
DAV:   3    -0.851531646153E+03    0.45780E-06   -0.71881E-07  2600   0.177E-03
  92 F= -.85943680E+03 E0= -.85943680E+03  d E =-.121987E-03  mag=     0.0000
quench:  g(F)=  0.000E+00 g(S)=  0.000E+00 dE (1.order)= 0.000E+00
 bond charge predicted
       N       E                     dE             d eps       ncg     rms          rms(c)
DAV:   1    -0.851531789111E+03   -0.14250E-03   -0.23103E-03  4540   0.970E-02    0.117E-02
DAV:   2    -0.851531792634E+03   -0.35232E-05   -0.53402E-05  5750   0.134E-02    0.106E-02
DAV:   3    -0.851531791347E+03    0.12866E-05   -0.23694E-06  3680   0.308E-03    0.787E-03
DAV:   4    -0.851531790491E+03    0.85613E-06   -0.35238E-06  4220   0.385E-03
  93 F= -.85943695E+03 E0= -.85943695E+03  d E =-.143864E-03  mag=     0.0000
quench:  g(F)=  0.000E+00 g(S)=  0.000E+00 dE (1.order)= 0.000E+00
 bond charge predicted
       N       E                     dE             d eps       ncg     rms          rms(c)
DAV:   1    -0.851531843860E+03   -0.52513E-04   -0.35217E-03  4520   0.120E-01    0.138E-02
DAV:   2    -0.851531849881E+03   -0.60209E-05   -0.85575E-05  5640   0.170E-02    0.126E-02
DAV:   3    -0.851531848241E+03    0.16395E-05   -0.34880E-06  4240   0.365E-03    0.965E-03
DAV:   4    -0.851531846955E+03    0.12860E-05   -0.48193E-06  4360   0.449E-03    0.359E-03
DAV:   5    -0.851531846938E+03    0.17120E-07   -0.88928E-07  2800   0.182E-03
  94 F= -.85943700E+03 E0= -.85943700E+03  d E =-.554480E-04  mag=     0.0000
quench:  g(F)=  0.000E+00 g(S)=  0.000E+00 dE (1.order)= 0.000E+00
 bond charge predicted
       N       E                     dE             d eps       ncg     rms          rms(c)
DAV:   1    -0.851531848906E+03   -0.19504E-05   -0.32548E-06  4080   0.358E-03    0.984E-04
DAV:   2    -0.851531848909E+03   -0.27794E-08   -0.12404E-07  2480   0.707E-04
  95 F= -.85943700E+03 E0= -.85943700E+03  d E =-.185136E-05  mag=    -0.0000
quench:  g(F)=  0.000E+00 g(S)=  0.000E+00 dE (1.order)= 0.000E+00
 bond charge predicted
       N       E                     dE             d eps       ncg     rms          rms(c)
DAV:   1    -0.851531852595E+03   -0.36888E-05   -0.10741E-05  4360   0.644E-03    0.101E-03
DAV:   2    -0.851531852605E+03   -0.10012E-07   -0.20408E-07  2420   0.910E-04
  96 F= -.85943701E+03 E0= -.85943701E+03  d E =-.343911E-05  mag=     0.0000
quench:  g(F)=  0.000E+00 g(S)=  0.000E+00 dE (1.order)= 0.000E+00
 bond charge predicted
       N       E                     dE             d eps       ncg     rms          rms(c)
DAV:   1    -0.851531857702E+03   -0.51077E-05   -0.24847E-05  4480   0.974E-03    0.144E-03
DAV:   2    -0.851531857722E+03   -0.19769E-07   -0.44113E-07  2420   0.132E-03
  97 F= -.85943701E+03 E0= -.85943701E+03  d E =-.470936E-05  mag=    -0.0000
quench:  g(F)=  0.000E+00 g(S)=  0.000E+00 dE (1.order)= 0.000E+00
 bond charge predicted
       N       E                     dE             d eps       ncg     rms          rms(c)
DAV:   1    -0.851531863821E+03   -0.61189E-05   -0.44977E-05  4580   0.130E-02    0.194E-03
DAV:   2    -0.851531863849E+03   -0.27845E-07   -0.71733E-07  2740   0.166E-03
  98 F= -.85943702E+03 E0= -.85943702E+03  d E =-.552778E-05  mag=    -0.0000
quench:  g(F)=  0.000E+00 g(S)=  0.000E+00 dE (1.order)= 0.000E+00
 bond charge predicted
       N       E                     dE             d eps       ncg     rms          rms(c)
DAV:   1    -0.851531870448E+03   -0.66270E-05   -0.74301E-05  4500   0.165E-02    0.245E-03
DAV:   2    -0.851531870490E+03   -0.42150E-07   -0.10940E-06  3000   0.204E-03
  99 F= -.85943702E+03 E0= -.85943702E+03  d E =-.579164E-05  mag=    -0.0000
quench:  g(F)=  0.000E+00 g(S)=  0.000E+00 dE (1.order)= 0.000E+00
 bond charge predicted
       N       E                     dE             d eps       ncg     rms          rms(c)
DAV:   1    -0.851531876854E+03   -0.64059E-05   -0.11991E-04  4540   0.207E-02    0.307E-03
DAV:   2    -0.851531876933E+03   -0.79453E-07   -0.18650E-06  3520   0.256E-03
 100 F= -.85943703E+03 E0= -.85943703E+03  d E =-.526017E-05  mag=     0.0000
quench:  g(F)=  0.000E+00 g(S)=  0.000E+00 dE (1.order)= 0.000E+00
 bond charge predicted
       N       E                     dE             d eps       ncg     rms          rms(c)
DAV:   1    -0.851531882807E+03   -0.59525E-05   -0.24703E-04  4580   0.294E-02    0.436E-03
DAV:   2    -0.851531882940E+03   -0.13388E-06   -0.37079E-06  4160   0.356E-03
 101 F= -.85943703E+03 E0= -.85943703E+03  d E =-.418912E-05  mag=     0.0000
quench:  g(F)=  0.000E+00 g(S)=  0.000E+00 dE (1.order)= 0.000E+00
 bond charge predicted
       N       E                     dE             d eps       ncg     rms          rms(c)
DAV:   1    -0.851531886947E+03   -0.41407E-05   -0.52900E-04  4560   0.428E-02    0.636E-03
DAV:   2    -0.851531887270E+03   -0.32287E-06   -0.83652E-06  4720   0.528E-03
 102 F= -.85943703E+03 E0= -.85943703E+03  d E =-.155526E-05  mag=    -0.0000
quench:  g(F)=  0.000E+00 g(S)=  0.000E+00 dE (1.order)= 0.000E+00
 bond charge predicted
       N       E                     dE             d eps       ncg     rms          rms(c)
DAV:   1    -0.851531886702E+03    0.24553E-06   -0.11621E-03  4560   0.635E-02    0.952E-03
DAV:   2    -0.851531887455E+03   -0.75382E-06   -0.19094E-05  4860   0.798E-03    0.780E-03
DAV:   3    -0.851531887205E+03    0.25016E-06   -0.10097E-06  3700   0.221E-03
 103 F= -.85943703E+03 E0= -.85943703E+03  d E =0.428855E-05  mag=    -0.0000
quench:  g(F)=  0.000E+00 g(S)=  0.000E+00 dE (1.order)= 0.000E+00
 bond charge predicted
       N       E                     dE             d eps       ncg     rms          rms(c)
DAV:   1    -0.851531880235E+03    0.72200E-05   -0.23098E-03  4560   0.899E-02    0.105E-02
DAV:   2    -0.851531882680E+03   -0.24443E-05   -0.38534E-05  4600   0.113E-02    0.850E-03
DAV:   3    -0.851531882327E+03    0.35251E-06   -0.10880E-06  4060   0.228E-03
 104 F= -.85943702E+03 E0= -.85943702E+03  d E =0.110946E-04  mag=    -0.0000
quench:  g(F)=  0.000E+00 g(S)=  0.000E+00 dE (1.order)= 0.000E+00
 bond charge predicted
       N       E                     dE             d eps       ncg     rms          rms(c)
DAV:   1    -0.851531865887E+03    0.16793E-04   -0.42581E-03  4560   0.123E-01    0.140E-02
DAV:   2    -0.851531870455E+03   -0.45684E-05   -0.71610E-05  4560   0.155E-02    0.113E-02
DAV:   3    -0.851531869823E+03    0.63195E-06   -0.19454E-06  4200   0.305E-03
 105 F= -.85943700E+03 E0= -.85943700E+03  d E =0.213671E-04  mag=     0.0000
quench:  g(F)=  0.000E+00 g(S)=  0.000E+00 dE (1.order)= 0.000E+00
 bond charge predicted
       N       E                     dE             d eps       ncg     rms          rms(c)
DAV:   1    -0.851531842700E+03    0.27755E-04   -0.73935E-03  4560   0.163E-01    0.180E-02
DAV:   2    -0.851531850708E+03   -0.80082E-05   -0.12346E-04  4540   0.205E-02    0.147E-02
DAV:   3    -0.851531849759E+03    0.94924E-06   -0.32260E-06  4600   0.391E-03
 106 F= -.85943696E+03 E0= -.85943696E+03  d E =0.323917E-04  mag=    -0.0000
quench:  g(F)=  0.000E+00 g(S)=  0.000E+00 dE (1.order)= 0.000E+00
 bond charge predicted
       N       E                     dE             d eps       ncg     rms          rms(c)
DAV:   1    -0.851531814586E+03    0.36122E-04   -0.12260E-02  4560   0.211E-01    0.227E-02
DAV:   2    -0.851531827773E+03   -0.13187E-04   -0.20139E-04  4540   0.264E-02    0.186E-02
DAV:   3    -0.851531826411E+03    0.13614E-05   -0.51215E-06  5120   0.491E-03    0.132E-02
DAV:   4    -0.851531828355E+03   -0.19436E-05   -0.54961E-06  4220   0.525E-03    0.335E-03
DAV:   5    -0.851531828578E+03   -0.22337E-06   -0.24351E-06  3720   0.254E-03
 107 F= -.85943693E+03 E0= -.85943693E+03  d E =0.384645E-04  mag=    -0.0000
quench:  g(F)=  0.000E+00 g(S)=  0.000E+00 dE (1.order)= 0.000E+00
 bond charge predicted
       N       E                     dE             d eps       ncg     rms          rms(c)
DAV:   1    -0.851531791698E+03    0.36657E-04   -0.20029E-02  4560   0.270E-01    0.265E-02
DAV:   2    -0.851531815271E+03   -0.23573E-04   -0.34706E-04  4480   0.348E-02    0.217E-02
DAV:   3    -0.851531812003E+03    0.32677E-05   -0.87647E-06  5340   0.635E-03    0.157E-02
DAV:   4    -0.851531813776E+03   -0.17724E-05   -0.97753E-06  4380   0.687E-03    0.443E-03
DAV:   5    -0.851531814077E+03   -0.30187E-06   -0.40364E-06  4020   0.328E-03
 108 F= -.85943689E+03 E0= -.85943689E+03  d E =0.379217E-04  mag=     0.0000
quench:  g(F)=  0.000E+00 g(S)=  0.000E+00 dE (1.order)= 0.000E+00
 bond charge predicted
       N       E                     dE             d eps       ncg     rms          rms(c)
DAV:   1    -0.851531782515E+03    0.31261E-04   -0.30741E-02  4560   0.334E-01    0.328E-02
DAV:   2    -0.851531817693E+03   -0.35178E-04   -0.52357E-04  4480   0.429E-02    0.272E-02
DAV:   3    -0.851531812560E+03    0.51328E-05   -0.13677E-05  5560   0.793E-03    0.196E-02
DAV:   4    -0.851531815215E+03   -0.26553E-05   -0.15294E-05  4380   0.853E-03    0.567E-03
DAV:   5    -0.851531815676E+03   -0.46108E-06   -0.64744E-06  4600   0.415E-03
 109 F= -.85943686E+03 E0= -.85943686E+03  d E =0.285725E-04  mag=    -0.0000
quench:  g(F)=  0.000E+00 g(S)=  0.000E+00 dE (1.order)= 0.000E+00
 bond charge predicted
       N       E                     dE             d eps       ncg     rms          rms(c)
DAV:   1    -0.851531787975E+03    0.27240E-04   -0.45316E-02  4560   0.405E-01    0.399E-02
DAV:   2    -0.851531838171E+03   -0.50197E-04   -0.75980E-04  4500   0.517E-02    0.334E-02
DAV:   3    -0.851531830254E+03    0.79170E-05   -0.21193E-05  5560   0.987E-03    0.239E-02
DAV:   4    -0.851531833910E+03   -0.36556E-05   -0.22275E-05  4460   0.102E-02    0.733E-03
DAV:   5    -0.851531834704E+03   -0.79382E-06   -0.98587E-06  4740   0.511E-03
 110 F= -.85943684E+03 E0= -.85943684E+03  d E =0.196702E-04  mag=    -0.0000
quench:  g(F)=  0.000E+00 g(S)=  0.000E+00 dE (1.order)= 0.000E+00
 bond charge predicted
       N       E                     dE             d eps       ncg     rms          rms(c)
DAV:   1    -0.851531800851E+03    0.33059E-04   -0.63664E-02  4560   0.479E-01    0.475E-02
DAV:   2    -0.851531868895E+03   -0.68045E-04   -0.10483E-03  4520   0.607E-02    0.401E-02
DAV:   3    -0.851531857468E+03    0.11427E-04   -0.30780E-05  5580   0.119E-02    0.284E-02
DAV:   4    -0.851531862343E+03   -0.48751E-05   -0.31424E-05  4520   0.121E-02    0.890E-03
DAV:   5    -0.851531863520E+03   -0.11770E-05   -0.14351E-05  4740   0.616E-03    0.329E-03
DAV:   6    -0.851531863840E+03   -0.31973E-06   -0.59323E-07  3260   0.145E-03
 111 F= -.85943682E+03 E0= -.85943682E+03  d E =0.186526E-04  mag=    -0.0000
quench:  g(F)=  0.000E+00 g(S)=  0.000E+00 dE (1.order)= 0.000E+00
 bond charge predicted
[...]
 172 F= -.85944778E+03 E0= -.85944778E+03  d E =-.318337E-03  mag=     0.0000
quench:  g(F)=  0.000E+00 g(S)=  0.000E+00 dE (1.order)= 0.000E+00
 bond charge predicted
       N       E                     dE             d eps       ncg     rms          rms(c)
DAV:   1    -0.851544873122E+03   -0.28614E-03   -0.17405E-01  4600   0.768E-01    0.777E-02
DAV:   2    -0.851545063794E+03   -0.19067E-03   -0.28883E-03  4480   0.963E-02    0.651E-02
DAV:   3    -0.851545027186E+03    0.36608E-04   -0.74995E-05  5620   0.181E-02    0.472E-02
DAV:   4    -0.851545044778E+03   -0.17592E-04   -0.10208E-04  5140   0.211E-02    0.120E-02
DAV:   5    -0.851545047179E+03   -0.24010E-05   -0.36645E-05  4940   0.103E-02    0.502E-03
DAV:   6    -0.851545048341E+03   -0.11612E-05   -0.13049E-06  3300   0.221E-03    0.300E-03
DAV:   7    -0.851545048417E+03   -0.76056E-07   -0.45938E-07  3520   0.140E-03
 173 F= -.85944817E+03 E0= -.85944817E+03  d E =-.381324E-03  mag=    -0.0000
quench:  g(F)=  0.000E+00 g(S)=  0.000E+00 dE (1.order)= 0.000E+00
 bond charge predicted
       N       E                     dE             d eps       ncg     rms          rms(c)
DAV:   1    -0.851545341220E+03   -0.29288E-03   -0.24240E-01  4600   0.914E-01    0.921E-02
DAV:   2    -0.851545606023E+03   -0.26480E-03   -0.39969E-03  4500   0.114E-01    0.774E-02
DAV:   3    -0.851545555120E+03    0.50903E-04   -0.10672E-04  5620   0.217E-02    0.556E-02
DAV:   4    -0.851545575687E+03   -0.20567E-04   -0.13756E-04  5300   0.247E-02    0.142E-02
DAV:   5    -0.851545578620E+03   -0.29337E-05   -0.54710E-05  4880   0.125E-02    0.560E-03
DAV:   6    -0.851545580002E+03   -0.13818E-05   -0.17326E-06  3640   0.258E-03    0.350E-03
DAV:   7    -0.851545580100E+03   -0.97563E-07   -0.55977E-07  3420   0.164E-03
 174 F= -.85944861E+03 E0= -.85944861E+03  d E =-.440814E-03  mag=     0.0000
quench:  g(F)=  0.000E+00 g(S)=  0.000E+00 dE (1.order)= 0.000E+00
 bond charge predicted
       N       E                     dE             d eps       ncg     rms          rms(c)
DAV:   1    -0.851545830153E+03   -0.25015E-03   -0.35463E-01  4580   0.109E+00    0.111E-01
DAV:   2    -0.851546227216E+03   -0.39706E-03   -0.59535E-03  4540   0.137E-01    0.937E-02
DAV:   3    -0.851546151090E+03    0.76126E-04   -0.15267E-04  5640   0.256E-02    0.685E-02
DAV:   4    -0.851546179664E+03   -0.28574E-04   -0.21948E-04  5300   0.307E-02    0.174E-02
DAV:   5    -0.851546185468E+03   -0.58037E-05   -0.71354E-05  4980   0.143E-02    0.781E-03
DAV:   6    -0.851546188310E+03   -0.28422E-05   -0.33910E-06  4420   0.339E-03    0.441E-03
DAV:   7    -0.851546188497E+03   -0.18630E-06   -0.70811E-07  3610   0.174E-03
 175 F= -.85944909E+03 E0= -.85944909E+03  d E =-.480768E-03  mag=     0.0000
quench:  g(F)=  0.000E+00 g(S)=  0.000E+00 dE (1.order)= 0.000E+00
 bond charge predicted
       N       E                     dE             d eps       ncg     rms          rms(c)
DAV:   1    -0.851546352855E+03   -0.16454E-03   -0.46766E-01  4580   0.128E+00    0.128E-01
DAV:   2    -0.851546865310E+03   -0.51246E-03   -0.77379E-03  4600   0.160E-01    0.109E-01
DAV:   3    -0.851546763706E+03    0.10160E-03   -0.22302E-04  5640   0.312E-02    0.781E-02
DAV:   4    -0.851546792701E+03   -0.28995E-04   -0.26225E-04  5180   0.346E-02    0.212E-02
DAV:   5    -0.851546798635E+03   -0.59344E-05   -0.11577E-04  4920   0.178E-02    0.839E-03
DAV:   6    -0.851546801378E+03   -0.27424E-05   -0.40137E-06  4520   0.372E-03    0.513E-03
DAV:   7    -0.851546801542E+03   -0.16388E-06   -0.73530E-07  3660   0.199E-03
 176 F= -.85944958E+03 E0= -.85944958E+03  d E =-.495747E-03  mag=    -0.0000
quench:  g(F)=  0.000E+00 g(S)=  0.000E+00 dE (1.order)= 0.000E+00
 bond charge predicted
       N       E                     dE             d eps       ncg     rms          rms(c)
DAV:   1    -0.851546235959E+03    0.56542E-03   -0.79025E-01  4560   0.163E+00    0.165E-01
DAV:   2    -0.851547237013E+03   -0.10011E-02   -0.14352E-02  4740   0.211E-01    0.143E-01
DAV:   3    -0.851547051785E+03    0.18523E-03   -0.37155E-04  5680   0.384E-02    0.108E-01
DAV:   4    -0.851547056617E+03   -0.48320E-05   -0.57915E-04  5220   0.491E-02    0.304E-02
DAV:   5    -0.851547076445E+03   -0.19828E-04   -0.16036E-04  5040   0.208E-02    0.153E-02
DAV:   6    -0.851547086038E+03   -0.95934E-05   -0.11844E-05  4980   0.584E-03    0.728E-03
DAV:   7    -0.851547086462E+03   -0.42397E-06   -0.18438E-06  3700   0.271E-03
 177 F= -.85944969E+03 E0= -.85944969E+03  d E =-.110987E-03  mag=     0.0000
quench:  g(F)=  0.000E+00 g(S)=  0.000E+00 dE (1.order)= 0.000E+00
 bond charge predicted
       N       E                     dE             d eps       ncg     rms          rms(c)
DAV:   1    -0.851547742770E+03   -0.65673E-03   -0.37181E-02  4620   0.378E-01    0.435E-02
DAV:   2    -0.851547807463E+03   -0.64693E-04   -0.96959E-04  5120   0.552E-02    0.395E-02
DAV:   3    -0.851547789535E+03    0.17929E-04   -0.39180E-05  6060   0.115E-02    0.308E-02
DAV:   4    -0.851547776924E+03    0.12610E-04   -0.37921E-05  4620   0.126E-02    0.136E-02
DAV:   5    -0.851547777605E+03   -0.68047E-06   -0.11500E-05  4760   0.591E-03    0.557E-03
DAV:   6    -0.851547778084E+03   -0.47885E-06   -0.90868E-07  3020   0.198E-03
 178 F= -.85945040E+03 E0= -.85945040E+03  d E =-.704107E-03  mag=     0.0000
quench:  g(F)=  0.000E+00 g(S)=  0.000E+00 dE (1.order)= 0.000E+00
 bond charge predicted
       N       E                     dE             d eps       ncg     rms          rms(c)
DAV:   1    -0.851547248592E+03    0.52901E-03   -0.31136E-02  4520   0.353E-01    0.398E-02
DAV:   2    -0.851547303742E+03   -0.55150E-04   -0.80478E-04  5260   0.511E-02    0.358E-02
DAV:   3    -0.851547289699E+03    0.14043E-04   -0.34235E-05  6000   0.108E-02    0.278E-02
DAV:   4    -0.851547279978E+03    0.97208E-05   -0.32101E-05  4660   0.117E-02    0.121E-02
DAV:   5    -0.851547280482E+03   -0.50348E-06   -0.87479E-06  4560   0.524E-03
 179 F= -.85944990E+03 E0= -.85944990E+03  d E =0.500092E-03  mag=     0.0000
quench:  g(F)=  0.000E+00 g(S)=  0.000E+00 dE (1.order)= 0.000E+00
 bond charge predicted
       N       E                     dE             d eps       ncg     rms          rms(c)
DAV:   1    -0.851547536478E+03   -0.25650E-03   -0.20743E-03  4520   0.874E-02    0.104E-02
DAV:   2    -0.851547539728E+03   -0.32500E-05   -0.56238E-05  5040   0.130E-02    0.972E-03
DAV:   3    -0.851547538481E+03    0.12468E-05   -0.20987E-06  4140   0.279E-03    0.771E-03
DAV:   4    -0.851547537560E+03    0.92092E-06   -0.39252E-06  4280   0.380E-03
 180 F= -.85945015E+03 E0= -.85945015E+03  d E =-.252065E-03  mag=    -0.0000
quench:  g(F)=  0.000E+00 g(S)=  0.000E+00 dE (1.order)= 0.000E+00
 bond charge predicted
       N       E                     dE             d eps       ncg     rms          rms(c)
DAV:   1    -0.851547807308E+03   -0.26883E-03   -0.62904E-03  4560   0.152E-01    0.186E-02
DAV:   2    -0.851547817133E+03   -0.98252E-05   -0.15958E-04  5040   0.219E-02    0.168E-02
DAV:   3    -0.851547813917E+03    0.32164E-05   -0.64383E-06  5670   0.471E-03    0.131E-02
DAV:   4    -0.851547812469E+03    0.14476E-05   -0.69982E-06  4400   0.536E-03    0.553E-03
DAV:   5    -0.851547812794E+03   -0.32555E-06   -0.19248E-06  3660   0.239E-03
 181 F= -.85945042E+03 E0= -.85945042E+03  d E =-.266017E-03  mag=    -0.0000
quench:  g(F)=  0.000E+00 g(S)=  0.000E+00 dE (1.order)= 0.000E+00
 bond charge predicted
       N       E                     dE             d eps       ncg     rms          rms(c)
DAV:   1    -0.851547854001E+03   -0.41532E-04   -0.87762E-03  4560   0.179E-01    0.205E-02
DAV:   2    -0.851547868977E+03   -0.14976E-04   -0.22339E-04  5060   0.258E-02    0.183E-02
DAV:   3    -0.851547865093E+03    0.38835E-05   -0.82650E-06  5760   0.529E-03    0.144E-02
DAV:   4    -0.851547863296E+03    0.17974E-05   -0.86434E-06  4460   0.591E-03    0.625E-03
DAV:   5    -0.851547863719E+03   -0.42348E-06   -0.23679E-06  3700   0.267E-03
 182 F= -.85945046E+03 E0= -.85945046E+03  d E =-.387112E-04  mag=     0.0000
quench:  g(F)=  0.000E+00 g(S)=  0.000E+00 dE (1.order)= 0.000E+00
 bond charge predicted
       N       E                     dE             d eps       ncg     rms          rms(c)
DAV:   1    -0.851547868568E+03   -0.52723E-05   -0.89587E-06  4400   0.597E-03    0.146E-03
DAV:   2    -0.851547868558E+03    0.98225E-08   -0.31686E-07  2620   0.107E-03
 183 F= -.85945046E+03 E0= -.85945046E+03  d E =-.481034E-05  mag=    -0.0000
quench:  g(F)=  0.000E+00 g(S)=  0.000E+00 dE (1.order)= 0.000E+00
 bond charge predicted
       N       E                     dE             d eps       ncg     rms          rms(c)
DAV:   1    -0.851547876956E+03   -0.83878E-05   -0.29546E-05  4700   0.108E-02    0.163E-03
DAV:   2    -0.851547876976E+03   -0.20016E-07   -0.61179E-07  2720   0.151E-03
 184 F= -.85945047E+03 E0= -.85945047E+03  d E =-.832968E-05  mag=    -0.0000
quench:  g(F)=  0.000E+00 g(S)=  0.000E+00 dE (1.order)= 0.000E+00
 bond charge predicted
       N       E                     dE             d eps       ncg     rms          rms(c)
DAV:   1    -0.851547887442E+03   -0.10486E-04   -0.62753E-05  4560   0.158E-02    0.255E-03
DAV:   2    -0.851547887477E+03   -0.35070E-07   -0.13103E-06  3200   0.221E-03
 185 F= -.85945048E+03 E0= -.85945048E+03  d E =-.103055E-04  mag=    -0.0000
quench:  g(F)=  0.000E+00 g(S)=  0.000E+00 dE (1.order)= 0.000E+00
 bond charge predicted
       N       E                     dE             d eps       ncg     rms          rms(c)
DAV:   1    -0.851547898204E+03   -0.10762E-04   -0.97941E-05  4540   0.197E-02    0.330E-03
DAV:   2    -0.851547898278E+03   -0.73676E-07   -0.21135E-06  3860   0.272E-03
 186 F= -.85945049E+03 E0= -.85945049E+03  d E =-.103855E-04  mag=     0.0000
quench:  g(F)=  0.000E+00 g(S)=  0.000E+00 dE (1.order)= 0.000E+00
 bond charge predicted
       N       E                     dE             d eps       ncg     rms          rms(c)
DAV:   1    -0.851547908034E+03   -0.98297E-05   -0.13260E-04  4500   0.228E-02    0.394E-03
DAV:   2    -0.851547908115E+03   -0.80625E-07   -0.25981E-06  3830   0.305E-03
 187 F= -.85945050E+03 E0= -.85945050E+03  d E =-.911088E-05  mag=    -0.0000
quench:  g(F)=  0.000E+00 g(S)=  0.000E+00 dE (1.order)= 0.000E+00
 bond charge predicted
       N       E                     dE             d eps       ncg     rms          rms(c)
DAV:   1    -0.851547916413E+03   -0.83787E-05   -0.16224E-04  4560   0.250E-02    0.425E-03
DAV:   2    -0.851547916510E+03   -0.97665E-07   -0.28797E-06  4280   0.321E-03
 188 F= -.85945051E+03 E0= -.85945051E+03  d E =-.727344E-05  mag=     0.0000
quench:  g(F)=  0.000E+00 g(S)=  0.000E+00 dE (1.order)= 0.000E+00
 bond charge predicted
       N       E                     dE             d eps       ncg     rms          rms(c)
DAV:   1    -0.851547924831E+03   -0.84185E-05   -0.23454E-04  4580   0.297E-02    0.472E-03
DAV:   2    -0.851547924975E+03   -0.14387E-06   -0.38113E-06  4260   0.369E-03
 189 F= -.85945051E+03 E0= -.85945051E+03  d E =-.666181E-05  mag=    -0.0000
quench:  g(F)=  0.000E+00 g(S)=  0.000E+00 dE (1.order)= 0.000E+00
 bond charge predicted
       N       E                     dE             d eps       ncg     rms          rms(c)
DAV:   1    -0.851547934890E+03   -0.10059E-04   -0.33958E-04  4560   0.351E-02    0.545E-03
DAV:   2    -0.851547935079E+03   -0.18915E-06   -0.50858E-06  4540   0.424E-03
 190 F= -.85945052E+03 E0= -.85945052E+03  d E =-.734364E-05  mag=    -0.0000
quench:  g(F)=  0.000E+00 g(S)=  0.000E+00 dE (1.order)= 0.000E+00
 bond charge predicted
       N       E                     dE             d eps       ncg     rms          rms(c)
DAV:   1    -0.851547949547E+03   -0.14657E-04   -0.51362E-04  4560   0.425E-02    0.642E-03
DAV:   2    -0.851547949797E+03   -0.25040E-06   -0.72759E-06  4520   0.502E-03
 191 F= -.85945053E+03 E0= -.85945053E+03  d E =-.107071E-04  mag=     0.0000
quench:  g(F)=  0.000E+00 g(S)=  0.000E+00 dE (1.order)= 0.000E+00
 bond charge predicted
       N       E                     dE             d eps       ncg     rms          rms(c)
DAV:   1    -0.851547971978E+03   -0.22431E-04   -0.81699E-04  4560   0.530E-02    0.792E-03
DAV:   2    -0.851547972329E+03   -0.35128E-06   -0.11636E-05  4580   0.629E-03    0.672E-03
DAV:   3    -0.851547972248E+03    0.81127E-07   -0.65586E-07  3020   0.191E-03
 192 F= -.85945055E+03 E0= -.85945055E+03  d E =-.169282E-04  mag=     0.0000
quench:  g(F)=  0.000E+00 g(S)=  0.000E+00 dE (1.order)= 0.000E+00
 bond charge predicted
       N       E                     dE             d eps       ncg     rms          rms(c)
DAV:   1    -0.851548002503E+03   -0.30173E-04   -0.13452E-03  4560   0.678E-02    0.730E-03
DAV:   2    -0.851548003713E+03   -0.12106E-05   -0.20220E-05  4520   0.811E-03    0.636E-03
DAV:   3    -0.851548003498E+03    0.21496E-06   -0.50735E-07  3240   0.162E-03
 193 F= -.85945057E+03 E0= -.85945057E+03  d E =-.239097E-04  mag=     0.0000
quench:  g(F)=  0.000E+00 g(S)=  0.000E+00 dE (1.order)= 0.000E+00
 bond charge predicted
       N       E                     dE             d eps       ncg     rms          rms(c)
DAV:   1    -0.851548038919E+03   -0.35206E-04   -0.21677E-03  4560   0.862E-02    0.925E-03
DAV:   2    -0.851548040845E+03   -0.19254E-05   -0.32980E-05  4540   0.103E-02    0.809E-03
DAV:   3    -0.851548040439E+03    0.40577E-06   -0.88374E-07  3700   0.208E-03
 194 F= -.85945060E+03 E0= -.85945060E+03  d E =-.276593E-04  mag=     0.0000
quench:  g(F)=  0.000E+00 g(S)=  0.000E+00 dE (1.order)= 0.000E+00
 bond charge predicted
       N       E                     dE             d eps       ncg     rms          rms(c)
DAV:   1    -0.851548077338E+03   -0.36493E-04   -0.33220E-03  4560   0.107E-01    0.115E-02
DAV:   2    -0.851548080183E+03   -0.28447E-05   -0.49472E-05  4520   0.127E-02    0.101E-02
DAV:   3    -0.851548079596E+03    0.58637E-06   -0.14214E-06  4080   0.261E-03
 195 F= -.85945063E+03 E0= -.85945063E+03  d E =-.278776E-04  mag=     0.0000
quench:  g(F)=  0.000E+00 g(S)=  0.000E+00 dE (1.order)= 0.000E+00
 bond charge predicted
       N       E                     dE             d eps       ncg     rms          rms(c)
DAV:   1    -0.851548121471E+03   -0.41288E-04   -0.48852E-03  4580   0.130E-01    0.139E-02
DAV:   2    -0.851548125446E+03   -0.39754E-05   -0.69974E-05  4480   0.153E-02    0.122E-02
DAV:   3    -0.851548124671E+03    0.77486E-06   -0.21659E-06  4340   0.322E-03
 196 F= -.85945066E+03 E0= -.85945066E+03  d E =-.319097E-04  mag=     0.0000
quench:  g(F)=  0.000E+00 g(S)=  0.000E+00 dE (1.order)= 0.000E+00
 bond charge predicted
       N       E                     dE             d eps       ncg     rms          rms(c)
DAV:   1    -0.851548178527E+03   -0.53081E-04   -0.71718E-03  4560   0.158E-01    0.169E-02
DAV:   2    -0.851548184220E+03   -0.56927E-05   -0.10018E-04  4480   0.185E-02    0.148E-02
DAV:   3    -0.851548183127E+03    0.10933E-05   -0.33194E-06  4640   0.401E-03    0.100E-02
DAV:   4    -0.851548184418E+03   -0.12915E-05   -0.36521E-06  4000   0.411E-03    0.257E-03
DAV:   5    -0.851548184497E+03   -0.78893E-07   -0.18916E-06  3520   0.228E-03
 197 F= -.85945070E+03 E0= -.85945070E+03  d E =-.442342E-04  mag=    -0.0000
quench:  g(F)=  0.000E+00 g(S)=  0.000E+00 dE (1.order)= 0.000E+00
 bond charge predicted
       N       E                     dE             d eps       ncg     rms          rms(c)
DAV:   1    -0.851548248663E+03   -0.64245E-04   -0.11077E-02  4600   0.197E-01    0.195E-02
DAV:   2    -0.851548258329E+03   -0.96667E-05   -0.16709E-04  4480   0.239E-02    0.171E-02
DAV:   3    -0.851548255842E+03    0.24877E-05   -0.59435E-06  5320   0.523E-03    0.118E-02
DAV:   4    -0.851548256730E+03   -0.88799E-06   -0.51893E-06  4140   0.491E-03
 198 F= -.85945076E+03 E0= -.85945076E+03  d E =-.537122E-04  mag=    -0.0000
quench:  g(F)=  0.000E+00 g(S)=  0.000E+00 dE (1.order)= 0.000E+00
 bond charge predicted
       N       E                     dE             d eps       ncg     rms          rms(c)
DAV:   1    -0.851548321950E+03   -0.66108E-04   -0.17155E-02  4580   0.244E-01    0.248E-02
DAV:   2    -0.851548335997E+03   -0.14047E-04   -0.25263E-04  4480   0.294E-02    0.218E-02
DAV:   3    -0.851548332138E+03    0.38583E-05   -0.95783E-06  5420   0.667E-03    0.148E-02
DAV:   4    -0.851548333794E+03   -0.16551E-05   -0.79828E-06  4560   0.602E-03    0.453E-03
DAV:   5    -0.851548334199E+03   -0.40556E-06   -0.45121E-06  4300   0.339E-03
 199 F= -.85945081E+03 E0= -.85945081E+03  d E =-.543811E-04  mag=     0.0000
quench:  g(F)=  0.000E+00 g(S)=  0.000E+00 dE (1.order)= 0.000E+00
 bond charge predicted
       N       E                     dE             d eps       ncg     rms          rms(c)
DAV:   1    -0.851548405487E+03   -0.71693E-04   -0.26167E-02  4600   0.299E-01    0.298E-02
DAV:   2    -0.851548427375E+03   -0.21889E-04   -0.38583E-04  4480   0.360E-02    0.261E-02
DAV:   3    -0.851548421356E+03    0.60193E-05   -0.13864E-05  5540   0.795E-03    0.179E-02
DAV:   4    -0.851548423600E+03   -0.22435E-05   -0.11926E-05  4640   0.738E-03    0.541E-03
DAV:   5    -0.851548424231E+03   -0.63182E-06   -0.67375E-06  4600   0.409E-03
 200 F= -.85945087E+03 E0= -.85945087E+03  d E =-.605622E-04  mag=     0.0000
quench:  g(F)=  0.000E+00 g(S)=  0.000E+00 dE (1.order)= 0.000E+00
 bond charge predicted
       N       E                     dE             d eps       ncg     rms          rms(c)
DAV:   1    -0.851548508420E+03   -0.84821E-04   -0.40733E-02  4600   0.372E-01    0.371E-02
DAV:   2    -0.851548542577E+03   -0.34157E-04   -0.60264E-04  4480   0.447E-02    0.325E-02
DAV:   3    -0.851548533014E+03    0.95631E-05   -0.21296E-05  5520   0.982E-03    0.225E-02
DAV:   4    -0.851548536550E+03   -0.35367E-05   -0.19044E-05  4640   0.932E-03    0.676E-03
DAV:   5    -0.851548537590E+03   -0.10399E-05   -0.10455E-05  4740   0.508E-03    0.249E-03
DAV:   6    -0.851548537891E+03   -0.30081E-06   -0.23196E-07  3100   0.104E-03
 201 F= -.85945095E+03 E0= -.85945095E+03  d E =-.741320E-04  mag=     0.0000
quench:  g(F)=  0.000E+00 g(S)=  0.000E+00 dE (1.order)= 0.000E+00
 bond charge predicted
       N       E                     dE             d eps       ncg     rms          rms(c)
DAV:   1    -0.851548638382E+03   -0.10079E-03   -0.60303E-02  4580   0.452E-01    0.448E-02
DAV:   2    -0.851548688080E+03   -0.49697E-04   -0.88449E-04  4480   0.540E-02    0.397E-02
DAV:   3    -0.851548673038E+03    0.15041E-04   -0.31908E-05  5460   0.120E-02    0.274E-02
DAV:   4    -0.851548677638E+03   -0.45992E-05   -0.29001E-05  4640   0.114E-02    0.819E-03
DAV:   5    -0.851548679059E+03   -0.14216E-05   -0.16367E-05  4760   0.635E-03    0.295E-03
DAV:   6    -0.851548679507E+03   -0.44804E-06   -0.36357E-07  3040   0.137E-03
 202 F= -.85945104E+03 E0= -.85945104E+03  d E =-.902547E-04  mag=    -0.0000
quench:  g(F)=  0.000E+00 g(S)=  0.000E+00 dE (1.order)= 0.000E+00
 bond charge predicted
       N       E                     dE             d eps       ncg     rms          rms(c)
DAV:   1    -0.851548816931E+03   -0.13787E-03   -0.82552E-02  4600   0.529E-01    0.524E-02
DAV:   2    -0.851548883993E+03   -0.67062E-04   -0.11976E-03  4480   0.631E-02    0.466E-02
DAV:   3    -0.851548863232E+03    0.20761E-04   -0.44836E-05  5480   0.143E-02    0.317E-02
DAV:   4    -0.851548869542E+03   -0.63107E-05   -0.39555E-05  4640   0.133E-02    0.963E-03
DAV:   5    -0.851548871312E+03   -0.17698E-05   -0.23957E-05  4780   0.777E-03    0.335E-03
DAV:   6    -0.851548871867E+03   -0.55459E-06   -0.65359E-07  3020   0.190E-03
 203 F= -.85945117E+03 E0= -.85945117E+03  d E =-.132237E-03  mag=    -0.0000
quench:  g(F)=  0.000E+00 g(S)=  0.000E+00 dE (1.order)= 0.000E+00
 reached required accuracy - stopping structural energy minimisation
