  99  99   0   0
  0.3914025E+02  0.1727104E-08  0.1727104E-08  0.1500000E-08  0.1000000E-15
   1.0000000000000000E-004
  CAR 
 unknown system                          
      4.61588481    -30.92035472  301     -2.32093937      1.00000000
    -30.920  0.0000E+00  0.0000E+00  0.0000E+00  0.0000E+00
    -30.802  0.0000E+00  0.0000E+00  0.0000E+00  0.0000E+00
    -30.683  0.0000E+00  0.0000E+00  0.0000E+00  0.0000E+00
    -30.565  0.0000E+00  0.0000E+00  0.0000E+00  0.0000E+00
    -30.447  0.0000E+00  0.0000E+00  0.0000E+00  0.0000E+00
    -30.328  0.0000E+00  0.0000E+00  0.0000E+00  0.0000E+00
    -30.210  0.0000E+00  0.0000E+00  0.0000E+00  0.0000E+00
    -30.091  0.0000E+00  0.0000E+00  0.0000E+00  0.0000E+00
    -29.973  0.0000E+00  0.0000E+00  0.0000E+00  0.0000E+00
    -29.854  0.0000E+00  0.0000E+00  0.0000E+00  0.0000E+00
    -29.736  0.0000E+00  0.0000E+00  0.0000E+00  0.0000E+00
    -29.617  0.0000E+00  0.0000E+00  0.0000E+00  0.0000E+00
    -29.499  0.7459E-09  0.7459E-09  0.8835E-10  0.8835E-10
    -29.380  0.7201E-03  0.7201E-03  0.8530E-04  0.8530E-04
    -29.262  0.4788E-01  0.4788E-01  0.5757E-02  0.5757E-02
    -29.144  0.7679E-02  0.7679E-02  0.6667E-02  0.6667E-02
    -29.025  0.2698E-06  0.2698E-06  0.6667E-02  0.6667E-02
    -28.907  0.2406E-15  0.2406E-15  0.6667E-02  0.6667E-02
    -28.788  0.0000E+00  0.0000E+00  0.6667E-02  0.6667E-02
    -28.670  0.0000E+00  0.0000E+00  0.6667E-02  0.6667E-02
    -28.551  0.0000E+00  0.0000E+00  0.6667E-02  0.6667E-02
    -28.433  0.0000E+00  0.0000E+00  0.6667E-02  0.6667E-02
    -28.314  0.0000E+00  0.0000E+00  0.6667E-02  0.6667E-02
    -28.196  0.0000E+00  0.0000E+00  0.6667E-02  0.6667E-02
    -28.077  0.0000E+00  0.0000E+00  0.6667E-02  0.6667E-02
    -27.959  0.0000E+00  0.0000E+00  0.6667E-02  0.6667E-02
    -27.841  0.0000E+00  0.0000E+00  0.6667E-02  0.6667E-02
    -27.722  0.0000E+00  0.0000E+00  0.6667E-02  0.6667E-02
    -27.604  0.0000E+00  0.0000E+00  0.6667E-02  0.6667E-02
    -27.485  0.0000E+00  0.0000E+00  0.6667E-02  0.6667E-02
    -27.367  0.0000E+00  0.0000E+00  0.6667E-02  0.6667E-02
    -27.248  0.0000E+00  0.0000E+00  0.6667E-02  0.6667E-02
    -27.130  0.0000E+00  0.0000E+00  0.6667E-02  0.6667E-02
    -27.011  0.0000E+00  0.0000E+00  0.6667E-02  0.6667E-02
    -26.893  0.0000E+00  0.0000E+00  0.6667E-02  0.6667E-02
    -26.774  0.0000E+00  0.0000E+00  0.6667E-02  0.6667E-02
    -26.656  0.0000E+00  0.0000E+00  0.6667E-02  0.6667E-02
    -26.538  0.0000E+00  0.0000E+00  0.6667E-02  0.6667E-02
    -26.419  0.0000E+00  0.0000E+00  0.6667E-02  0.6667E-02
    -26.301  0.0000E+00  0.0000E+00  0.6667E-02  0.6667E-02
    -26.182  0.0000E+00  0.0000E+00  0.6667E-02  0.6667E-02
    -26.064  0.0000E+00  0.0000E+00  0.6667E-02  0.6667E-02
    -25.945  0.0000E+00  0.0000E+00  0.6667E-02  0.6667E-02
    -25.827  0.0000E+00  0.0000E+00  0.6667E-02  0.6667E-02
    -25.708  0.0000E+00  0.0000E+00  0.6667E-02  0.6667E-02
    -25.590  0.0000E+00  0.0000E+00  0.6667E-02  0.6667E-02
    -25.471  0.0000E+00  0.0000E+00  0.6667E-02  0.6667E-02
    -25.353  0.0000E+00  0.0000E+00  0.6667E-02  0.6667E-02
    -25.235  0.0000E+00  0.0000E+00  0.6667E-02  0.6667E-02
    -25.116  0.0000E+00  0.0000E+00  0.6667E-02  0.6667E-02
    -24.998  0.0000E+00  0.0000E+00  0.6667E-02  0.6667E-02
    -24.879  0.0000E+00  0.0000E+00  0.6667E-02  0.6667E-02
    -24.761  0.0000E+00  0.0000E+00  0.6667E-02  0.6667E-02
    -24.642  0.0000E+00  0.0000E+00  0.6667E-02  0.6667E-02
    -24.524  0.0000E+00  0.0000E+00  0.6667E-02  0.6667E-02
    -24.405  0.0000E+00  0.0000E+00  0.6667E-02  0.6667E-02
    -24.287  0.0000E+00  0.0000E+00  0.6667E-02  0.6667E-02
    -24.168  0.0000E+00  0.0000E+00  0.6667E-02  0.6667E-02
    -24.050  0.9459E-13  0.9459E-13  0.6667E-02  0.6667E-02
    -23.932  0.6233E-05  0.6233E-05  0.6667E-02  0.6667E-02
    -23.813  0.1225E-01  0.1225E-01  0.8118E-02  0.8118E-02
    -23.695  0.1587E-01  0.1587E-01  0.9998E-02  0.9998E-02
    -23.576  0.2017E-04  0.2017E-04  0.1000E-01  0.1000E-01
    -23.458  0.8765E-12  0.8765E-12  0.1000E-01  0.1000E-01
    -23.339  0.0000E+00  0.0000E+00  0.1000E-01  0.1000E-01
    -23.221  0.0000E+00  0.0000E+00  0.1000E-01  0.1000E-01
    -23.102  0.0000E+00  0.0000E+00  0.1000E-01  0.1000E-01
    -22.984  0.0000E+00  0.0000E+00  0.1000E-01  0.1000E-01
    -22.865  0.0000E+00  0.0000E+00  0.1000E-01  0.1000E-01
    -22.747  0.0000E+00  0.0000E+00  0.1000E-01  0.1000E-01
    -22.629  0.0000E+00  0.0000E+00  0.1000E-01  0.1000E-01
    -22.510  0.0000E+00  0.0000E+00  0.1000E-01  0.1000E-01
    -22.392  0.0000E+00  0.0000E+00  0.1000E-01  0.1000E-01
    -22.273  0.0000E+00  0.0000E+00  0.1000E-01  0.1000E-01
    -22.155  0.0000E+00  0.0000E+00  0.1000E-01  0.1000E-01
    -22.036  0.9763E-19  0.9763E-19  0.1000E-01  0.1000E-01
    -21.918  0.9957E-09  0.9957E-09  0.1000E-01  0.1000E-01
    -21.799  0.2627E-03  0.2627E-03  0.1003E-01  0.1003E-01
    -21.681  0.1834E-01  0.1834E-01  0.1220E-01  0.1220E-01
    -21.562  0.2188E-01  0.2188E-01  0.1480E-01  0.1480E-01
    -21.444  0.1578E-01  0.1578E-01  0.1667E-01  0.1667E-01
    -21.326  0.2714E-01  0.2714E-01  0.1988E-01  0.1988E-01
    -21.207  0.1714E-01  0.1714E-01  0.2191E-01  0.2191E-01
    -21.089  0.2791E-01  0.2791E-01  0.2522E-01  0.2522E-01
    -20.970  0.1960E-01  0.1960E-01  0.2754E-01  0.2754E-01
    -20.852  0.2308E-01  0.2308E-01  0.3027E-01  0.3027E-01
    -20.733  0.2016E-01  0.2016E-01  0.3266E-01  0.3266E-01
    -20.615  0.2013E-01  0.2013E-01  0.3505E-01  0.3505E-01
    -20.496  0.2625E-01  0.2625E-01  0.3815E-01  0.3815E-01
    -20.378  0.2206E-01  0.2206E-01  0.4077E-01  0.4077E-01
    -20.259  0.2285E-01  0.2285E-01  0.4347E-01  0.4347E-01
    -20.141  0.3228E-01  0.3228E-01  0.4730E-01  0.4730E-01
    -20.023  0.1222E-01  0.1222E-01  0.4875E-01  0.4875E-01
    -19.904  0.1642E-01  0.1642E-01  0.5069E-01  0.5069E-01
    -19.786  0.3979E-01  0.3979E-01  0.5540E-01  0.5540E-01
    -19.667  0.1915E-01  0.1915E-01  0.5767E-01  0.5767E-01
    -19.549  0.1245E-01  0.1245E-01  0.5915E-01  0.5915E-01
    -19.430  0.3074E-01  0.3074E-01  0.6279E-01  0.6279E-01
    -19.312  0.3369E-01  0.3369E-01  0.6678E-01  0.6678E-01
    -19.193  0.1287E-01  0.1287E-01  0.6830E-01  0.6830E-01
    -19.075  0.1310E-01  0.1310E-01  0.6985E-01  0.6985E-01
    -18.956  0.4114E-01  0.4114E-01  0.7473E-01  0.7473E-01
    -18.838  0.2199E-01  0.2199E-01  0.7733E-01  0.7733E-01
    -18.720  0.1822E-01  0.1822E-01  0.7949E-01  0.7949E-01
    -18.601  0.1932E-01  0.1932E-01  0.8178E-01  0.8178E-01
    -18.483  0.3345E-01  0.3345E-01  0.8574E-01  0.8574E-01
    -18.364  0.3075E-01  0.3075E-01  0.8938E-01  0.8938E-01
    -18.246  0.1001E-01  0.1001E-01  0.9057E-01  0.9057E-01
    -18.127  0.2278E-01  0.2278E-01  0.9327E-01  0.9327E-01
    -18.009  0.3080E-01  0.3080E-01  0.9692E-01  0.9692E-01
    -17.890  0.3810E-01  0.3810E-01  0.1014E+00  0.1014E+00
    -17.772  0.1731E-01  0.1731E-01  0.1035E+00  0.1035E+00
    -17.653  0.1815E-01  0.1815E-01  0.1056E+00  0.1056E+00
    -17.535  0.1908E-01  0.1908E-01  0.1079E+00  0.1079E+00
    -17.417  0.3225E-01  0.3225E-01  0.1117E+00  0.1117E+00
    -17.298  0.3752E-01  0.3752E-01  0.1162E+00  0.1162E+00
    -17.180  0.2196E-01  0.2196E-01  0.1188E+00  0.1188E+00
    -17.061  0.2032E-01  0.2032E-01  0.1212E+00  0.1212E+00
    -16.943  0.2134E-01  0.2134E-01  0.1237E+00  0.1237E+00
    -16.824  0.3693E-01  0.3693E-01  0.1281E+00  0.1281E+00
    -16.706  0.4355E-01  0.4355E-01  0.1332E+00  0.1332E+00
    -16.587  0.2821E-01  0.2821E-01  0.1366E+00  0.1366E+00
    -16.469  0.2062E-01  0.2062E-01  0.1390E+00  0.1390E+00
    -16.350  0.1700E-01  0.1700E-01  0.1410E+00  0.1410E+00
    -16.232  0.3163E-01  0.3163E-01  0.1448E+00  0.1448E+00
    -16.114  0.1718E-01  0.1718E-01  0.1468E+00  0.1468E+00
    -15.995  0.1428E-01  0.1428E-01  0.1485E+00  0.1485E+00
    -15.877  0.1153E-01  0.1153E-01  0.1499E+00  0.1499E+00
    -15.758  0.2324E-01  0.2324E-01  0.1526E+00  0.1526E+00
    -15.640  0.1125E-01  0.1125E-01  0.1539E+00  0.1539E+00
    -15.521  0.7442E-02  0.7442E-02  0.1548E+00  0.1548E+00
    -15.403  0.1526E-01  0.1526E-01  0.1566E+00  0.1566E+00
    -15.284  0.1669E-01  0.1669E-01  0.1586E+00  0.1586E+00
    -15.166  0.3658E-01  0.3658E-01  0.1629E+00  0.1629E+00
    -15.048  0.2564E-01  0.2564E-01  0.1660E+00  0.1660E+00
    -14.929  0.2328E-01  0.2328E-01  0.1687E+00  0.1687E+00
    -14.811  0.3526E-01  0.3526E-01  0.1729E+00  0.1729E+00
    -14.692  0.2674E-01  0.2674E-01  0.1761E+00  0.1761E+00
    -14.574  0.2844E-01  0.2844E-01  0.1795E+00  0.1795E+00
    -14.455  0.3754E-01  0.3754E-01  0.1839E+00  0.1839E+00
    -14.337  0.2879E-01  0.2879E-01  0.1873E+00  0.1873E+00
    -14.218  0.2911E-01  0.2911E-01  0.1908E+00  0.1908E+00
    -14.100  0.2541E-01  0.2541E-01  0.1938E+00  0.1938E+00
    -13.981  0.2922E-01  0.2922E-01  0.1972E+00  0.1972E+00
    -13.863  0.2496E-01  0.2496E-01  0.2002E+00  0.2002E+00
    -13.745  0.2095E-01  0.2095E-01  0.2027E+00  0.2027E+00
    -13.626  0.2001E-01  0.2001E-01  0.2050E+00  0.2050E+00
    -13.508  0.2814E-01  0.2814E-01  0.2084E+00  0.2084E+00
    -13.389  0.2858E-01  0.2858E-01  0.2118E+00  0.2118E+00
    -13.271  0.2380E-01  0.2380E-01  0.2146E+00  0.2146E+00
    -13.152  0.2262E-01  0.2262E-01  0.2173E+00  0.2173E+00
    -13.034  0.1585E-01  0.1585E-01  0.2191E+00  0.2191E+00
    -12.915  0.2021E-01  0.2021E-01  0.2215E+00  0.2215E+00
    -12.797  0.2381E-01  0.2381E-01  0.2243E+00  0.2243E+00
    -12.678  0.2808E-01  0.2808E-01  0.2277E+00  0.2277E+00
    -12.560  0.3156E-01  0.3156E-01  0.2314E+00  0.2314E+00
    -12.442  0.3477E-01  0.3477E-01  0.2355E+00  0.2355E+00
    -12.323  0.2381E-01  0.2381E-01  0.2383E+00  0.2383E+00
    -12.205  0.3003E-01  0.3003E-01  0.2419E+00  0.2419E+00
    -12.086  0.2910E-01  0.2910E-01  0.2454E+00  0.2454E+00
    -11.968  0.2816E-01  0.2816E-01  0.2487E+00  0.2487E+00
    -11.849  0.2736E-01  0.2736E-01  0.2519E+00  0.2519E+00
    -11.731  0.3670E-01  0.3670E-01  0.2563E+00  0.2563E+00
    -11.612  0.4906E-01  0.4906E-01  0.2621E+00  0.2621E+00
    -11.494  0.4223E-01  0.4223E-01  0.2671E+00  0.2671E+00
    -11.375  0.2478E-01  0.2478E-01  0.2700E+00  0.2700E+00
    -11.257  0.3160E-01  0.3160E-01  0.2738E+00  0.2738E+00
    -11.139  0.3258E-01  0.3258E-01  0.2776E+00  0.2776E+00
    -11.020  0.3677E-01  0.3677E-01  0.2820E+00  0.2820E+00
    -10.902  0.2978E-01  0.2978E-01  0.2855E+00  0.2855E+00
    -10.783  0.2874E-01  0.2874E-01  0.2889E+00  0.2889E+00
    -10.665  0.3026E-01  0.3026E-01  0.2925E+00  0.2925E+00
    -10.546  0.3851E-01  0.3851E-01  0.2971E+00  0.2971E+00
    -10.428  0.3652E-01  0.3652E-01  0.3014E+00  0.3014E+00
    -10.309  0.3753E-01  0.3753E-01  0.3058E+00  0.3058E+00
    -10.191  0.2669E-01  0.2669E-01  0.3090E+00  0.3090E+00
    -10.072  0.3565E-01  0.3565E-01  0.3132E+00  0.3132E+00
     -9.954  0.6673E-01  0.6673E-01  0.3211E+00  0.3211E+00
     -9.836  0.6019E-01  0.6019E-01  0.3283E+00  0.3283E+00
     -9.717  0.4340E-01  0.4340E-01  0.3334E+00  0.3334E+00
     -9.599  0.5848E-01  0.5848E-01  0.3403E+00  0.3403E+00
     -9.480  0.6051E-01  0.6051E-01  0.3475E+00  0.3475E+00
     -9.362  0.4856E-01  0.4856E-01  0.3532E+00  0.3532E+00
     -9.243  0.7572E-01  0.7572E-01  0.3622E+00  0.3622E+00
     -9.125  0.5136E-01  0.5136E-01  0.3683E+00  0.3683E+00
     -9.006  0.7494E-01  0.7494E-01  0.3772E+00  0.3772E+00
     -8.888  0.7724E-01  0.7724E-01  0.3863E+00  0.3863E+00
     -8.769  0.7036E-01  0.7036E-01  0.3947E+00  0.3947E+00
     -8.651  0.8374E-01  0.8374E-01  0.4046E+00  0.4046E+00
     -8.533  0.6905E-01  0.6905E-01  0.4128E+00  0.4128E+00
     -8.414  0.8202E-01  0.8202E-01  0.4225E+00  0.4225E+00
     -8.296  0.5821E-01  0.5821E-01  0.4294E+00  0.4294E+00
     -8.177  0.6022E-01  0.6022E-01  0.4365E+00  0.4365E+00
     -8.059  0.6288E-01  0.6288E-01  0.4440E+00  0.4440E+00
     -7.940  0.7201E-01  0.7201E-01  0.4525E+00  0.4525E+00
     -7.822  0.5935E-01  0.5935E-01  0.4595E+00  0.4595E+00
     -7.703  0.6177E-01  0.6177E-01  0.4668E+00  0.4668E+00
     -7.585  0.5954E-01  0.5954E-01  0.4739E+00  0.4739E+00
     -7.466  0.6243E-01  0.6243E-01  0.4813E+00  0.4813E+00
     -7.348  0.4293E-01  0.4293E-01  0.4864E+00  0.4864E+00
     -7.230  0.4812E-01  0.4812E-01  0.4921E+00  0.4921E+00
     -7.111  0.6142E-01  0.6142E-01  0.4993E+00  0.4993E+00
     -6.993  0.5260E-01  0.5260E-01  0.5056E+00  0.5056E+00
     -6.874  0.3974E-01  0.3974E-01  0.5103E+00  0.5103E+00
     -6.756  0.3624E-01  0.3624E-01  0.5146E+00  0.5146E+00
     -6.637  0.5830E-01  0.5830E-01  0.5215E+00  0.5215E+00
     -6.519  0.5888E-01  0.5888E-01  0.5284E+00  0.5284E+00
     -6.400  0.3616E-01  0.3616E-01  0.5327E+00  0.5327E+00
     -6.282  0.3672E-01  0.3672E-01  0.5371E+00  0.5371E+00
     -6.163  0.4453E-01  0.4453E-01  0.5424E+00  0.5424E+00
     -6.045  0.5482E-01  0.5482E-01  0.5489E+00  0.5489E+00
     -5.927  0.4399E-01  0.4399E-01  0.5541E+00  0.5541E+00
     -5.808  0.3719E-01  0.3719E-01  0.5585E+00  0.5585E+00
     -5.690  0.5661E-01  0.5661E-01  0.5652E+00  0.5652E+00
     -5.571  0.5726E-01  0.5726E-01  0.5720E+00  0.5720E+00
     -5.453  0.5345E-01  0.5345E-01  0.5783E+00  0.5783E+00
     -5.334  0.2321E-01  0.2321E-01  0.5810E+00  0.5810E+00
     -5.216  0.2306E-01  0.2306E-01  0.5838E+00  0.5838E+00
     -5.097  0.2438E-01  0.2438E-01  0.5867E+00  0.5867E+00
     -4.979  0.2449E-01  0.2449E-01  0.5896E+00  0.5896E+00
     -4.860  0.3881E-01  0.3881E-01  0.5942E+00  0.5942E+00
     -4.742  0.3962E-01  0.3962E-01  0.5988E+00  0.5988E+00
     -4.624  0.3050E-01  0.3050E-01  0.6025E+00  0.6025E+00
     -4.505  0.2624E-01  0.2624E-01  0.6056E+00  0.6056E+00
     -4.387  0.3893E-01  0.3893E-01  0.6102E+00  0.6102E+00
     -4.268  0.2770E-01  0.2770E-01  0.6135E+00  0.6135E+00
     -4.150  0.2063E-01  0.2063E-01  0.6159E+00  0.6159E+00
     -4.031  0.1549E-01  0.1549E-01  0.6177E+00  0.6177E+00
     -3.913  0.1767E-01  0.1767E-01  0.6198E+00  0.6198E+00
     -3.794  0.1102E-01  0.1102E-01  0.6211E+00  0.6211E+00
     -3.676  0.2244E-01  0.2244E-01  0.6238E+00  0.6238E+00
     -3.557  0.1021E-01  0.1021E-01  0.6250E+00  0.6250E+00
     -3.439  0.7789E-02  0.7789E-02  0.6259E+00  0.6259E+00
     -3.321  0.1352E-01  0.1352E-01  0.6275E+00  0.6275E+00
     -3.202  0.1053E-01  0.1053E-01  0.6288E+00  0.6288E+00
     -3.084  0.1319E-01  0.1319E-01  0.6303E+00  0.6303E+00
     -2.965  0.2576E-02  0.2576E-02  0.6306E+00  0.6306E+00
     -2.847  0.4983E-02  0.4983E-02  0.6312E+00  0.6312E+00
     -2.728  0.5590E-02  0.5590E-02  0.6319E+00  0.6319E+00
     -2.610  0.5120E-02  0.5120E-02  0.6325E+00  0.6325E+00
     -2.491  0.2805E-02  0.2805E-02  0.6328E+00  0.6328E+00
     -2.373  0.3965E-02  0.3965E-02  0.6333E+00  0.6333E+00
     -2.254  0.7825E-03  0.7825E-03  0.6334E+00  0.6334E+00
     -2.136  0.4464E-02  0.4464E-02  0.6339E+00  0.6339E+00
     -2.018  0.2111E-02  0.2111E-02  0.6342E+00  0.6342E+00
     -1.899  0.5618E-02  0.5618E-02  0.6348E+00  0.6348E+00
     -1.781  0.7196E-02  0.7196E-02  0.6357E+00  0.6357E+00
     -1.662  0.3029E-02  0.3029E-02  0.6361E+00  0.6361E+00
     -1.544  0.5645E-02  0.5645E-02  0.6367E+00  0.6367E+00
     -1.425  0.1491E-01  0.1491E-01  0.6385E+00  0.6385E+00
     -1.307  0.1060E-01  0.1060E-01  0.6397E+00  0.6397E+00
     -1.188  0.1609E-01  0.1609E-01  0.6416E+00  0.6416E+00
     -1.070  0.1661E-01  0.1661E-01  0.6436E+00  0.6436E+00
     -0.951  0.1786E-01  0.1786E-01  0.6457E+00  0.6457E+00
     -0.833  0.9035E-02  0.9035E-02  0.6468E+00  0.6468E+00
     -0.715  0.3464E-01  0.3464E-01  0.6509E+00  0.6509E+00
     -0.596  0.2910E-01  0.2910E-01  0.6544E+00  0.6544E+00
     -0.478  0.2804E-01  0.2804E-01  0.6577E+00  0.6577E+00
     -0.359  0.5258E-01  0.5258E-01  0.6639E+00  0.6639E+00
     -0.241  0.3677E-01  0.3677E-01  0.6683E+00  0.6683E+00
     -0.122  0.1932E-01  0.1932E-01  0.6705E+00  0.6705E+00
     -0.004  0.1299E-01  0.1299E-01  0.6721E+00  0.6721E+00
      0.115  0.2267E-01  0.2267E-01  0.6748E+00  0.6748E+00
      0.233  0.3184E-01  0.3184E-01  0.6785E+00  0.6785E+00
      0.352  0.3849E-01  0.3849E-01  0.6831E+00  0.6831E+00
      0.470  0.1641E-01  0.1641E-01  0.6850E+00  0.6850E+00
      0.588  0.3155E-01  0.3156E-01  0.6888E+00  0.6888E+00
      0.707  0.1874E-01  0.1874E-01  0.6910E+00  0.6910E+00
      0.825  0.2004E-01  0.2004E-01  0.6934E+00  0.6934E+00
      0.944  0.2352E-01  0.2352E-01  0.6962E+00  0.6962E+00
      1.062  0.3787E-01  0.3787E-01  0.7006E+00  0.7006E+00
      1.181  0.4174E-01  0.4174E-01  0.7056E+00  0.7056E+00
      1.299  0.2368E-01  0.2368E-01  0.7084E+00  0.7084E+00
      1.418  0.3553E-01  0.3553E-01  0.7126E+00  0.7126E+00
      1.536  0.3690E-01  0.3690E-01  0.7170E+00  0.7170E+00
      1.655  0.4284E-01  0.4284E-01  0.7221E+00  0.7221E+00
      1.773  0.4857E-01  0.4857E-01  0.7278E+00  0.7278E+00
      1.891  0.3976E-01  0.3976E-01  0.7325E+00  0.7325E+00
      2.010  0.5448E-01  0.5448E-01  0.7390E+00  0.7390E+00
      2.128  0.5051E-01  0.5051E-01  0.7450E+00  0.7450E+00
      2.247  0.5462E-01  0.5462E-01  0.7514E+00  0.7514E+00
      2.365  0.6935E-01  0.6935E-01  0.7596E+00  0.7596E+00
      2.484  0.7296E-01  0.7296E-01  0.7683E+00  0.7683E+00
      2.602  0.7674E-01  0.7674E-01  0.7774E+00  0.7774E+00
      2.721  0.5850E-01  0.5850E-01  0.7843E+00  0.7843E+00
      2.839  0.7743E-01  0.7742E-01  0.7935E+00  0.7935E+00
      2.958  0.4898E-01  0.4898E-01  0.7993E+00  0.7993E+00
      3.076  0.6071E-02  0.6072E-02  0.8000E+00  0.8000E+00
      3.194  0.5851E-04  0.5850E-04  0.8000E+00  0.8000E+00
      3.313  0.7378E-10  0.7375E-10  0.8000E+00  0.8000E+00
      3.431  0.0000E+00  0.0000E+00  0.8000E+00  0.8000E+00
      3.550  0.0000E+00  0.0000E+00  0.8000E+00  0.8000E+00
      3.668  0.0000E+00  0.0000E+00  0.8000E+00  0.8000E+00
      3.787  0.0000E+00  0.0000E+00  0.8000E+00  0.8000E+00
      3.905  0.0000E+00  0.0000E+00  0.8000E+00  0.8000E+00
      4.024  0.0000E+00  0.0000E+00  0.8000E+00  0.8000E+00
      4.142  0.0000E+00  0.0000E+00  0.8000E+00  0.8000E+00
      4.261  0.0000E+00  0.0000E+00  0.8000E+00  0.8000E+00
      4.379  0.0000E+00  0.0000E+00  0.8000E+00  0.8000E+00
      4.497  0.0000E+00  0.0000E+00  0.8000E+00  0.8000E+00
      4.616  0.0000E+00  0.0000E+00  0.8000E+00  0.8000E+00
