<?xml version="1.0" encoding="ISO-8859-1"?>
<modeling>
 <generator>
  <i name="program" type="string">vasp </i>
  <i name="version" type="string">6.4.2  </i>
  <i name="subversion" type="string">20Jul23 (build Jan 24 2024 13:44:02) complex                          parallel </i>
  <i name="platform" type="string">LinuxNV </i>
  <i name="date" type="string">2025 11 25 </i>
  <i name="time" type="string">12:09:16 </i>
 </generator>
 <incar>
  <i type="int" name="ISTART">     0</i>
  <i type="string" name="ALGO">Normal</i>
  <i type="logical" name="ADDGRID"> T  </i>
  <i type="int" name="ISPIN">     2</i>
  <i type="int" name="IMIX">     4</i>
  <i name="AMIX">      0.20000000</i>
  <i name="BMIX">      0.00010000</i>
  <i name="AMIX_MAG">      0.80000000</i>
  <i name="BMIX_MAG">      0.00010000</i>
  <i type="int" name="ICHARG">     2</i>
  <i type="int" name="NELM">   200</i>
  <i type="int" name="IBRION">     2</i>
  <i name="EDIFF">      0.00000100</i>
  <i name="EDIFFG">     -0.01000000</i>
  <i type="int" name="NSW">   300</i>
  <i type="int" name="ISIF">     2</i>
  <i type="int" name="ISYM">     0</i>
  <i name="ENCUT">    520.00000000</i>
  <i name="POTIM">      0.10000000</i>
  <v name="MAGMOM">      0.00000000      0.00000000      0.00000000      0.00000000      0.00000000      0.00000000      0.00000000      0.00000000      0.00000000      0.00000000      0.00000000      0.00000000      0.00000000      0.00000000      0.00000000      0.00000000      0.00000000      0.00000000      0.00000000      0.00000000
      0.00000000      0.00000000      0.00000000      0.00000000      0.00000000      0.00000000      0.00000000      0.00000000      0.00000000      0.00000000      0.00000000      0.00000000      0.00000000      0.00000000      0.00000000      0.00000000      0.00000000      0.00000000      0.00000000      0.00000000
      0.00000000      0.00000000      0.00000000      0.00000000      0.00000000      0.00000000      0.00000000      0.00000000      0.00000000      0.00000000      0.00000000      0.00000000      0.00000000      0.00000000      0.00000000      0.00000000      0.00000000      0.00000000      0.00000000      0.00000000
      0.00000000      0.00000000      0.00000000      0.00000000      0.00000000      0.00000000      0.00000000      0.00000000      0.00000000      0.00000000      0.00000000      0.00000000      0.00000000      0.00000000      0.00000000      0.00000000      0.00000000      0.00000000      0.00000000      0.00000000
      0.00000000      0.00000000      0.00000000      0.00000000      0.00000000      0.00000000      0.00000000      0.00000000      0.00000000      0.00000000      0.00000000      0.00000000      0.00000000      0.00000000      0.00000000      0.00000000      0.00000000      0.00000000      0.00000000</v>
  <i type="logical" name="LREAL"> F  </i>
  <i type="int" name="ISMEAR">     0</i>
  <i name="SIGMA">      0.05000000</i>
  <i type="logical" name="LWAVE"> F  </i>
  <i type="logical" name="LCHARG"> F  </i>
  <i type="logical" name="LASPH"> T  </i>
  <i type="int" name="IVDW">    12</i>
 </incar>
 <primitive_cell>
  <structure name="primitive_cell" >
   <crystal>
    <varray name="basis" >
     <v>      17.27103806       0.00000000       0.00000000 </v>
     <v>      -8.63551903      14.95715771       0.00000000 </v>
     <v>       0.00000000       0.00000000      15.00000000 </v>
    </varray>
    <i name="volume">   3874.88459904 </i>
    <varray name="rec_basis" >
     <v>       0.05790040       0.03342881      -0.00000000 </v>
     <v>       0.00000000       0.06685762       0.00000000 </v>
     <v>       0.00000000      -0.00000000       0.06666667 </v>
    </varray>
   </crystal>
   <varray name="positions" >
    <v>       0.99996937       0.99999250       0.50103877 </v>
    <v>       0.99949250       0.14255116       0.50147238 </v>
    <v>       0.99926123       0.28540108       0.50265230 </v>
    <v>       0.99949763       0.42844924       0.50429358 </v>
    <v>       0.00009971       0.57156503       0.50420045 </v>
    <v>       0.00114451       0.71479680       0.50223958 </v>
    <v>       0.00103042       0.85790516       0.50074929 </v>
    <v>       0.14326463       0.00056061       0.50098710 </v>
    <v>       0.14282373       0.14320235       0.49871474 </v>
    <v>       0.14159959       0.28508093       0.49646763 </v>
    <v>       0.14148659       0.42824230       0.49834271 </v>
    <v>       0.14260477       0.57127123       0.50220673 </v>
    <v>       0.14324477       0.71441607       0.50385454 </v>
    <v>       0.14339130       0.85756914       0.50317045 </v>
    <v>       0.28575758       0.99998530       0.50208401 </v>
    <v>       0.28572836       0.14280099       0.49668011 </v>
    <v>       0.28591935       0.28664162       0.48733625 </v>
    <v>       0.28219332       0.42809360       0.48286386 </v>
    <v>       0.28529642       0.57033784       0.49284633 </v>
    <v>       0.28556906       0.71444362       0.50129019 </v>
    <v>       0.28570077       0.85737947       0.50379605 </v>
    <v>       0.42862597       0.99998815       0.50358790 </v>
    <v>       0.42847227       0.14228128       0.50113008 </v>
    <v>       0.42730131       0.28203417       0.49679495 </v>
    <v>       0.42673271       0.71591549       0.49985886 </v>
    <v>       0.42829795       0.85730243       0.50305295 </v>
    <v>       0.57127628       0.00037079       0.50329422 </v>
    <v>       0.57137727       0.14267057       0.50370396 </v>
    <v>       0.57223317       0.28599315       0.50207721 </v>
    <v>       0.57204460       0.85816288       0.50101051 </v>
    <v>       0.71417631       0.00001114       0.50076340 </v>
    <v>       0.71429900       0.14286006       0.50413253 </v>
    <v>       0.71429147       0.28569135       0.50369521 </v>
    <v>       0.71376418       0.42776526       0.49849843 </v>
    <v>       0.71837071       0.57320451       0.48285208 </v>
    <v>       0.72115994       0.71653992       0.47612348 </v>
    <v>       0.71323190       0.85718100       0.49302934 </v>
    <v>       0.85699190       0.99995235       0.49889530 </v>
    <v>       0.85675388       0.14268095       0.50281371 </v>
    <v>       0.85678801       0.28550910       0.50475794 </v>
    <v>       0.85716723       0.42855080       0.50316706 </v>
    <v>       0.85792505       0.57190524       0.49851926 </v>
    <v>       0.85983494       0.71543796       0.49385784 </v>
    <v>       0.85755922       0.85695567       0.49533767 </v>
    <v>       0.04754963       0.09534047       0.50094200 </v>
    <v>       0.04652043       0.23748337       0.50079761 </v>
    <v>       0.04642652       0.38054378       0.50248467 </v>
    <v>       0.04753692       0.52380085       0.50412188 </v>
    <v>       0.04809140       0.66690175       0.50385282 </v>
    <v>       0.04829290       0.80997788       0.50227053 </v>
    <v>       0.04805993       0.95281815       0.50132711 </v>
    <v>       0.19056851       0.09540409       0.49843196 </v>
    <v>       0.18997045       0.23833562       0.49495328 </v>
    <v>       0.18772033       0.37985458       0.49338351 </v>
    <v>       0.18970363       0.52341604       0.49811269 </v>
    <v>       0.19042888       0.66678833       0.50248941 </v>
    <v>       0.19077493       0.80983438       0.50381011 </v>
    <v>       0.19082732       0.95269894       0.50210577 </v>
    <v>       0.33335712       0.09531430       0.50003720 </v>
    <v>       0.33434356       0.23814137       0.49257732 </v>
    <v>       0.32646880       0.37871430       0.47566693 </v>
    <v>       0.32922801       0.52203239       0.48237723 </v>
    <v>       0.33379986       0.66749320       0.49794048 </v>
    <v>       0.33324036       0.80955675       0.50313806 </v>
    <v>       0.33324441       0.95242508       0.50340061 </v>
    <v>       0.47623183       0.09489789       0.50303107 </v>
    <v>       0.47549650       0.23712648       0.50065807 </v>
    <v>       0.47532247       0.80928992       0.50198184 </v>
    <v>       0.47612132       0.95257347       0.50360237 </v>
    <v>       0.61890396       0.09528287       0.50387314 </v>
    <v>       0.61923533       0.23797039       0.50326353 </v>
    <v>       0.62084624       0.37938521       0.50028798 </v>
    <v>       0.62028810       0.81329052       0.49730406 </v>
    <v>       0.61907710       0.95300346       0.50164335 </v>
    <v>       0.76181694       0.09532476       0.50291564 </v>
    <v>       0.76184831       0.23789524       0.50467264 </v>
    <v>       0.76199213       0.38080605       0.50188253 </v>
    <v>       0.76229290       0.52490888       0.49339104 </v>
    <v>       0.76538032       0.66714178       0.48353947 </v>
    <v>       0.76164242       0.80863144       0.48778905 </v>
    <v>       0.76180718       0.95252119       0.49726791 </v>
    <v>       0.90427833       0.09481683       0.50142452 </v>
    <v>       0.90418017       0.23780487       0.50396489 </v>
    <v>       0.90434576       0.38093740       0.50464654 </v>
    <v>       0.90501807       0.52407532       0.50263876 </v>
    <v>       0.90607076       0.66706669       0.49847497 </v>
    <v>       0.90592729       0.81022632       0.49678443 </v>
    <v>       0.90468466       0.95209707       0.49903645 </v>
    <v>       0.46374950       0.35411913       0.49721680 </v>
    <v>       0.40146957       0.55537018       0.47581012 </v>
    <v>       0.64614537       0.53990039       0.47617861 </v>
    <v>       0.58486594       0.41595685       0.50033714 </v>
    <v>       0.58384300       0.74122289       0.49766191 </v>
    <v>       0.46267625       0.67930526       0.49967203 </v>
    <v>       0.56692080       0.59240681       0.64412408 </v>
    <v>       0.48057309       0.50096281       0.64461553 </v>
    <v>       0.41563779       0.42889388       0.45695505 </v>
    <v>       0.63198449       0.66626244       0.45730356 </v>
    <v>       0.52373887       0.54639671       0.60466391 </v>
   </varray>
  </structure>
  <varray name="primitive_index" >
   <v type="int" >        1 </v>
   <v type="int" >        2 </v>
   <v type="int" >        3 </v>
   <v type="int" >        4 </v>
   <v type="int" >        5 </v>
   <v type="int" >        6 </v>
   <v type="int" >        7 </v>
   <v type="int" >        8 </v>
   <v type="int" >        9 </v>
   <v type="int" >       10 </v>
   <v type="int" >       11 </v>
   <v type="int" >       12 </v>
   <v type="int" >       13 </v>
   <v type="int" >       14 </v>
   <v type="int" >       15 </v>
   <v type="int" >       16 </v>
   <v type="int" >       17 </v>
   <v type="int" >       18 </v>
   <v type="int" >       19 </v>
   <v type="int" >       20 </v>
   <v type="int" >       21 </v>
   <v type="int" >       22 </v>
   <v type="int" >       23 </v>
   <v type="int" >       24 </v>
   <v type="int" >       25 </v>
   <v type="int" >       26 </v>
   <v type="int" >       27 </v>
   <v type="int" >       28 </v>
   <v type="int" >       29 </v>
   <v type="int" >       30 </v>
   <v type="int" >       31 </v>
   <v type="int" >       32 </v>
   <v type="int" >       33 </v>
   <v type="int" >       34 </v>
   <v type="int" >       35 </v>
   <v type="int" >       36 </v>
   <v type="int" >       37 </v>
   <v type="int" >       38 </v>
   <v type="int" >       39 </v>
   <v type="int" >       40 </v>
   <v type="int" >       41 </v>
   <v type="int" >       42 </v>
   <v type="int" >       43 </v>
   <v type="int" >       44 </v>
   <v type="int" >       45 </v>
   <v type="int" >       46 </v>
   <v type="int" >       47 </v>
   <v type="int" >       48 </v>
   <v type="int" >       49 </v>
   <v type="int" >       50 </v>
   <v type="int" >       51 </v>
   <v type="int" >       52 </v>
   <v type="int" >       53 </v>
   <v type="int" >       54 </v>
   <v type="int" >       55 </v>
   <v type="int" >       56 </v>
   <v type="int" >       57 </v>
   <v type="int" >       58 </v>
   <v type="int" >       59 </v>
   <v type="int" >       60 </v>
   <v type="int" >       61 </v>
   <v type="int" >       62 </v>
   <v type="int" >       63 </v>
   <v type="int" >       64 </v>
   <v type="int" >       65 </v>
   <v type="int" >       66 </v>
   <v type="int" >       67 </v>
   <v type="int" >       68 </v>
   <v type="int" >       69 </v>
   <v type="int" >       70 </v>
   <v type="int" >       71 </v>
   <v type="int" >       72 </v>
   <v type="int" >       73 </v>
   <v type="int" >       74 </v>
   <v type="int" >       75 </v>
   <v type="int" >       76 </v>
   <v type="int" >       77 </v>
   <v type="int" >       78 </v>
   <v type="int" >       79 </v>
   <v type="int" >       80 </v>
   <v type="int" >       81 </v>
   <v type="int" >       82 </v>
   <v type="int" >       83 </v>
   <v type="int" >       84 </v>
   <v type="int" >       85 </v>
   <v type="int" >       86 </v>
   <v type="int" >       87 </v>
   <v type="int" >       88 </v>
   <v type="int" >       89 </v>
   <v type="int" >       90 </v>
   <v type="int" >       91 </v>
   <v type="int" >       92 </v>
   <v type="int" >       93 </v>
   <v type="int" >       94 </v>
   <v type="int" >       95 </v>
   <v type="int" >       96 </v>
   <v type="int" >       97 </v>
   <v type="int" >       98 </v>
   <v type="int" >       99 </v>
  </varray>
 </primitive_cell>
 <kpoints>
  <generation param="Gamma">
   <v type="int" name="divisions">       4        4        1 </v>
   <v name="usershift">      0.00000000       0.00000000       0.00000000 </v>
   <v name="genvec1">      0.25000000       0.00000000       0.00000000 </v>
   <v name="genvec2">      0.00000000       0.25000000       0.00000000 </v>
   <v name="genvec3">      0.00000000       0.00000000       1.00000000 </v>
   <v name="shift">      0.00000000       0.00000000       0.00000000 </v>
  </generation>
  <varray name="kpointlist" >
   <v>       0.00000000       0.00000000       0.00000000 </v>
   <v>       0.25000000       0.00000000       0.00000000 </v>
   <v>       0.00000000       0.25000000       0.00000000 </v>
   <v>      -0.25000000       0.25000000       0.00000000 </v>
   <v>       0.50000000       0.00000000       0.00000000 </v>
   <v>       0.00000000       0.50000000       0.00000000 </v>
   <v>       0.50000000       0.50000000       0.00000000 </v>
   <v>       0.25000000       0.25000000       0.00000000 </v>
   <v>      -0.25000000       0.50000000       0.00000000 </v>
   <v>       0.50000000       0.25000000       0.00000000 </v>
  </varray>
  <varray name="weights" >
   <v>       0.06250000 </v>
   <v>       0.12500000 </v>
   <v>       0.12500000 </v>
   <v>       0.12500000 </v>
   <v>       0.06250000 </v>
   <v>       0.06250000 </v>
   <v>       0.06250000 </v>
   <v>       0.12500000 </v>
   <v>       0.12500000 </v>
   <v>       0.12500000 </v>
  </varray>
 </kpoints>
 <parameters>
  <separator name="general" >
   <i type="string" name="SYSTEM">unknown system</i>
   <i type="logical" name="LCOMPAT"> F  </i>
  </separator>
  <separator name="electronic" >
   <i type="string" name="PREC">normal</i>
   <i name="ENMAX">    520.00000000</i>
   <i name="ENAUG">    644.87300000</i>
   <i name="EDIFF">      0.00000100</i>
   <i type="int" name="IALGO">    38</i>
   <i type="int" name="IWAVPR">    11</i>
   <i type="int" name="NBANDS">   240</i>
   <i type="int" name="NBANDSLOW">    -1</i>
   <i type="int" name="NBANDSHIGH">    -1</i>
   <i name="NELECT">    380.00000000</i>
   <i type="int" name="TURBO">     0</i>
   <i type="int" name="IRESTART">     0</i>
   <i type="int" name="NREBOOT">     0</i>
   <i type="int" name="NMIN">     0</i>
   <i name="EREF">      0.00000000</i>
   <separator name="electronic smearing" >
    <i type="int" name="ISMEAR">     0</i>
    <i name="SIGMA">      0.05000000</i>
    <i name="KSPACING">      0.50000000</i>
    <i type="logical" name="KGAMMA"> T  </i>
    <i type="logical" name="KBLOWUP"> T  </i>
   </separator>
   <separator name="electronic projectors" >
    <i type="logical" name="LREAL"> F  </i>
    <v name="ROPT">      0.00000000      0.00000000      0.00000000      0.00000000</v>
    <i type="int" name="LMAXPAW">  -100</i>
    <i type="int" name="LMAXMIX">     2</i>
    <i type="logical" name="NLSPLINE"> F  </i>
   </separator>
   <separator name="electronic startup" >
    <i type="int" name="ISTART">     0</i>
    <i type="int" name="ICHARG">     2</i>
    <i type="int" name="INIWAV">     1</i>
   </separator>
   <separator name="electronic spin" >
    <i type="int" name="ISPIN">     2</i>
    <i type="logical" name="LNONCOLLINEAR"> F  </i>
    <v name="MAGMOM">      0.00000000      0.00000000      0.00000000      0.00000000      0.00000000      0.00000000      0.00000000      0.00000000      0.00000000      0.00000000      0.00000000      0.00000000      0.00000000      0.00000000      0.00000000      0.00000000      0.00000000      0.00000000      0.00000000      0.00000000
      0.00000000      0.00000000      0.00000000      0.00000000      0.00000000      0.00000000      0.00000000      0.00000000      0.00000000      0.00000000      0.00000000      0.00000000      0.00000000      0.00000000      0.00000000      0.00000000      0.00000000      0.00000000      0.00000000      0.00000000
      0.00000000      0.00000000      0.00000000      0.00000000      0.00000000      0.00000000      0.00000000      0.00000000      0.00000000      0.00000000      0.00000000      0.00000000      0.00000000      0.00000000      0.00000000      0.00000000      0.00000000      0.00000000      0.00000000      0.00000000
      0.00000000      0.00000000      0.00000000      0.00000000      0.00000000      0.00000000      0.00000000      0.00000000      0.00000000      0.00000000      0.00000000      0.00000000      0.00000000      0.00000000      0.00000000      0.00000000      0.00000000      0.00000000      0.00000000      0.00000000
      0.00000000      0.00000000      0.00000000      0.00000000      0.00000000      0.00000000      0.00000000      0.00000000      0.00000000      0.00000000      0.00000000      0.00000000      0.00000000      0.00000000      0.00000000      0.00000000      0.00000000      0.00000000      0.00000000</v>
    <i name="NUPDOWN">     -1.00000000</i>
    <i type="logical" name="LSORBIT"> F  </i>
    <v name="SAXIS">      0.00000000      0.00000000      1.00000000</v>
    <i type="logical" name="LSPIRAL"> F  </i>
    <v name="QSPIRAL">      0.00000000      0.00000000      0.00000000</v>
    <i type="logical" name="LZEROZ"> F  </i>
   </separator>
   <separator name="electronic exchange-correlation" >
    <i type="logical" name="LASPH"> T  </i>
    <i type="logical" name="LMETAGGA"> F  </i>
   </separator>
   <separator name="electronic convergence" >
    <i type="int" name="NELM">   200</i>
    <i type="int" name="NELMDL">    -5</i>
    <i type="int" name="NELMIN">     2</i>
    <i name="ENINI">    520.00000000</i>
    <separator name="electronic convergence detail" >
     <i type="logical" name="LDIAG"> T  </i>
     <i type="logical" name="LSUBROT"> F  </i>
     <i name="WEIMIN">      0.00100000</i>
     <i name="EBREAK">      0.00000000</i>
     <i name="DEPER">      0.30000000</i>
     <i type="int" name="NRMM">     4</i>
     <i name="TIME">      0.40000000</i>
    </separator>
   </separator>
   <separator name="electronic mixer" >
    <i name="AMIX">      0.20000000</i>
    <i name="BMIX">      0.00010000</i>
    <i name="AMIN">      0.10000000</i>
    <i name="AMIX_MAG">      0.80000000</i>
    <i name="BMIX_MAG">      0.00010000</i>
    <separator name="electronic mixer details" >
     <i type="int" name="IMIX">     4</i>
     <i type="logical" name="MIXFIRST"> F  </i>
     <i type="int" name="MAXMIX">   -45</i>
     <i name="WC">    100.00000000</i>
     <i type="int" name="INIMIX">     1</i>
     <i type="int" name="MIXPRE">     1</i>
     <i type="int" name="MREMOVE">     5</i>
    </separator>
   </separator>
   <separator name="electronic dipolcorrection" >
    <i type="logical" name="LDIPOL"> F  </i>
    <i type="logical" name="LMONO"> F  </i>
    <i type="int" name="IDIPOL">     0</i>
    <i name="EPSILON">      1.00000000</i>
    <v name="DIPOL">   -100.00000000   -100.00000000   -100.00000000</v>
    <i name="EFIELD">      0.00000000</i>
   </separator>
  </separator>
  <separator name="grids" >
   <i type="int" name="NGX">    96</i>
   <i type="int" name="NGY">    96</i>
   <i type="int" name="NGZ">    84</i>
   <i type="int" name="NGXF">   192</i>
   <i type="int" name="NGYF">   192</i>
   <i type="int" name="NGZF">   168</i>
   <i type="logical" name="ADDGRID"> T  </i>
  </separator>
  <separator name="ionic" >
   <i type="int" name="NSW">   300</i>
   <i type="int" name="IBRION">     2</i>
   <i type="int" name="MDALGO">     0</i>
   <i type="int" name="ISIF">     2</i>
   <i name="PSTRESS">      0.00000000</i>
   <i name="EDIFFG">     -0.01000000</i>
   <i type="int" name="NFREE">     1</i>
   <i name="POTIM">      0.10000000</i>
   <i name="SMASS">     -3.00000000</i>
   <i name="SCALEE">      1.00000000</i>
  </separator>
  <separator name="ionic md" >
   <i name="TEBEG">      0.00010000</i>
   <i name="TEEND">      0.00010000</i>
   <i type="int" name="NBLOCK">     1</i>
   <i type="int" name="KBLOCK">   300</i>
   <i type="int" name="NPACO">   256</i>
   <i name="APACO">     10.00000000</i>
  </separator>
  <separator name="symmetry" >
   <i type="int" name="ISYM">     0</i>
   <i name="SYMPREC">      0.00001000</i>
  </separator>
  <separator name="dos" >
   <i type="int" name="LORBIT">     0</i>
   <v name="RWIGS">     -1.00000000     -1.00000000     -1.00000000     -1.00000000</v>
   <i type="int" name="NEDOS">   301</i>
   <i name="EMIN">     10.00000000</i>
   <i name="EMAX">    -10.00000000</i>
   <i name="EFERMI">      0.00000000</i>
  </separator>
  <separator name="writing" >
   <i type="int" name="NWRITE">     2</i>
   <i type="logical" name="LWAVE"> F  </i>
   <i type="logical" name="LDOWNSAMPLE"> F  </i>
   <i type="logical" name="LCHARG"> F  </i>
   <i type="logical" name="LPARD"> F  </i>
   <i type="logical" name="LVTOT"> F  </i>
   <i type="logical" name="LVHAR"> F  </i>
   <i type="logical" name="LELF"> F  </i>
   <i type="logical" name="LOPTICS"> F  </i>
   <v name="STM">      0.00000000      0.00000000      0.00000000      0.00000000      0.00000000      0.00000000      0.00000000</v>
  </separator>
  <separator name="performance" >
   <i type="int" name="NPAR">     2</i>
   <i type="int" name="NSIM">     4</i>
   <i type="int" name="NBLK">    -1</i>
   <i type="logical" name="LPLANE"> T  </i>
   <i type="logical" name="LSCALAPACK"> T  </i>
   <i type="logical" name="LSCAAWARE"> F  </i>
   <i type="logical" name="LSCALU"> F  </i>
   <i type="logical" name="LASYNC"> F  </i>
   <i type="logical" name="LORBITALREAL"> F  </i>
  </separator>
  <separator name="miscellaneous" >
   <i type="int" name="IDIOT">     3</i>
   <i type="int" name="PHON_NSTRUCT">    -1</i>
   <i type="logical" name="LMUSIC"> F  </i>
   <v name="POMASS">     12.01100000      1.00000000     18.99800000     16.00000000</v>
   <v name="DARWINR">      0.00000000      0.00000000      0.00000000      0.00000000</v>
   <v name="DARWINV">      1.00000000      1.00000000      1.00000000      1.00000000</v>
   <i type="logical" name="LCORR"> T  </i>
  </separator>
  <i type="logical" name="GGA_COMPAT"> T  </i>
  <i type="logical" name="LBERRY"> F  </i>
  <i type="int" name="ICORELEVEL">     0</i>
  <i type="logical" name="LDAU"> F  </i>
  <i type="int" name="I_CONSTRAINED_M">     0</i>
  <separator name="electronic exchange-correlation" >
   <i type="string" name="GGA">--</i>
   <i type="int" name="VOSKOWN">     0</i>
   <i type="logical" name="LHFCALC"> F  </i>
   <i type="string" name="PRECFOCK"></i>
   <i type="logical" name="LSYMGRAD"> F  </i>
   <i type="logical" name="LHFONE"> F  </i>
   <i type="logical" name="LRHFCALC"> F  </i>
   <i type="logical" name="LTHOMAS"> F  </i>
   <i type="logical" name="LMODELHF"> F  </i>
   <i type="logical" name="LFOCKACE"> F  </i>
   <i name="ENCUT4O">     -1.00000000</i>
   <i type="int" name="EXXOEP">     0</i>
   <i type="int" name="FOURORBIT">     0</i>
   <i name="AEXX">      0.00000000</i>
   <i name="HFALPHA">      0.00000000</i>
   <i name="MCALPHA">      0.00000000</i>
   <i name="ALDAX">      1.00000000</i>
   <i name="AGGAX">      1.00000000</i>
   <i name="ALDAC">      1.00000000</i>
   <i name="AGGAC">      1.00000000</i>
   <i type="int" name="NKREDX">     1</i>
   <i type="int" name="NKREDY">     1</i>
   <i type="int" name="NKREDZ">     1</i>
   <i type="logical" name="SHIFTRED"> F  </i>
   <i type="logical" name="ODDONLY"> F  </i>
   <i type="logical" name="EVENONLY"> F  </i>
   <i type="int" name="LMAXFOCK">     0</i>
   <i type="int" name="NMAXFOCKAE">     0</i>
   <i type="logical" name="LFOCKAEDFT"> F  </i>
   <i name="HFSCREEN">      0.00000000</i>
   <i name="HFSCREENC">      0.00000000</i>
   <i type="int" name="NBANDSGWLOW">     0</i>
  </separator>
  <separator name="vdW DFT" >
   <i type="logical" name="LUSE_VDW"> F  </i>
   <i type="int" name="IVDW_NL">     1</i>
   <i type="logical" name="LSPIN_VDW"> F  </i>
   <i name="Zab_VDW">     -0.84910000</i>
   <i name="PARAM1">      0.12340000</i>
   <i name="PARAM2">      1.00000000</i>
   <i name="PARAM3">      0.00000000</i>
  </separator>
  <separator name="model GW" >
   <i type="int" name="MODEL_GW">     0</i>
   <i name="MODEL_EPS0">     23.48414909</i>
   <i name="MODEL_ALPHA">      1.00000000</i>
  </separator>
  <separator name="linear response parameters" >
   <i type="logical" name="LEPSILON"> F  </i>
   <i type="logical" name="LRPA"> F  </i>
   <i type="logical" name="LNABLA"> F  </i>
   <i type="logical" name="LVEL"> F  </i>
   <i name="CSHIFT">      0.10000000</i>
   <i name="OMEGAMAX">     -1.00000000</i>
   <i name="DEG_THRESHOLD">      0.00200000</i>
   <i name="RTIME">     -0.10000000</i>
   <i name="WPLASMAI">      0.00000000</i>
   <v name="DFIELD">      0.00000000      0.00000000      0.00000000</v>
   <v name="WPLASMA">      0.00000000      0.00000000      0.00000000      0.00000000      0.00000000      0.00000000      0.00000000      0.00000000      0.00000000</v>
  </separator>
  <separator name="orbital magnetization" >
   <i type="logical" name="NUCIND"> F  </i>
   <v name="MAGPOS">      0.00000000      0.00000000      0.00000000</v>
   <i type="logical" name="LNICSALL"> T  </i>
   <i type="logical" name="ORBITALMAG"> F  </i>
   <i type="logical" name="LMAGBLOCH"> F  </i>
   <i type="logical" name="LCHIMAG"> F  </i>
   <i type="logical" name="LGAUGE"> T  </i>
   <i type="int" name="MAGATOM">     0</i>
   <v name="MAGDIPOL">      0.00000000      0.00000000      0.00000000</v>
   <v name="AVECCONST">      0.00000000      0.00000000      0.00000000</v>
  </separator>
  <separator name="response functions" >
   <i type="logical" name="LALL_IN_ONE"> F  </i>
   <i type="int" name="IALL_IN_ONE">    -1</i>
   <i type="int" name="NBANDS_WAVE">    -1</i>
   <i type="logical" name="LFINITE_TEMPERATURE"> F  </i>
   <i type="logical" name="LADDER"> F  </i>
   <i type="logical" name="LRPAFORCE"> F  </i>
   <i type="logical" name="LFXC"> F  </i>
   <i type="logical" name="LHARTREE"> T  </i>
   <i type="int" name="IBSE">     0</i>
   <v type="int" name="KPOINT">    -1     0     0     0</v>
   <i type="logical" name="LTCTC"> F  </i>
   <i type="logical" name="LTCTE"> F  </i>
   <i type="logical" name="LTETE"> F  </i>
   <i type="logical" name="LTRIPLET"> F  </i>
   <i type="logical" name="LFXCEPS"> F  </i>
   <i type="logical" name="LFXHEG"> F  </i>
   <i type="int" name="NATURALO">     2</i>
   <i type="logical" name="LHOLEGF"> F  </i>
   <i type="logical" name="L2ORDER"> F  </i>
   <i type="logical" name="LDMP1"> F  </i>
   <i type="logical" name="LMP2LT"> F  </i>
   <i type="logical" name="LSMP2LT"> F  </i>
   <i type="logical" name="LGWLF"> F  </i>
   <i name="ENCUTGW">     -1.60000002</i>
   <i name="ENCUTGWSOFT">     -1.60000002</i>
   <i name="ENCUTLF">     -1.00000000</i>
   <i type="logical" name="LESF_SPLINES"> F  </i>
   <i type="int" name="LMAXMP2">    -1</i>
   <i name="SCISSOR">      0.00000000</i>
   <i type="int" name="NOMEGA">     0</i>
   <i type="int" name="NOMEGAR">     0</i>
   <i type="int" name="NBANDSGW">    -1</i>
   <i type="int" name="NBANDSO">    -1</i>
   <i type="int" name="NBANDSV">    -1</i>
   <i type="int" name="NELMGW">     1</i>
   <i type="int" name="NELMHF">     1</i>
   <i type="int" name="DIM">     3</i>
   <i type="int" name="IESPILON">     4</i>
   <i type="int" name="ANTIRES">     0</i>
   <i name="OMEGAMAX">    -30.00000000</i>
   <i name="OMEGAMIN">    -30.00000000</i>
   <i name="OMEGATL">   -200.00000000</i>
   <i type="int" name="OMEGAGRID">     0</i>
   <i name="CSHIFT">     -0.10000000</i>
   <i type="logical" name="LSELFENERGY"> F  </i>
   <i type="logical" name="LSPECTRAL"> F  </i>
   <i type="logical" name="LSPECTRALGW"> F  </i>
   <i type="logical" name="LSINGLES"> F  </i>
   <i type="logical" name="LFERMIGW"> F  </i>
   <i type="logical" name="ODDONLYGW"> F  </i>
   <i type="logical" name="EVENONLYGW"> F  </i>
   <i type="int" name="NKREDLFX">     1</i>
   <i type="int" name="NKREDLFY">     1</i>
   <i type="int" name="NKREDLFZ">     1</i>
   <i type="int" name="MAXMEM">  2800</i>
   <i type="int" name="TELESCOPE">     0</i>
   <i type="int" name="NTAUPAR">    -1</i>
   <i type="int" name="NOMEGAPAR">    -1</i>
   <i name="DAMP_NEWTON">      0.80000001</i>
   <i name="LAMBDA">      1.00000000</i>
  </separator>
  <separator name="External order field" >
   <i name="OFIELD_KAPPA">      0.00000000</i>
   <v name="OFIELD_K">      0.00000000      0.00000000      0.00000000</v>
   <i name="OFIELD_Q6_NEAR">      0.00000000</i>
   <i name="OFIELD_Q6_FAR">      0.00000000</i>
   <i name="OFIELD_A">      0.00000000</i>
  </separator>
  <separator name="optional k-points parameters" >
   <i type="int" name="KPOINTS_OPT_MODE">     1</i>
   <i type="logical" name="LKPOINTS_OPT"> F  </i>
  </separator>
 </parameters>
 <atominfo>
  <atoms>      99 </atoms>
  <types>       4 </types>
  <array name="atoms" >
   <dimension dim="1">ion</dimension>
   <field type="string">element</field>
   <field type="int">atomtype</field>
   <set>
    <rc><c>C </c><c>   1</c></rc>
    <rc><c>C </c><c>   1</c></rc>
    <rc><c>C </c><c>   1</c></rc>
    <rc><c>C </c><c>   1</c></rc>
    <rc><c>C </c><c>   1</c></rc>
    <rc><c>C </c><c>   1</c></rc>
    <rc><c>C </c><c>   1</c></rc>
    <rc><c>C </c><c>   1</c></rc>
    <rc><c>C </c><c>   1</c></rc>
    <rc><c>C </c><c>   1</c></rc>
    <rc><c>C </c><c>   1</c></rc>
    <rc><c>C </c><c>   1</c></rc>
    <rc><c>C </c><c>   1</c></rc>
    <rc><c>C </c><c>   1</c></rc>
    <rc><c>C </c><c>   1</c></rc>
    <rc><c>C </c><c>   1</c></rc>
    <rc><c>C </c><c>   1</c></rc>
    <rc><c>C </c><c>   1</c></rc>
    <rc><c>C </c><c>   1</c></rc>
    <rc><c>C </c><c>   1</c></rc>
    <rc><c>C </c><c>   1</c></rc>
    <rc><c>C </c><c>   1</c></rc>
    <rc><c>C </c><c>   1</c></rc>
    <rc><c>C </c><c>   1</c></rc>
    <rc><c>C </c><c>   1</c></rc>
    <rc><c>C </c><c>   1</c></rc>
    <rc><c>C </c><c>   1</c></rc>
    <rc><c>C </c><c>   1</c></rc>
    <rc><c>C </c><c>   1</c></rc>
    <rc><c>C </c><c>   1</c></rc>
    <rc><c>C </c><c>   1</c></rc>
    <rc><c>C </c><c>   1</c></rc>
    <rc><c>C </c><c>   1</c></rc>
    <rc><c>C </c><c>   1</c></rc>
    <rc><c>C </c><c>   1</c></rc>
    <rc><c>C </c><c>   1</c></rc>
    <rc><c>C </c><c>   1</c></rc>
    <rc><c>C </c><c>   1</c></rc>
    <rc><c>C </c><c>   1</c></rc>
    <rc><c>C </c><c>   1</c></rc>
    <rc><c>C </c><c>   1</c></rc>
    <rc><c>C </c><c>   1</c></rc>
    <rc><c>C </c><c>   1</c></rc>
    <rc><c>C </c><c>   1</c></rc>
    <rc><c>C </c><c>   1</c></rc>
    <rc><c>C </c><c>   1</c></rc>
    <rc><c>C </c><c>   1</c></rc>
    <rc><c>C </c><c>   1</c></rc>
    <rc><c>C </c><c>   1</c></rc>
    <rc><c>C </c><c>   1</c></rc>
    <rc><c>C </c><c>   1</c></rc>
    <rc><c>C </c><c>   1</c></rc>
    <rc><c>C </c><c>   1</c></rc>
    <rc><c>C </c><c>   1</c></rc>
    <rc><c>C </c><c>   1</c></rc>
    <rc><c>C </c><c>   1</c></rc>
    <rc><c>C </c><c>   1</c></rc>
    <rc><c>C </c><c>   1</c></rc>
    <rc><c>C </c><c>   1</c></rc>
    <rc><c>C </c><c>   1</c></rc>
    <rc><c>C </c><c>   1</c></rc>
    <rc><c>C </c><c>   1</c></rc>
    <rc><c>C </c><c>   1</c></rc>
    <rc><c>C </c><c>   1</c></rc>
    <rc><c>C </c><c>   1</c></rc>
    <rc><c>C </c><c>   1</c></rc>
    <rc><c>C </c><c>   1</c></rc>
    <rc><c>C </c><c>   1</c></rc>
    <rc><c>C </c><c>   1</c></rc>
    <rc><c>C </c><c>   1</c></rc>
    <rc><c>C </c><c>   1</c></rc>
    <rc><c>C </c><c>   1</c></rc>
    <rc><c>C </c><c>   1</c></rc>
    <rc><c>C </c><c>   1</c></rc>
    <rc><c>C </c><c>   1</c></rc>
    <rc><c>C </c><c>   1</c></rc>
    <rc><c>C </c><c>   1</c></rc>
    <rc><c>C </c><c>   1</c></rc>
    <rc><c>C </c><c>   1</c></rc>
    <rc><c>C </c><c>   1</c></rc>
    <rc><c>C </c><c>   1</c></rc>
    <rc><c>C </c><c>   1</c></rc>
    <rc><c>C </c><c>   1</c></rc>
    <rc><c>C </c><c>   1</c></rc>
    <rc><c>C </c><c>   1</c></rc>
    <rc><c>C </c><c>   1</c></rc>
    <rc><c>C </c><c>   1</c></rc>
    <rc><c>C </c><c>   1</c></rc>
    <rc><c>H </c><c>   2</c></rc>
    <rc><c>H </c><c>   2</c></rc>
    <rc><c>H </c><c>   2</c></rc>
    <rc><c>H </c><c>   2</c></rc>
    <rc><c>H </c><c>   2</c></rc>
    <rc><c>H </c><c>   2</c></rc>
    <rc><c>H </c><c>   2</c></rc>
    <rc><c>H </c><c>   2</c></rc>
    <rc><c>F </c><c>   3</c></rc>
    <rc><c>F </c><c>   3</c></rc>
    <rc><c>O </c><c>   4</c></rc>
   </set>
  </array>
  <array name="atomtypes" >
   <dimension dim="1">type</dimension>
   <field type="int">atomspertype</field>
   <field type="string">element</field>
   <field>mass</field>
   <field>valence</field>
   <field type="string">pseudopotential</field>
   <set>
    <rc><c>  88</c><c>C </c><c>     12.01100000</c><c>      4.00000000</c><c>  PAW_PBE C 08Apr2002                   </c></rc>
    <rc><c>   8</c><c>H </c><c>      1.00000000</c><c>      1.00000000</c><c>  PAW_PBE H 15Jun2001                   </c></rc>
    <rc><c>   2</c><c>F </c><c>     18.99800000</c><c>      7.00000000</c><c>  PAW_PBE F 08Apr2002                   </c></rc>
    <rc><c>   1</c><c>O </c><c>     16.00000000</c><c>      6.00000000</c><c>  PAW_PBE O 08Apr2002                   </c></rc>
   </set>
  </array>
 </atominfo>
 <structure name="initialpos" >
  <crystal>
   <varray name="basis" >
    <v>      17.27103806       0.00000000       0.00000000 </v>
    <v>      -8.63551903      14.95715771       0.00000000 </v>
    <v>       0.00000000       0.00000000      15.00000000 </v>
   </varray>
   <i name="volume">   3874.88459904 </i>
   <varray name="rec_basis" >
    <v>       0.05790040       0.03342881      -0.00000000 </v>
    <v>       0.00000000       0.06685762       0.00000000 </v>
    <v>       0.00000000      -0.00000000       0.06666667 </v>
   </varray>
  </crystal>
  <varray name="positions" >
   <v>       0.99996937       0.99999250       0.50103877 </v>
   <v>       0.99949250       0.14255116       0.50147238 </v>
   <v>       0.99926123       0.28540108       0.50265230 </v>
   <v>       0.99949763       0.42844924       0.50429358 </v>
   <v>       0.00009971       0.57156503       0.50420045 </v>
   <v>       0.00114451       0.71479680       0.50223958 </v>
   <v>       0.00103042       0.85790516       0.50074929 </v>
   <v>       0.14326463       0.00056061       0.50098710 </v>
   <v>       0.14282373       0.14320235       0.49871474 </v>
   <v>       0.14159959       0.28508093       0.49646763 </v>
   <v>       0.14148659       0.42824230       0.49834271 </v>
   <v>       0.14260477       0.57127123       0.50220673 </v>
   <v>       0.14324477       0.71441607       0.50385454 </v>
   <v>       0.14339130       0.85756914       0.50317045 </v>
   <v>       0.28575758       0.99998530       0.50208401 </v>
   <v>       0.28572836       0.14280099       0.49668011 </v>
   <v>       0.28591935       0.28664162       0.48733625 </v>
   <v>       0.28219332       0.42809360       0.48286386 </v>
   <v>       0.28529642       0.57033784       0.49284633 </v>
   <v>       0.28556906       0.71444362       0.50129019 </v>
   <v>       0.28570077       0.85737947       0.50379605 </v>
   <v>       0.42862597       0.99998815       0.50358790 </v>
   <v>       0.42847227       0.14228128       0.50113008 </v>
   <v>       0.42730131       0.28203417       0.49679495 </v>
   <v>       0.42673271       0.71591549       0.49985886 </v>
   <v>       0.42829795       0.85730243       0.50305295 </v>
   <v>       0.57127628       0.00037079       0.50329422 </v>
   <v>       0.57137727       0.14267057       0.50370396 </v>
   <v>       0.57223317       0.28599315       0.50207721 </v>
   <v>       0.57204460       0.85816288       0.50101051 </v>
   <v>       0.71417631       0.00001114       0.50076340 </v>
   <v>       0.71429900       0.14286006       0.50413253 </v>
   <v>       0.71429147       0.28569135       0.50369521 </v>
   <v>       0.71376418       0.42776526       0.49849843 </v>
   <v>       0.71837071       0.57320451       0.48285208 </v>
   <v>       0.72115994       0.71653992       0.47612348 </v>
   <v>       0.71323190       0.85718100       0.49302934 </v>
   <v>       0.85699190       0.99995235       0.49889530 </v>
   <v>       0.85675388       0.14268095       0.50281371 </v>
   <v>       0.85678801       0.28550910       0.50475794 </v>
   <v>       0.85716723       0.42855080       0.50316706 </v>
   <v>       0.85792505       0.57190524       0.49851926 </v>
   <v>       0.85983494       0.71543796       0.49385784 </v>
   <v>       0.85755922       0.85695567       0.49533767 </v>
   <v>       0.04754963       0.09534047       0.50094200 </v>
   <v>       0.04652043       0.23748337       0.50079761 </v>
   <v>       0.04642652       0.38054378       0.50248467 </v>
   <v>       0.04753692       0.52380085       0.50412188 </v>
   <v>       0.04809140       0.66690175       0.50385282 </v>
   <v>       0.04829290       0.80997788       0.50227053 </v>
   <v>       0.04805993       0.95281815       0.50132711 </v>
   <v>       0.19056851       0.09540409       0.49843196 </v>
   <v>       0.18997045       0.23833562       0.49495328 </v>
   <v>       0.18772033       0.37985458       0.49338351 </v>
   <v>       0.18970363       0.52341604       0.49811269 </v>
   <v>       0.19042888       0.66678833       0.50248941 </v>
   <v>       0.19077493       0.80983438       0.50381011 </v>
   <v>       0.19082732       0.95269894       0.50210577 </v>
   <v>       0.33335712       0.09531430       0.50003720 </v>
   <v>       0.33434356       0.23814137       0.49257732 </v>
   <v>       0.32646880       0.37871430       0.47566693 </v>
   <v>       0.32922801       0.52203239       0.48237723 </v>
   <v>       0.33379986       0.66749320       0.49794048 </v>
   <v>       0.33324036       0.80955675       0.50313806 </v>
   <v>       0.33324441       0.95242508       0.50340061 </v>
   <v>       0.47623183       0.09489789       0.50303107 </v>
   <v>       0.47549650       0.23712648       0.50065807 </v>
   <v>       0.47532247       0.80928992       0.50198184 </v>
   <v>       0.47612132       0.95257347       0.50360237 </v>
   <v>       0.61890396       0.09528287       0.50387314 </v>
   <v>       0.61923533       0.23797039       0.50326353 </v>
   <v>       0.62084624       0.37938521       0.50028798 </v>
   <v>       0.62028810       0.81329052       0.49730406 </v>
   <v>       0.61907710       0.95300346       0.50164335 </v>
   <v>       0.76181694       0.09532476       0.50291564 </v>
   <v>       0.76184831       0.23789524       0.50467264 </v>
   <v>       0.76199213       0.38080605       0.50188253 </v>
   <v>       0.76229290       0.52490888       0.49339104 </v>
   <v>       0.76538032       0.66714178       0.48353947 </v>
   <v>       0.76164242       0.80863144       0.48778905 </v>
   <v>       0.76180718       0.95252119       0.49726791 </v>
   <v>       0.90427833       0.09481683       0.50142452 </v>
   <v>       0.90418017       0.23780487       0.50396489 </v>
   <v>       0.90434576       0.38093740       0.50464654 </v>
   <v>       0.90501807       0.52407532       0.50263876 </v>
   <v>       0.90607076       0.66706669       0.49847497 </v>
   <v>       0.90592729       0.81022632       0.49678443 </v>
   <v>       0.90468466       0.95209707       0.49903645 </v>
   <v>       0.46374950       0.35411913       0.49721680 </v>
   <v>       0.40146957       0.55537018       0.47581012 </v>
   <v>       0.64614537       0.53990039       0.47617861 </v>
   <v>       0.58486594       0.41595685       0.50033714 </v>
   <v>       0.58384300       0.74122289       0.49766191 </v>
   <v>       0.46267625       0.67930526       0.49967203 </v>
   <v>       0.56692080       0.59240681       0.64412408 </v>
   <v>       0.48057309       0.50096281       0.64461553 </v>
   <v>       0.41563779       0.42889388       0.45695505 </v>
   <v>       0.63198449       0.66626244       0.45730356 </v>
   <v>       0.52373887       0.54639671       0.60466391 </v>
  </varray>
  <varray name="selective"  type="logical" >
   <v type="logical" >  T  T  T </v>
   <v type="logical" >  T  T  T </v>
   <v type="logical" >  T  T  T </v>
   <v type="logical" >  T  T  T </v>
   <v type="logical" >  T  T  T </v>
   <v type="logical" >  T  T  T </v>
   <v type="logical" >  T  T  T </v>
   <v type="logical" >  T  T  T </v>
   <v type="logical" >  T  T  T </v>
   <v type="logical" >  T  T  T </v>
   <v type="logical" >  T  T  T </v>
   <v type="logical" >  T  T  T </v>
   <v type="logical" >  T  T  T </v>
   <v type="logical" >  T  T  T </v>
   <v type="logical" >  T  T  T </v>
   <v type="logical" >  T  T  T </v>
   <v type="logical" >  T  T  T </v>
   <v type="logical" >  T  T  T </v>
   <v type="logical" >  T  T  T </v>
   <v type="logical" >  T  T  T </v>
   <v type="logical" >  T  T  T </v>
   <v type="logical" >  T  T  T </v>
   <v type="logical" >  T  T  T </v>
   <v type="logical" >  T  T  T </v>
   <v type="logical" >  T  T  T </v>
   <v type="logical" >  T  T  T </v>
   <v type="logical" >  T  T  T </v>
   <v type="logical" >  T  T  T </v>
   <v type="logical" >  T  T  T </v>
   <v type="logical" >  T  T  T </v>
   <v type="logical" >  T  T  T </v>
   <v type="logical" >  T  T  T </v>
   <v type="logical" >  T  T  T </v>
   <v type="logical" >  T  T  T </v>
   <v type="logical" >  T  T  T </v>
   <v type="logical" >  T  T  T </v>
   <v type="logical" >  T  T  T </v>
   <v type="logical" >  T  T  T </v>
   <v type="logical" >  T  T  T </v>
   <v type="logical" >  T  T  T </v>
   <v type="logical" >  T  T  T </v>
   <v type="logical" >  T  T  T </v>
   <v type="logical" >  T  T  T </v>
   <v type="logical" >  T  T  T </v>
   <v type="logical" >  T  T  T </v>
   <v type="logical" >  T  T  T </v>
   <v type="logical" >  T  T  T </v>
   <v type="logical" >  T  T  T </v>
   <v type="logical" >  T  T  T </v>
   <v type="logical" >  T  T  T </v>
   <v type="logical" >  T  T  T </v>
   <v type="logical" >  T  T  T </v>
   <v type="logical" >  T  T  T </v>
   <v type="logical" >  T  T  T </v>
   <v type="logical" >  T  T  T </v>
   <v type="logical" >  T  T  T </v>
   <v type="logical" >  T  T  T </v>
   <v type="logical" >  T  T  T </v>
   <v type="logical" >  T  T  T </v>
   <v type="logical" >  T  T  T </v>
   <v type="logical" >  T  T  T </v>
   <v type="logical" >  T  T  T </v>
   <v type="logical" >  T  T  T </v>
   <v type="logical" >  T  T  T </v>
   <v type="logical" >  T  T  T </v>
   <v type="logical" >  T  T  T </v>
   <v type="logical" >  T  T  T </v>
   <v type="logical" >  T  T  T </v>
   <v type="logical" >  T  T  T </v>
   <v type="logical" >  T  T  T </v>
   <v type="logical" >  T  T  T </v>
   <v type="logical" >  T  T  T </v>
   <v type="logical" >  T  T  T </v>
   <v type="logical" >  T  T  T </v>
   <v type="logical" >  T  T  T </v>
   <v type="logical" >  T  T  T </v>
   <v type="logical" >  T  T  T </v>
   <v type="logical" >  T  T  T </v>
   <v type="logical" >  T  T  T </v>
   <v type="logical" >  T  T  T </v>
   <v type="logical" >  T  T  T </v>
   <v type="logical" >  T  T  T </v>
   <v type="logical" >  T  T  T </v>
   <v type="logical" >  T  T  T </v>
   <v type="logical" >  T  T  T </v>
   <v type="logical" >  T  T  T </v>
   <v type="logical" >  T  T  T </v>
   <v type="logical" >  T  T  T </v>
   <v type="logical" >  T  T  T </v>
   <v type="logical" >  T  T  T </v>
   <v type="logical" >  T  T  T </v>
   <v type="logical" >  T  T  T </v>
   <v type="logical" >  T  T  T </v>
   <v type="logical" >  T  T  T </v>
   <v type="logical" >  T  T  T </v>
   <v type="logical" >  T  T  T </v>
   <v type="logical" >  T  T  T </v>
   <v type="logical" >  T  T  T </v>
   <v type="logical" >  T  T  F </v>
  </varray>
  <nose>
   <v>      -3.00000000       0.00000000       0.00010000       0.00010000 </v>
  </nose>
 </structure>
 <calculation>
  <scstep>
   <time name="dav">   89.48   90.35</time>
   <time name="total">   90.69   91.57</time>
   <energy>
    <i name="alphaZ">    186.33367753 </i>
    <i name="ewald">  37681.93879991 </i>
    <i name="hartreedc"> -48834.74888957 </i>
    <i name="XCdc">   1280.15350533 </i>
    <i name="pawpsdc">  10991.97733137 </i>
    <i name="pawaedc"> -11054.15789429 </i>
    <i name="eentropy">     -0.03257566 </i>
    <i name="bandstr">  -1522.10759979 </i>
    <i name="atom">  14800.58670786 </i>
    <i name="e_fr_energy">   3529.94306270 </i>
    <i name="e_wo_entrp">   3529.97563836 </i>
    <i name="e_0_energy">   3529.95935053 </i>
   </energy>
  </scstep>
  <scstep>
   <time name="dav">  110.96  111.94</time>
   <time name="total">  110.97  111.95</time>
   <energy>
    <i name="e_fr_energy">   -203.31520698 </i>
    <i name="e_wo_entrp">   -203.31291443 </i>
    <i name="e_0_energy">   -203.31406071 </i>
   </energy>
  </scstep>
  <scstep>
   <time name="dav">   94.75   95.60</time>
   <time name="total">   94.77   95.62</time>
   <energy>
    <i name="e_fr_energy">   -887.80939640 </i>
    <i name="e_wo_entrp">   -887.80925909 </i>
    <i name="e_0_energy">   -887.80932774 </i>
   </energy>
  </scstep>
  <scstep>
   <time name="dav">   94.03   94.90</time>
   <time name="total">   94.04   94.91</time>
   <energy>
    <i name="e_fr_energy">   -913.22836321 </i>
    <i name="e_wo_entrp">   -913.22824752 </i>
    <i name="e_0_energy">   -913.22830537 </i>
   </energy>
  </scstep>
  <scstep>
   <time name="dav">  104.89  105.78</time>
   <time name="total">  105.84  106.74</time>
   <energy>
    <i name="e_fr_energy">   -914.00460674 </i>
    <i name="e_wo_entrp">   -914.00448260 </i>
    <i name="e_0_energy">   -914.00454467 </i>
   </energy>
  </scstep>
  <scstep>
   <time name="dav">   90.39   91.19</time>
   <time name="total">   92.82   93.64</time>
   <energy>
    <i name="e_fr_energy">   -880.59186488 </i>
    <i name="e_wo_entrp">   -880.59175119 </i>
    <i name="e_0_energy">   -880.59180804 </i>
   </energy>
  </scstep>
  <scstep>
   <time name="dav">   89.10   89.91</time>
   <time name="total">   91.45   92.28</time>
   <energy>
    <i name="e_fr_energy">   -852.17604070 </i>
    <i name="e_wo_entrp">   -852.17593224 </i>
    <i name="e_0_energy">   -852.17598647 </i>
   </energy>
  </scstep>
  <scstep>
   <time name="dav">   93.00   93.79</time>
   <time name="total">   95.36   96.18</time>
   <energy>
    <i name="e_fr_energy">   -851.82929248 </i>
    <i name="e_wo_entrp">   -851.82919706 </i>
    <i name="e_0_energy">   -851.82924477 </i>
   </energy>
  </scstep>
  <scstep>
   <time name="dav">   90.60   91.39</time>
   <time name="total">   92.95   93.76</time>
   <energy>
    <i name="e_fr_energy">   -851.90583076 </i>
    <i name="e_wo_entrp">   -851.90573502 </i>
    <i name="e_0_energy">   -851.90578289 </i>
   </energy>
  </scstep>
  <scstep>
   <time name="dav">   91.27   92.05</time>
   <time name="total">   93.62   94.43</time>
   <energy>
    <i name="e_fr_energy">   -851.77292411 </i>
    <i name="e_wo_entrp">   -851.77282775 </i>
    <i name="e_0_energy">   -851.77287593 </i>
   </energy>
  </scstep>
  <scstep>
   <time name="dav">   89.67   90.46</time>
   <time name="total">   92.03   92.83</time>
   <energy>
    <i name="e_fr_energy">   -851.76274705 </i>
    <i name="e_wo_entrp">   -851.76265108 </i>
    <i name="e_0_energy">   -851.76269907 </i>
   </energy>
  </scstep>
  <scstep>
   <time name="dav">   92.89   93.72</time>
   <time name="total">   95.27   96.13</time>
   <energy>
    <i name="e_fr_energy">   -851.76028391 </i>
    <i name="e_wo_entrp">   -851.76018676 </i>
    <i name="e_0_energy">   -851.76023534 </i>
   </energy>
  </scstep>
  <scstep>
   <time name="dav">   92.55   93.38</time>
   <time name="total">   94.91   95.77</time>
   <energy>
    <i name="e_fr_energy">   -851.76057559 </i>
    <i name="e_wo_entrp">   -851.76047853 </i>
    <i name="e_0_energy">   -851.76052706 </i>
   </energy>
  </scstep>
  <scstep>
   <time name="dav">   92.42   93.23</time>
   <time name="total">   94.82   95.65</time>
   <energy>
    <i name="e_fr_energy">   -851.76048836 </i>
    <i name="e_wo_entrp">   -851.76039134 </i>
    <i name="e_0_energy">   -851.76043985 </i>
   </energy>
  </scstep>
  <scstep>
   <time name="dav">   92.15   92.96</time>
   <time name="total">   94.41   95.24</time>
   <energy>
    <i name="e_fr_energy">   -851.76052364 </i>
    <i name="e_wo_entrp">   -851.76042662 </i>
    <i name="e_0_energy">   -851.76047513 </i>
   </energy>
  </scstep>
  <scstep>
   <time name="dav">   89.08   89.85</time>
   <time name="total">   91.48   92.27</time>
   <energy>
    <i name="e_fr_energy">   -851.76057278 </i>
    <i name="e_wo_entrp">   -851.76047573 </i>
    <i name="e_0_energy">   -851.76052426 </i>
   </energy>
  </scstep>
  <scstep>
   <time name="dav">   94.30   95.13</time>
   <time name="total">   96.68   97.56</time>
   <energy>
    <i name="e_fr_energy">   -851.76057163 </i>
    <i name="e_wo_entrp">   -851.76047456 </i>
    <i name="e_0_energy">   -851.76052309 </i>
   </energy>
  </scstep>
  <scstep>
   <time name="dav">   90.08   90.84</time>
   <time name="total">   91.50   92.27</time>
   <energy>
    <i name="alphaZ">    186.33367753 </i>
    <i name="ewald">  37681.93879991 </i>
    <i name="hartreedc"> -50395.49574005 </i>
    <i name="XCdc">   1337.78632616 </i>
    <i name="pawpsdc">  38630.91992294 </i>
    <i name="pawaedc"> -38703.89260904 </i>
    <i name="eentropy">     -0.00009706 </i>
    <i name="bandstr">  -4389.93756065 </i>
    <i name="atom">  14800.58670786 </i>
    <i name="e_fr_energy">   -851.76057238 </i>
    <i name="e_wo_entrp">   -851.76047533 </i>
    <i name="e_0_energy">   -851.76052386 </i>
   </energy>
  </scstep>
  <structure>
   <crystal>
    <varray name="basis" >
     <v>      17.27103806       0.00000000       0.00000000 </v>
     <v>      -8.63551903      14.95715771       0.00000000 </v>
     <v>       0.00000000       0.00000000      15.00000000 </v>
    </varray>
    <i name="volume">   3874.88459904 </i>
    <varray name="rec_basis" >
     <v>       0.05790040       0.03342881      -0.00000000 </v>
     <v>       0.00000000       0.06685762       0.00000000 </v>
     <v>       0.00000000      -0.00000000       0.06666667 </v>
    </varray>
   </crystal>
   <varray name="positions" >
    <v>       0.99996937       0.99999250       0.50103877 </v>
    <v>       0.99949250       0.14255116       0.50147238 </v>
    <v>       0.99926123       0.28540108       0.50265230 </v>
    <v>       0.99949763       0.42844924       0.50429358 </v>
    <v>       0.00009971       0.57156503       0.50420045 </v>
    <v>       0.00114451       0.71479680       0.50223958 </v>
    <v>       0.00103042       0.85790516       0.50074929 </v>
    <v>       0.14326463       0.00056061       0.50098710 </v>
    <v>       0.14282373       0.14320235       0.49871474 </v>
    <v>       0.14159959       0.28508093       0.49646763 </v>
    <v>       0.14148659       0.42824230       0.49834271 </v>
    <v>       0.14260477       0.57127123       0.50220673 </v>
    <v>       0.14324477       0.71441607       0.50385454 </v>
    <v>       0.14339130       0.85756914       0.50317045 </v>
    <v>       0.28575758       0.99998530       0.50208401 </v>
    <v>       0.28572836       0.14280099       0.49668011 </v>
    <v>       0.28591935       0.28664162       0.48733625 </v>
    <v>       0.28219332       0.42809360       0.48286386 </v>
    <v>       0.28529642       0.57033784       0.49284633 </v>
    <v>       0.28556906       0.71444362       0.50129019 </v>
    <v>       0.28570077       0.85737947       0.50379605 </v>
    <v>       0.42862597       0.99998815       0.50358790 </v>
    <v>       0.42847227       0.14228128       0.50113008 </v>
    <v>       0.42730131       0.28203417       0.49679495 </v>
    <v>       0.42673271       0.71591549       0.49985886 </v>
    <v>       0.42829795       0.85730243       0.50305295 </v>
    <v>       0.57127628       0.00037079       0.50329422 </v>
    <v>       0.57137727       0.14267057       0.50370396 </v>
    <v>       0.57223317       0.28599315       0.50207721 </v>
    <v>       0.57204460       0.85816288       0.50101051 </v>
    <v>       0.71417631       0.00001114       0.50076340 </v>
    <v>       0.71429900       0.14286006       0.50413253 </v>
    <v>       0.71429147       0.28569135       0.50369521 </v>
    <v>       0.71376418       0.42776526       0.49849843 </v>
    <v>       0.71837071       0.57320451       0.48285208 </v>
    <v>       0.72115994       0.71653992       0.47612348 </v>
    <v>       0.71323190       0.85718100       0.49302934 </v>
    <v>       0.85699190       0.99995235       0.49889530 </v>
    <v>       0.85675388       0.14268095       0.50281371 </v>
    <v>       0.85678801       0.28550910       0.50475794 </v>
    <v>       0.85716723       0.42855080       0.50316706 </v>
    <v>       0.85792505       0.57190524       0.49851926 </v>
    <v>       0.85983494       0.71543796       0.49385784 </v>
    <v>       0.85755922       0.85695567       0.49533767 </v>
    <v>       0.04754963       0.09534047       0.50094200 </v>
    <v>       0.04652043       0.23748337       0.50079761 </v>
    <v>       0.04642652       0.38054378       0.50248467 </v>
    <v>       0.04753692       0.52380085       0.50412188 </v>
    <v>       0.04809140       0.66690175       0.50385282 </v>
    <v>       0.04829290       0.80997788       0.50227053 </v>
    <v>       0.04805993       0.95281815       0.50132711 </v>
    <v>       0.19056851       0.09540409       0.49843196 </v>
    <v>       0.18997045       0.23833562       0.49495328 </v>
    <v>       0.18772033       0.37985458       0.49338351 </v>
    <v>       0.18970363       0.52341604       0.49811269 </v>
    <v>       0.19042888       0.66678833       0.50248941 </v>
    <v>       0.19077493       0.80983438       0.50381011 </v>
    <v>       0.19082732       0.95269894       0.50210577 </v>
    <v>       0.33335712       0.09531430       0.50003720 </v>
    <v>       0.33434356       0.23814137       0.49257732 </v>
    <v>       0.32646880       0.37871430       0.47566693 </v>
    <v>       0.32922801       0.52203239       0.48237723 </v>
    <v>       0.33379986       0.66749320       0.49794048 </v>
    <v>       0.33324036       0.80955675       0.50313806 </v>
    <v>       0.33324441       0.95242508       0.50340061 </v>
    <v>       0.47623183       0.09489789       0.50303107 </v>
    <v>       0.47549650       0.23712648       0.50065807 </v>
    <v>       0.47532247       0.80928992       0.50198184 </v>
    <v>       0.47612132       0.95257347       0.50360237 </v>
    <v>       0.61890396       0.09528287       0.50387314 </v>
    <v>       0.61923533       0.23797039       0.50326353 </v>
    <v>       0.62084624       0.37938521       0.50028798 </v>
    <v>       0.62028810       0.81329052       0.49730406 </v>
    <v>       0.61907710       0.95300346       0.50164335 </v>
    <v>       0.76181694       0.09532476       0.50291564 </v>
    <v>       0.76184831       0.23789524       0.50467264 </v>
    <v>       0.76199213       0.38080605       0.50188253 </v>
    <v>       0.76229290       0.52490888       0.49339104 </v>
    <v>       0.76538032       0.66714178       0.48353947 </v>
    <v>       0.76164242       0.80863144       0.48778905 </v>
    <v>       0.76180718       0.95252119       0.49726791 </v>
    <v>       0.90427833       0.09481683       0.50142452 </v>
    <v>       0.90418017       0.23780487       0.50396489 </v>
    <v>       0.90434576       0.38093740       0.50464654 </v>
    <v>       0.90501807       0.52407532       0.50263876 </v>
    <v>       0.90607076       0.66706669       0.49847497 </v>
    <v>       0.90592729       0.81022632       0.49678443 </v>
    <v>       0.90468466       0.95209707       0.49903645 </v>
    <v>       0.46374950       0.35411913       0.49721680 </v>
    <v>       0.40146957       0.55537018       0.47581012 </v>
    <v>       0.64614537       0.53990039       0.47617861 </v>
    <v>       0.58486594       0.41595685       0.50033714 </v>
    <v>       0.58384300       0.74122289       0.49766191 </v>
    <v>       0.46267625       0.67930526       0.49967203 </v>
    <v>       0.56692080       0.59240681       0.64412408 </v>
    <v>       0.48057309       0.50096281       0.64461553 </v>
    <v>       0.41563779       0.42889388       0.45695505 </v>
    <v>       0.63198449       0.66626244       0.45730356 </v>
    <v>       0.52373887       0.54639671       0.60466391 </v>
   </varray>
  </structure>
  <varray name="forces" >
   <v>      -0.00083652      -0.01001622      -0.02141863 </v>
   <v>      -0.00691691       0.01793522      -0.00646050 </v>
   <v>       0.00899790      -0.00691964      -0.00158414 </v>
   <v>      -0.02007289       0.01237912      -0.01115771 </v>
   <v>       0.00240305       0.00512206      -0.01829732 </v>
   <v>      -0.00763158       0.03129064      -0.00668498 </v>
   <v>       0.00540231      -0.01304359      -0.00404219 </v>
   <v>       0.00786149       0.02165123      -0.00061980 </v>
   <v>       0.00888997       0.01233810      -0.00349280 </v>
   <v>       0.00892631      -0.00826171      -0.00485717 </v>
   <v>       0.00996951       0.02305917      -0.00170289 </v>
   <v>      -0.01528952       0.03343753      -0.00420379 </v>
   <v>      -0.00968345      -0.01585193       0.00456297 </v>
   <v>       0.00090285      -0.00253364       0.00820737 </v>
   <v>      -0.02504561      -0.01231302       0.00494863 </v>
   <v>       0.01431725       0.00986120       0.00160277 </v>
   <v>      -0.01886254       0.01895974       0.00438626 </v>
   <v>      -0.01405025       0.01519198       0.01838697 </v>
   <v>      -0.00303679       0.00240019       0.00368162 </v>
   <v>       0.01033144       0.03114197      -0.00106446 </v>
   <v>      -0.01751170       0.03216304       0.00339334 </v>
   <v>       0.02065487       0.02100932      -0.01315629 </v>
   <v>      -0.04387437       0.04968615       0.00857409 </v>
   <v>      -0.01627903       0.01007510       0.01724529 </v>
   <v>      -0.00863007      -0.01400061      -0.00597082 </v>
   <v>       0.00705504      -0.03837409      -0.00119983 </v>
   <v>      -0.03052971       0.01776598      -0.00574466 </v>
   <v>      -0.00664593      -0.02477757      -0.00680880 </v>
   <v>       0.01800777      -0.01697563      -0.00658581 </v>
   <v>       0.00016725       0.03106252      -0.00128815 </v>
   <v>       0.02093165      -0.02024577      -0.00242996 </v>
   <v>       0.01288990       0.02746254       0.00725981 </v>
   <v>      -0.01469280       0.01442785      -0.00064913 </v>
   <v>       0.01746286       0.00322762       0.00171120 </v>
   <v>      -0.01147734       0.00887855       0.01777794 </v>
   <v>      -0.01306459       0.03757033       0.00873306 </v>
   <v>      -0.02256904       0.00574254       0.01025003 </v>
   <v>       0.00009474       0.02065874       0.00429672 </v>
   <v>      -0.01815746      -0.00078113       0.00767931 </v>
   <v>       0.00087700      -0.01204174      -0.00461410 </v>
   <v>       0.00778590       0.02357434      -0.00951018 </v>
   <v>      -0.04417074       0.01002885       0.00892237 </v>
   <v>       0.00150478       0.00122542      -0.00549771 </v>
   <v>      -0.00003114      -0.00606801      -0.00453692 </v>
   <v>      -0.00084884       0.01088992      -0.01002306 </v>
   <v>       0.00522997      -0.01554825      -0.00187868 </v>
   <v>       0.00737634      -0.01424199      -0.00140329 </v>
   <v>      -0.00898289      -0.01542724       0.00362302 </v>
   <v>       0.02630862      -0.00402155       0.00169208 </v>
   <v>       0.00611275      -0.00713783      -0.00486481 </v>
   <v>       0.00122420      -0.01565589      -0.00413505 </v>
   <v>      -0.01725701      -0.03238525       0.00468248 </v>
   <v>      -0.00094298       0.01357106      -0.00952825 </v>
   <v>       0.00270827       0.00946956       0.00236062 </v>
   <v>       0.01467459      -0.02447058       0.01315201 </v>
   <v>      -0.02041955      -0.03566640      -0.00808264 </v>
   <v>      -0.00344976       0.00916899      -0.00337050 </v>
   <v>       0.00737523      -0.01589076      -0.00065344 </v>
   <v>       0.00641155       0.00514951       0.00476163 </v>
   <v>       0.02816425      -0.01541001      -0.00427040 </v>
   <v>      -0.01876841      -0.03794795      -0.00347551 </v>
   <v>       0.00390213      -0.00463687       0.00414506 </v>
   <v>      -0.00322405       0.00146622       0.00647185 </v>
   <v>       0.01982677      -0.00292086      -0.00865368 </v>
   <v>      -0.00851542      -0.03199290       0.00881516 </v>
   <v>       0.04570700      -0.02124593       0.00035726 </v>
   <v>       0.01796847      -0.02607994       0.00169848 </v>
   <v>      -0.02497054       0.01917036      -0.00191850 </v>
   <v>       0.01734276       0.04783054       0.00292663 </v>
   <v>      -0.02794644      -0.02284642       0.00792349 </v>
   <v>      -0.00633111       0.02330869       0.00308822 </v>
   <v>      -0.00223583      -0.00333807      -0.00186199 </v>
   <v>       0.00951768      -0.00971985       0.00496928 </v>
   <v>       0.01690962      -0.04078461       0.00570066 </v>
   <v>       0.00441697       0.02549890      -0.00210328 </v>
   <v>       0.01317324      -0.02121149      -0.01054004 </v>
   <v>      -0.01056152      -0.01090877       0.00396246 </v>
   <v>       0.00987926       0.01224483       0.00251934 </v>
   <v>       0.00448217      -0.00691499      -0.01196758 </v>
   <v>      -0.00097067      -0.02336284      -0.00111678 </v>
   <v>       0.00180659      -0.00265694      -0.00158297 </v>
   <v>       0.02099663      -0.03550500       0.00401406 </v>
   <v>      -0.00267103      -0.00440069      -0.00338665 </v>
   <v>       0.00877293       0.00986794      -0.00104169 </v>
   <v>       0.02044378      -0.04105112      -0.00388182 </v>
   <v>       0.01740650      -0.01645094       0.02190576 </v>
   <v>       0.00571676       0.01465476      -0.00615529 </v>
   <v>      -0.00114922       0.00666600      -0.00283694 </v>
   <v>       0.00622608      -0.01125950      -0.00458272 </v>
   <v>      -0.00439228       0.00148296      -0.00428639 </v>
   <v>       0.00452509      -0.00608880      -0.00274085 </v>
   <v>       0.00728767       0.00648172      -0.00035061 </v>
   <v>      -0.00203526      -0.00225844      -0.00424156 </v>
   <v>      -0.00583857      -0.00053222       0.00361465 </v>
   <v>       0.01421589      -0.00523991       0.00243366 </v>
   <v>      -0.01041185       0.00991538      -0.00200789 </v>
   <v>      -0.00405781       0.02670033      -0.01157140 </v>
   <v>      -0.00433788      -0.01150140      -0.00346508 </v>
   <v>      -0.00216473      -0.00394822       0.03912054 </v>
  </varray>
  <varray name="stress" >
   <v>       5.62829782       0.10655405       0.01113752 </v>
   <v>       0.10655130       3.23882947      -0.00373603 </v>
   <v>       0.01113753      -0.00373599      -0.29319154 </v>
  </varray>
  <energy>
   <i name="e_fr_energy">   -859.62449102 </i>
   <i name="e_wo_entrp">   -859.62439396 </i>
   <i name="e_0_energy">   -859.62444249 </i>
  </energy>
  <time name="totalsc"> 1842.75 1859.05</time>
 </calculation>
 <calculation>
  <scstep>
   <time name="dav">   84.01   84.75</time>
   <time name="total">   86.26   87.03</time>
   <energy>
    <i name="alphaZ">    186.33367753 </i>
    <i name="ewald">  37681.89312872 </i>
    <i name="hartreedc"> -50395.46859755 </i>
    <i name="XCdc">   1337.78707874 </i>
    <i name="pawpsdc">  38630.77591473 </i>
    <i name="pawaedc"> -38703.74869296 </i>
    <i name="eentropy">     -0.00009508 </i>
    <i name="bandstr">  -4389.92012975 </i>
    <i name="atom">  14800.58670786 </i>
    <i name="e_fr_energy">   -851.76100776 </i>
    <i name="e_wo_entrp">   -851.76091267 </i>
    <i name="e_0_energy">   -851.76096022 </i>
   </energy>
  </scstep>
  <scstep>
   <time name="dav">   94.68   95.53</time>
   <time name="total">   97.02   97.90</time>
   <energy>
    <i name="e_fr_energy">   -851.76103461 </i>
    <i name="e_wo_entrp">   -851.76093949 </i>
    <i name="e_0_energy">   -851.76098705 </i>
   </energy>
  </scstep>
  <scstep>
   <time name="dav">   94.93   95.75</time>
   <time name="total">   97.26   98.10</time>
   <energy>
    <i name="e_fr_energy">   -851.76102009 </i>
    <i name="e_wo_entrp">   -851.76092492 </i>
    <i name="e_0_energy">   -851.76097250 </i>
   </energy>
  </scstep>
  <scstep>
   <time name="dav">   84.43   85.14</time>
   <time name="total">   86.76   87.49</time>
   <energy>
    <i name="e_fr_energy">   -851.76101121 </i>
    <i name="e_wo_entrp">   -851.76091593 </i>
    <i name="e_0_energy">   -851.76096357 </i>
   </energy>
  </scstep>
  <scstep>
   <time name="dav">   81.39   82.12</time>
   <time name="total">   82.80   83.54</time>
   <energy>
    <i name="alphaZ">    186.33367753 </i>
    <i name="ewald">  37681.89312872 </i>
    <i name="hartreedc"> -50395.45181327 </i>
    <i name="XCdc">   1337.78671752 </i>
    <i name="pawpsdc">  38630.17122236 </i>
    <i name="pawaedc"> -38703.14350117 </i>
    <i name="eentropy">     -0.00009527 </i>
    <i name="bandstr">  -4389.93705557 </i>
    <i name="atom">  14800.58670786 </i>
    <i name="e_fr_energy">   -851.76101128 </i>
    <i name="e_wo_entrp">   -851.76091600 </i>
    <i name="e_0_energy">   -851.76096364 </i>
   </energy>
  </scstep>
  <structure>
   <crystal>
    <varray name="basis" >
     <v>      17.27103806       0.00000000       0.00000000 </v>
     <v>      -8.63551903      14.95715771       0.00000000 </v>
     <v>       0.00000000       0.00000000      15.00000000 </v>
    </varray>
    <i name="volume">   3874.88459904 </i>
    <varray name="rec_basis" >
     <v>       0.05790040       0.03342881      -0.00000000 </v>
     <v>       0.00000000       0.06685762       0.00000000 </v>
     <v>       0.00000000      -0.00000000       0.06666667 </v>
    </varray>
   </crystal>
   <varray name="positions" >
    <v>       0.99996567       0.99998604       0.50102499 </v>
    <v>       0.99949442       0.14256273       0.50146823 </v>
    <v>       0.99926402       0.28539662       0.50265128 </v>
    <v>       0.99949041       0.42845722       0.50428640 </v>
    <v>       0.00010270       0.57156833       0.50418868 </v>
    <v>       0.00115034       0.71481699       0.50223528 </v>
    <v>       0.00102924       0.85789675       0.50074669 </v>
    <v>       0.14327600       0.00057458       0.50098670 </v>
    <v>       0.14283268       0.14321031       0.49871250 </v>
    <v>       0.14160191       0.28507560       0.49646451 </v>
    <v>       0.14149960       0.42825718       0.49834162 </v>
    <v>       0.14260701       0.57129280       0.50220403 </v>
    <v>       0.14323425       0.71440584       0.50385747 </v>
    <v>       0.14339098       0.85756750       0.50317573 </v>
    <v>       0.28573962       0.99997736       0.50208719 </v>
    <v>       0.28573954       0.14280735       0.49668114 </v>
    <v>       0.28591492       0.28665385       0.48733907 </v>
    <v>       0.28219037       0.42810340       0.48287569 </v>
    <v>       0.28529550       0.57033938       0.49284870 </v>
    <v>       0.28558488       0.71446371       0.50128951 </v>
    <v>       0.28570136       0.85740021       0.50379823 </v>
    <v>       0.42864428       0.00000170       0.50357944 </v>
    <v>       0.42846378       0.14231333       0.50113559 </v>
    <v>       0.42729547       0.28204066       0.49680604 </v>
    <v>       0.42672337       0.71590646       0.49985502 </v>
    <v>       0.42828951       0.85727767       0.50305218 </v>
    <v>       0.57126495       0.00038225       0.50329052 </v>
    <v>       0.57136557       0.14265458       0.50369958 </v>
    <v>       0.57223775       0.28598220       0.50207297 </v>
    <v>       0.57205471       0.85818292       0.50100968 </v>
    <v>       0.71418148      -0.00000192       0.50076184 </v>
    <v>       0.71431506       0.14287777       0.50413720 </v>
    <v>       0.71428792       0.28570066       0.50369479 </v>
    <v>       0.71377498       0.42776735       0.49849953 </v>
    <v>       0.71836717       0.57321024       0.48286351 </v>
    <v>       0.72116476       0.71656416       0.47612910 </v>
    <v>       0.71322114       0.85718471       0.49303593 </v>
    <v>       0.85699862       0.99996568       0.49889807 </v>
    <v>       0.85674348       0.14268044       0.50281865 </v>
    <v>       0.85678462       0.28550133       0.50475497 </v>
    <v>       0.85717918       0.42856601       0.50316094 </v>
    <v>       0.85790361       0.57191171       0.49852500 </v>
    <v>       0.85983618       0.71543875       0.49385431 </v>
    <v>       0.85755724       0.85695176       0.49533475 </v>
    <v>       0.04755267       0.09534749       0.50093555 </v>
    <v>       0.04651834       0.23747334       0.50079640 </v>
    <v>       0.04642605       0.38053459       0.50248376 </v>
    <v>       0.04752693       0.52379090       0.50412421 </v>
    <v>       0.04810480       0.66689916       0.50385391 </v>
    <v>       0.04829402       0.80997328       0.50226740 </v>
    <v>       0.04805557       0.95280805       0.50132445 </v>
    <v>       0.19054842       0.09538320       0.49843497 </v>
    <v>       0.18997430       0.23834437       0.49494715 </v>
    <v>       0.18772489       0.37986069       0.49338503 </v>
    <v>       0.18970394       0.52340026       0.49812115 </v>
    <v>       0.19040597       0.66676533       0.50248421 </v>
    <v>       0.19077596       0.80984029       0.50380794 </v>
    <v>       0.19082631       0.95268869       0.50210535 </v>
    <v>       0.33336237       0.09531762       0.50004027 </v>
    <v>       0.33435432       0.23813143       0.49257457 </v>
    <v>       0.32644608       0.37868982       0.47566469 </v>
    <v>       0.32922870       0.52202940       0.48237990 </v>
    <v>       0.33379853       0.66749415       0.49794464 </v>
    <v>       0.33325050       0.80955486       0.50313249 </v>
    <v>       0.33322933       0.95240444       0.50340628 </v>
    <v>       0.47625051       0.09488418       0.50303130 </v>
    <v>       0.47549813       0.23710966       0.50065916 </v>
    <v>       0.47531471       0.80930229       0.50198060 </v>
    <v>       0.47614644       0.95260432       0.50360425 </v>
    <v>       0.61888098       0.09526814       0.50387824 </v>
    <v>       0.61923932       0.23798543       0.50326551 </v>
    <v>       0.62084391       0.37938306       0.50028679 </v>
    <v>       0.62029028       0.81328425       0.49730726 </v>
    <v>       0.61907340       0.95297715       0.50164701 </v>
    <v>       0.76182763       0.09534121       0.50291428 </v>
    <v>       0.76184883       0.23788156       0.50466586 </v>
    <v>       0.76198271       0.38079901       0.50188508 </v>
    <v>       0.76230237       0.52491678       0.49339266 </v>
    <v>       0.76538060       0.66713732       0.48353177 </v>
    <v>       0.76163434       0.80861636       0.48778833 </v>
    <v>       0.76180733       0.95251948       0.49726689 </v>
    <v>       0.90427861       0.09479392       0.50142710 </v>
    <v>       0.90417726       0.23780203       0.50396271 </v>
    <v>       0.90435384       0.38094377       0.50464587 </v>
    <v>       0.90501625       0.52404884       0.50263626 </v>
    <v>       0.90607518       0.66705608       0.49848906 </v>
    <v>       0.90593521       0.81023578       0.49678047 </v>
    <v>       0.90468616       0.95210137       0.49903463 </v>
    <v>       0.46374935       0.35411187       0.49721385 </v>
    <v>       0.40146759       0.55537113       0.47580736 </v>
    <v>       0.64614593       0.53989646       0.47617685 </v>
    <v>       0.58487210       0.41596103       0.50033691 </v>
    <v>       0.58384114       0.74122143       0.49765918 </v>
    <v>       0.46267282       0.67930492       0.49967435 </v>
    <v>       0.56692705       0.59240343       0.64412565 </v>
    <v>       0.48057048       0.50096921       0.64461424 </v>
    <v>       0.41564414       0.42891110       0.45694761 </v>
    <v>       0.63197836       0.66625502       0.45730133 </v>
    <v>       0.52373638       0.54639416       0.60466391 </v>
   </varray>
  </structure>
  <varray name="forces" >
   <v>       0.00184599      -0.00379850      -0.01927900 </v>
   <v>      -0.00013126       0.00165550      -0.00588807 </v>
   <v>       0.00580709      -0.00332192      -0.00151962 </v>
   <v>      -0.00406717      -0.00146260      -0.00949690 </v>
   <v>       0.00178822      -0.00416551      -0.01574406 </v>
   <v>       0.00661069       0.00905040      -0.00431050 </v>
   <v>       0.00506515      -0.00476163      -0.00406207 </v>
   <v>       0.00112403      -0.00082166      -0.00011311 </v>
   <v>       0.00123098       0.00626529      -0.00360478 </v>
   <v>       0.00214672      -0.00130869      -0.00481742 </v>
   <v>       0.00339880       0.00359140      -0.00005205 </v>
   <v>      -0.00654300       0.00247528      -0.00323025 </v>
   <v>      -0.00270636      -0.00665756       0.00322346 </v>
   <v>       0.00230024      -0.00509877       0.00654976 </v>
   <v>      -0.00734505      -0.01059110       0.00519827 </v>
   <v>       0.00435623      -0.00486430       0.00162321 </v>
   <v>      -0.00213193       0.00033642       0.00421548 </v>
   <v>      -0.00690359       0.00444429       0.01564835 </v>
   <v>      -0.00296645      -0.00215361       0.00449290 </v>
   <v>      -0.00169694       0.00950034      -0.00180521 </v>
   <v>      -0.00528888       0.00919778       0.00274327 </v>
   <v>       0.00938279       0.00605194      -0.01070009 </v>
   <v>      -0.00532335       0.01082734       0.00867896 </v>
   <v>       0.00335798      -0.00201636       0.01581879 </v>
   <v>      -0.00401048       0.00059670      -0.00476404 </v>
   <v>       0.00220766      -0.00069789      -0.00106089 </v>
   <v>      -0.00352964       0.00413411      -0.00415551 </v>
   <v>      -0.00004329      -0.00762091      -0.00528071 </v>
   <v>       0.00847228      -0.00510967      -0.00590379 </v>
   <v>      -0.00056659       0.00505667      -0.00073410 </v>
   <v>       0.00941978      -0.00786774      -0.00149572 </v>
   <v>      -0.00168218       0.00587319       0.00584424 </v>
   <v>      -0.00517162       0.00365322      -0.00031868 </v>
   <v>       0.00605391       0.00168029       0.00153891 </v>
   <v>      -0.00821389       0.00585709       0.01586293 </v>
   <v>      -0.00813163       0.00827014       0.00391018 </v>
   <v>      -0.00885485      -0.00086121       0.00845514 </v>
   <v>       0.00344863       0.00380504       0.00331737 </v>
   <v>      -0.00027247      -0.00460444       0.00632118 </v>
   <v>       0.00363117      -0.00347945      -0.00490866 </v>
   <v>       0.00522500       0.00309072      -0.00818151 </v>
   <v>      -0.00955476      -0.00375362       0.01050097 </v>
   <v>       0.00543710      -0.00165804      -0.00469482 </v>
   <v>      -0.00013870       0.00090429      -0.00374126 </v>
   <v>       0.00158849       0.00895892      -0.01052732 </v>
   <v>       0.00589258      -0.00489057      -0.00243519 </v>
   <v>       0.00290051      -0.00505673      -0.00209408 </v>
   <v>      -0.00594407       0.00079968       0.00100865 </v>
   <v>       0.00483011       0.00301480       0.00022637 </v>
   <v>       0.00322150      -0.00272672      -0.00429800 </v>
   <v>       0.00369862      -0.00904953      -0.00479265 </v>
   <v>      -0.00173261      -0.00671703       0.00315711 </v>
   <v>       0.00000926       0.00647856      -0.00734119 </v>
   <v>       0.00051722       0.00523846       0.00302846 </v>
   <v>       0.00467897       0.00132151       0.01184215 </v>
   <v>      -0.00550949      -0.00778895      -0.00712224 </v>
   <v>      -0.00332534       0.00242249      -0.00172140 </v>
   <v>      -0.00039648      -0.00633904       0.00010187 </v>
   <v>      -0.00358086       0.00371080       0.00496187 </v>
   <v>       0.00887156      -0.00318052      -0.00353625 </v>
   <v>      -0.01152639      -0.00772579      -0.00631687 </v>
   <v>       0.00161586       0.00163672       0.00509351 </v>
   <v>      -0.00640930       0.00171050       0.00521925 </v>
   <v>       0.00414205       0.00417714      -0.00720805 </v>
   <v>      -0.00581742      -0.00377166       0.00725324 </v>
   <v>       0.00493883       0.00093894      -0.00119430 </v>
   <v>       0.00054725      -0.00067144       0.00208545 </v>
   <v>      -0.00765137       0.00099014      -0.00269399 </v>
   <v>       0.00580738       0.01329092       0.00118156 </v>
   <v>      -0.00755151      -0.00346006       0.00651468 </v>
   <v>       0.00172174       0.00426597       0.00215441 </v>
   <v>       0.00423924      -0.00374450      -0.00223850 </v>
   <v>      -0.00187399      -0.00218091       0.00529362 </v>
   <v>       0.00762007      -0.00827172       0.00485906 </v>
   <v>       0.00075646       0.00735081      -0.00128458 </v>
   <v>       0.00201065      -0.00357157      -0.00890621 </v>
   <v>      -0.00137918      -0.00025121       0.00307076 </v>
   <v>      -0.00139362       0.00742654       0.00330640 </v>
   <v>      -0.00012836       0.00384117      -0.00970574 </v>
   <v>      -0.00717979      -0.00070293       0.00212271 </v>
   <v>       0.00288903      -0.00021268      -0.00075359 </v>
   <v>       0.00402370      -0.00976407       0.00426463 </v>
   <v>      -0.00020093      -0.00388365      -0.00274063 </v>
   <v>       0.00185502       0.00237641      -0.00245699 </v>
   <v>       0.00030994      -0.01016622      -0.00529052 </v>
   <v>       0.00390522      -0.00113923       0.01830822 </v>
   <v>       0.00268911       0.00436379      -0.00673264 </v>
   <v>      -0.00187082      -0.00107561      -0.00400145 </v>
   <v>       0.00456041      -0.00419500      -0.00423051 </v>
   <v>      -0.00301703       0.00120282      -0.00444436 </v>
   <v>       0.00269368      -0.00591685      -0.00234816 </v>
   <v>       0.00626578       0.00595446      -0.00041792 </v>
   <v>      -0.00171279      -0.00431151      -0.00418120 </v>
   <v>      -0.00481003      -0.00113887       0.00335547 </v>
   <v>       0.01309502      -0.00741330       0.00034223 </v>
[...]
       <r>   -17.5350     5.7242    32.3666 </r>
       <r>   -17.4166     9.6749    33.5126 </r>
       <r>   -17.2981    11.2546    34.8458 </r>
       <r>   -17.1797     6.5880    35.6261 </r>
       <r>   -17.0612     6.0954    36.3482 </r>
       <r>   -16.9428     6.4010    37.1064 </r>
       <r>   -16.8243    11.0792    38.4188 </r>
       <r>   -16.7059    13.0663    39.9665 </r>
       <r>   -16.5874     8.4629    40.9690 </r>
       <r>   -16.4690     6.1874    41.7019 </r>
       <r>   -16.3505     5.0997    42.3060 </r>
       <r>   -16.2320     9.4881    43.4299 </r>
       <r>   -16.1136     5.1547    44.0405 </r>
       <r>   -15.9951     4.2825    44.5478 </r>
       <r>   -15.8767     3.4576    44.9573 </r>
       <r>   -15.7582     6.9707    45.7830 </r>
       <r>   -15.6398     3.3763    46.1830 </r>
       <r>   -15.5213     2.2326    46.4475 </r>
       <r>   -15.4029     4.5790    46.9899 </r>
       <r>   -15.2844     5.0084    47.5831 </r>
       <r>   -15.1660    10.9747    48.8831 </r>
       <r>   -15.0475     7.6915    49.7942 </r>
       <r>   -14.9290     6.9847    50.6216 </r>
       <r>   -14.8106    10.5792    51.8747 </r>
       <r>   -14.6921     8.0216    52.8249 </r>
       <r>   -14.5737     8.5324    53.8356 </r>
       <r>   -14.4552    11.2623    55.1697 </r>
       <r>   -14.3368     8.6380    56.1929 </r>
       <r>   -14.2183     8.7342    57.2275 </r>
       <r>   -14.0999     7.6223    58.1304 </r>
       <r>   -13.9814     8.7659    59.1687 </r>
       <r>   -13.8630     7.4890    60.0558 </r>
       <r>   -13.7445     6.2851    60.8003 </r>
       <r>   -13.6261     6.0015    61.5112 </r>
       <r>   -13.5076     8.4430    62.5114 </r>
       <r>   -13.3891     8.5734    63.5269 </r>
       <r>   -13.2707     7.1397    64.3726 </r>
       <r>   -13.1522     6.7870    65.1766 </r>
       <r>   -13.0338     4.7550    65.7398 </r>
       <r>   -12.9153     6.0625    66.4580 </r>
       <r>   -12.7969     7.1417    67.3039 </r>
       <r>   -12.6784     8.4238    68.3017 </r>
       <r>   -12.5600     9.4672    69.4232 </r>
       <r>   -12.4415    10.4301    70.6587 </r>
       <r>   -12.3231     7.1431    71.5048 </r>
       <r>   -12.2046     9.0099    72.5720 </r>
       <r>   -12.0861     8.7298    73.6061 </r>
       <r>   -11.9677     8.4482    74.6069 </r>
       <r>   -11.8492     8.2071    75.5790 </r>
       <r>   -11.7308    11.0110    76.8833 </r>
       <r>   -11.6123    14.7184    78.6268 </r>
       <r>   -11.4939    12.6703    80.1276 </r>
       <r>   -11.3754     7.4351    81.0084 </r>
       <r>   -11.2570     9.4794    82.1312 </r>
       <r>   -11.1385     9.7734    83.2889 </r>
       <r>   -11.0201    11.0296    84.5954 </r>
       <r>   -10.9016     8.9346    85.6538 </r>
       <r>   -10.7832     8.6229    86.6752 </r>
       <r>   -10.6647     9.0792    87.7507 </r>
       <r>   -10.5462    11.5541    89.1193 </r>
       <r>   -10.4278    10.9557    90.4170 </r>
       <r>   -10.3093    11.2598    91.7508 </r>
       <r>   -10.1909     8.0079    92.6994 </r>
       <r>   -10.0724    10.6960    93.9664 </r>
       <r>    -9.9540    20.0199    96.3378 </r>
       <r>    -9.8355    18.0574    98.4768 </r>
       <r>    -9.7171    13.0193   100.0190 </r>
       <r>    -9.5986    17.5427   102.0970 </r>
       <r>    -9.4802    18.1539   104.2474 </r>
       <r>    -9.3617    14.5672   105.9729 </r>
       <r>    -9.2432    22.7169   108.6638 </r>
       <r>    -9.1248    15.4089   110.4891 </r>
       <r>    -9.0063    22.4828   113.1523 </r>
       <r>    -8.8879    23.1731   115.8972 </r>
       <r>    -8.7694    21.1089   118.3977 </r>
       <r>    -8.6510    25.1234   121.3736 </r>
       <r>    -8.5325    20.7142   123.8273 </r>
       <r>    -8.4141    24.6056   126.7419 </r>
       <r>    -8.2956    17.4634   128.8105 </r>
       <r>    -8.1772    18.0673   130.9507 </r>
       <r>    -8.0587    18.8651   133.1853 </r>
       <r>    -7.9403    21.6019   135.7442 </r>
       <r>    -7.8218    17.8056   137.8533 </r>
       <r>    -7.7033    18.5302   140.0483 </r>
       <r>    -7.5849    17.8619   142.1641 </r>
       <r>    -7.4664    18.7284   144.3826 </r>
       <r>    -7.3480    12.8789   145.9081 </r>
       <r>    -7.2295    14.4374   147.6183 </r>
       <r>    -7.1111    18.4265   149.8010 </r>
       <r>    -6.9926    15.7810   151.6703 </r>
       <r>    -6.8742    11.9217   153.0825 </r>
       <r>    -6.7557    10.8725   154.3704 </r>
       <r>    -6.6373    17.4912   156.4423 </r>
       <r>    -6.5188    17.6640   158.5347 </r>
       <r>    -6.4003    10.8477   159.8196 </r>
       <r>    -6.2819    11.0147   161.1244 </r>
       <r>    -6.1634    13.3601   162.7069 </r>
       <r>    -6.0450    16.4461   164.6550 </r>
       <r>    -5.9265    13.1958   166.2181 </r>
       <r>    -5.8081    11.1578   167.5398 </r>
       <r>    -5.6896    16.9829   169.5515 </r>
       <r>    -5.5712    17.1773   171.5862 </r>
       <r>    -5.4527    16.0336   173.4855 </r>
       <r>    -5.3343     6.9619   174.3101 </r>
       <r>    -5.2158     6.9190   175.1297 </r>
       <r>    -5.0974     7.3154   175.9963 </r>
       <r>    -4.9789     7.3459   176.8664 </r>
       <r>    -4.8604    11.6437   178.2457 </r>
       <r>    -4.7420    11.8864   179.6537 </r>
       <r>    -4.6235     9.1486   180.7374 </r>
       <r>    -4.5051     7.8709   181.6697 </r>
       <r>    -4.3866    11.6797   183.0532 </r>
       <r>    -4.2682     8.3106   184.0376 </r>
       <r>    -4.1497     6.1888   184.7707 </r>
       <r>    -4.0313     4.6484   185.3213 </r>
       <r>    -3.9128     5.2999   185.9491 </r>
       <r>    -3.7944     3.3073   186.3409 </r>
       <r>    -3.6759     6.7325   187.1384 </r>
       <r>    -3.5575     3.0642   187.5014 </r>
       <r>    -3.4390     2.3366   187.7781 </r>
       <r>    -3.3205     4.0545   188.2584 </r>
       <r>    -3.2021     3.1580   188.6325 </r>
       <r>    -3.0836     3.9562   189.1011 </r>
       <r>    -2.9652     0.7727   189.1927 </r>
       <r>    -2.8467     1.4948   189.3697 </r>
       <r>    -2.7283     1.6769   189.5684 </r>
       <r>    -2.6098     1.5361   189.7503 </r>
       <r>    -2.4914     0.8414   189.8500 </r>
       <r>    -2.3729     1.1894   189.9909 </r>
       <r>    -2.2545     0.2347   190.0187 </r>
       <r>    -2.1360     1.3393   190.1773 </r>
       <r>    -2.0175     0.6334   190.2523 </r>
       <r>    -1.8991     1.6855   190.4520 </r>
       <r>    -1.7806     2.1587   190.7077 </r>
       <r>    -1.6622     0.9088   190.8154 </r>
       <r>    -1.5437     1.6936   191.0160 </r>
       <r>    -1.4253     4.4732   191.5459 </r>
       <r>    -1.3068     3.1791   191.9224 </r>
       <r>    -1.1884     4.8274   192.4943 </r>
       <r>    -1.0699     4.9830   193.0845 </r>
       <r>    -0.9515     5.3567   193.7190 </r>
       <r>    -0.8330     2.7104   194.0401 </r>
       <r>    -0.7146    10.3930   195.2712 </r>
       <r>    -0.5961     8.7298   196.3053 </r>
       <r>    -0.4776     8.4128   197.3018 </r>
       <r>    -0.3592    15.7735   199.1702 </r>
       <r>    -0.2407    11.0297   200.4767 </r>
       <r>    -0.1223     5.7968   201.1634 </r>
       <r>    -0.0038     3.8979   201.6251 </r>
       <r>     0.1146     6.8016   202.4308 </r>
       <r>     0.2331     9.5529   203.5624 </r>
       <r>     0.3515    11.5484   204.9303 </r>
       <r>     0.4700     4.9236   205.5136 </r>
       <r>     0.5884     9.4665   206.6349 </r>
       <r>     0.7069     5.6223   207.3009 </r>
       <r>     0.8254     6.0112   208.0129 </r>
       <r>     0.9438     7.0572   208.8489 </r>
       <r>     1.0623    11.3608   210.1946 </r>
       <r>     1.1807    12.5232   211.6781 </r>
       <r>     1.2992     7.1048   212.5196 </r>
       <r>     1.4176    10.6584   213.7822 </r>
       <r>     1.5361    11.0710   215.0936 </r>
       <r>     1.6545    12.8511   216.6159 </r>
       <r>     1.7730    14.5709   218.3418 </r>
       <r>     1.8914    11.9278   219.7547 </r>
       <r>     2.0099    16.3449   221.6909 </r>
       <r>     2.1283    15.1538   223.4859 </r>
       <r>     2.2468    16.3852   225.4268 </r>
       <r>     2.3653    20.8060   227.8914 </r>
       <r>     2.4837    21.8885   230.4841 </r>
       <r>     2.6022    23.0224   233.2112 </r>
       <r>     2.7206    17.5496   235.2901 </r>
       <r>     2.8391    23.2273   238.0414 </r>
       <r>     2.9575    14.6954   239.7822 </r>
       <r>     3.0760     1.8215   239.9979 </r>
       <r>     3.1944     0.0175   240.0000 </r>
       <r>     3.3129     0.0000   240.0000 </r>
       <r>     3.4313     0.0000   240.0000 </r>
       <r>     3.5498     0.0000   240.0000 </r>
       <r>     3.6683     0.0000   240.0000 </r>
       <r>     3.7867     0.0000   240.0000 </r>
       <r>     3.9052     0.0000   240.0000 </r>
       <r>     4.0236     0.0000   240.0000 </r>
       <r>     4.1421     0.0000   240.0000 </r>
       <r>     4.2605     0.0000   240.0000 </r>
       <r>     4.3790     0.0000   240.0000 </r>
       <r>     4.4974     0.0000   240.0000 </r>
       <r>     4.6159     0.0000   240.0000 </r>
      </set>
     </set>
    </array>
   </total>
  </dos>
 </calculation>
 <structure name="finalpos" >
  <crystal>
   <varray name="basis" >
    <v>      17.27103806       0.00000000       0.00000000 </v>
    <v>      -8.63551903      14.95715771       0.00000000 </v>
    <v>       0.00000000       0.00000000      15.00000000 </v>
   </varray>
   <i name="volume">   3874.88459904 </i>
   <varray name="rec_basis" >
    <v>       0.05790040       0.03342881      -0.00000000 </v>
    <v>       0.00000000       0.06685762       0.00000000 </v>
    <v>       0.00000000      -0.00000000       0.06666667 </v>
   </varray>
  </crystal>
  <varray name="positions" >
   <v>      -0.00002207       0.99998000       0.49897756 </v>
   <v>       0.99951318       0.14255207       0.49967846 </v>
   <v>       0.99929729       0.28536840       0.50119718 </v>
   <v>       0.99949586       0.42843713       0.50289524 </v>
   <v>       0.00009161       0.57155354       0.50296846 </v>
   <v>       0.00116919       0.71483157       0.50124324 </v>
   <v>       0.00103177       0.85789022       0.49924394 </v>
   <v>       0.14327147       0.00058412       0.49983310 </v>
   <v>       0.14287788       0.14325222       0.49727210 </v>
   <v>       0.14165694       0.28512306       0.49542835 </v>
   <v>       0.14153111       0.42829902       0.49786793 </v>
   <v>       0.14258214       0.57130620       0.50164096 </v>
   <v>       0.14321161       0.71442107       0.50314200 </v>
   <v>       0.14337115       0.85757430       0.50243166 </v>
   <v>       0.28571704       0.00001102       0.50214362 </v>
   <v>       0.28578748       0.14286694       0.49645577 </v>
   <v>       0.28603631       0.28676105       0.48693038 </v>
   <v>       0.28229506       0.42823499       0.48308685 </v>
   <v>       0.28532666       0.57042298       0.49343907 </v>
   <v>       0.28555798       0.71455022       0.50137459 </v>
   <v>       0.28567990       0.85746888       0.50378274 </v>
   <v>       0.42865676       0.00006257       0.50379068 </v>
   <v>       0.42847794       0.14237944       0.50168080 </v>
   <v>       0.42735361       0.28212890       0.49739415 </v>
   <v>       0.42667493       0.71595350       0.50078067 </v>
   <v>       0.42828598       0.85734773       0.50327808 </v>
   <v>       0.57128548       0.00040090       0.50337153 </v>
   <v>       0.57138313       0.14265347       0.50382867 </v>
   <v>       0.57228526       0.28597641       0.50264810 </v>
   <v>       0.57201699       0.85817833       0.50132672 </v>
   <v>       0.71418424      -0.00004232       0.50041619 </v>
   <v>       0.71432892       0.14285947       0.50366713 </v>
   <v>       0.71432854       0.28569096       0.50336978 </v>
   <v>       0.71381238       0.42775498       0.49894621 </v>
   <v>       0.71822629       0.57314603       0.48386868 </v>
   <v>       0.72096127       0.71641516       0.47645340 </v>
   <v>       0.71310504       0.85711257       0.49288137 </v>
   <v>       0.85698257       0.99992784       0.49765811 </v>
   <v>       0.85675325       0.14263517       0.50167398 </v>
   <v>       0.85682081       0.28546768       0.50345539 </v>
   <v>       0.85721960       0.42854009       0.50222409 </v>
   <v>       0.85788706       0.57189329       0.49834790 </v>
   <v>       0.85981423       0.71541535       0.49333801 </v>
   <v>       0.85750931       0.85692048       0.49415312 </v>
   <v>       0.04758231       0.09535518       0.49898522 </v>
   <v>       0.04655479       0.23746130       0.49929722 </v>
   <v>       0.04643718       0.38051758       0.50128044 </v>
   <v>       0.04750238       0.52377417       0.50296885 </v>
   <v>       0.04809973       0.66689796       0.50283006 </v>
   <v>       0.04829183       0.80997824       0.50111539 </v>
   <v>       0.04805389       0.95279342       0.49957898 </v>
   <v>       0.19057341       0.09540749       0.49745818 </v>
   <v>       0.19005497       0.23842059       0.49394987 </v>
   <v>       0.18778658       0.37993351       0.49307506 </v>
   <v>       0.18971993       0.52343671       0.49812131 </v>
   <v>       0.19036555       0.66678587       0.50205524 </v>
   <v>       0.19075299       0.80986571       0.50334494 </v>
   <v>       0.19080620       0.95269434       0.50153665 </v>
   <v>       0.33337130       0.09537505       0.50028360 </v>
   <v>       0.33444463       0.23821114       0.49252526 </v>
   <v>       0.32654198       0.37883190       0.47543930 </v>
   <v>       0.32932879       0.52217717       0.48299657 </v>
   <v>       0.33376586       0.66757071       0.49858125 </v>
   <v>       0.33324595       0.80964147       0.50322646 </v>
   <v>       0.33321672       0.95246286       0.50361936 </v>
   <v>       0.47626850       0.09493399       0.50336903 </v>
   <v>       0.47553505       0.23717208       0.50134097 </v>
   <v>       0.47527381       0.80934922       0.50247957 </v>
   <v>       0.47617511       0.95267907       0.50376252 </v>
   <v>       0.61888819       0.09526384       0.50382913 </v>
   <v>       0.61928128       0.23798462       0.50342696 </v>
   <v>       0.62090243       0.37936863       0.50106732 </v>
   <v>       0.62018866       0.81321424       0.49752499 </v>
   <v>       0.61907941       0.95296225       0.50172278 </v>
   <v>       0.76183861       0.09531960       0.50224809 </v>
   <v>       0.76188521       0.23785532       0.50387284 </v>
   <v>       0.76202408       0.38078161       0.50162352 </v>
   <v>       0.76226480       0.52490687       0.49394203 </v>
   <v>       0.76527328       0.66707745       0.48380542 </v>
   <v>       0.76149947       0.80853717       0.48744350 </v>
   <v>       0.76177037       0.95246447       0.49671902 </v>
   <v>       0.90428942       0.09475199       0.49999730 </v>
   <v>       0.90420832       0.23776380       0.50254894 </v>
   <v>       0.90438237       0.38091612       0.50326281 </v>
   <v>       0.90501366       0.52401134       0.50175958 </v>
   <v>       0.90607531       0.66704659       0.49801542 </v>
   <v>       0.90592574       0.81023627       0.49554463 </v>
   <v>       0.90467974       0.95209068       0.49737166 </v>
   <v>       0.46380287       0.35420262       0.49788667 </v>
   <v>       0.40156106       0.55560778       0.47627267 </v>
   <v>       0.64597246       0.53967614       0.47751656 </v>
   <v>       0.58497927       0.41598644       0.50154437 </v>
   <v>       0.58372109       0.74114591       0.49790753 </v>
   <v>       0.46258181       0.67931364       0.50125558 </v>
   <v>       0.57149477       0.58700141       0.64383333 </v>
   <v>       0.47625668       0.50587439       0.64486585 </v>
   <v>       0.41568288       0.42916145       0.45656764 </v>
   <v>       0.63164243       0.66582912       0.45844203 </v>
   <v>       0.52356928       0.54601182       0.60466391 </v>
  </varray>
  <varray name="selective"  type="logical" >
   <v type="logical" >  T  T  T </v>
   <v type="logical" >  T  T  T </v>
   <v type="logical" >  T  T  T </v>
   <v type="logical" >  T  T  T </v>
   <v type="logical" >  T  T  T </v>
   <v type="logical" >  T  T  T </v>
   <v type="logical" >  T  T  T </v>
   <v type="logical" >  T  T  T </v>
   <v type="logical" >  T  T  T </v>
   <v type="logical" >  T  T  T </v>
   <v type="logical" >  T  T  T </v>
   <v type="logical" >  T  T  T </v>
   <v type="logical" >  T  T  T </v>
   <v type="logical" >  T  T  T </v>
   <v type="logical" >  T  T  T </v>
   <v type="logical" >  T  T  T </v>
   <v type="logical" >  T  T  T </v>
   <v type="logical" >  T  T  T </v>
   <v type="logical" >  T  T  T </v>
   <v type="logical" >  T  T  T </v>
   <v type="logical" >  T  T  T </v>
   <v type="logical" >  T  T  T </v>
   <v type="logical" >  T  T  T </v>
   <v type="logical" >  T  T  T </v>
   <v type="logical" >  T  T  T </v>
   <v type="logical" >  T  T  T </v>
   <v type="logical" >  T  T  T </v>
   <v type="logical" >  T  T  T </v>
   <v type="logical" >  T  T  T </v>
   <v type="logical" >  T  T  T </v>
   <v type="logical" >  T  T  T </v>
   <v type="logical" >  T  T  T </v>
   <v type="logical" >  T  T  T </v>
   <v type="logical" >  T  T  T </v>
   <v type="logical" >  T  T  T </v>
   <v type="logical" >  T  T  T </v>
   <v type="logical" >  T  T  T </v>
   <v type="logical" >  T  T  T </v>
   <v type="logical" >  T  T  T </v>
   <v type="logical" >  T  T  T </v>
   <v type="logical" >  T  T  T </v>
   <v type="logical" >  T  T  T </v>
   <v type="logical" >  T  T  T </v>
   <v type="logical" >  T  T  T </v>
   <v type="logical" >  T  T  T </v>
   <v type="logical" >  T  T  T </v>
   <v type="logical" >  T  T  T </v>
   <v type="logical" >  T  T  T </v>
   <v type="logical" >  T  T  T </v>
   <v type="logical" >  T  T  T </v>
   <v type="logical" >  T  T  T </v>
   <v type="logical" >  T  T  T </v>
   <v type="logical" >  T  T  T </v>
   <v type="logical" >  T  T  T </v>
   <v type="logical" >  T  T  T </v>
   <v type="logical" >  T  T  T </v>
   <v type="logical" >  T  T  T </v>
   <v type="logical" >  T  T  T </v>
   <v type="logical" >  T  T  T </v>
   <v type="logical" >  T  T  T </v>
   <v type="logical" >  T  T  T </v>
   <v type="logical" >  T  T  T </v>
   <v type="logical" >  T  T  T </v>
   <v type="logical" >  T  T  T </v>
   <v type="logical" >  T  T  T </v>
   <v type="logical" >  T  T  T </v>
   <v type="logical" >  T  T  T </v>
   <v type="logical" >  T  T  T </v>
   <v type="logical" >  T  T  T </v>
   <v type="logical" >  T  T  T </v>
   <v type="logical" >  T  T  T </v>
   <v type="logical" >  T  T  T </v>
   <v type="logical" >  T  T  T </v>
   <v type="logical" >  T  T  T </v>
   <v type="logical" >  T  T  T </v>
   <v type="logical" >  T  T  T </v>
   <v type="logical" >  T  T  T </v>
   <v type="logical" >  T  T  T </v>
   <v type="logical" >  T  T  T </v>
   <v type="logical" >  T  T  T </v>
   <v type="logical" >  T  T  T </v>
   <v type="logical" >  T  T  T </v>
   <v type="logical" >  T  T  T </v>
   <v type="logical" >  T  T  T </v>
   <v type="logical" >  T  T  T </v>
   <v type="logical" >  T  T  T </v>
   <v type="logical" >  T  T  T </v>
   <v type="logical" >  T  T  T </v>
   <v type="logical" >  T  T  T </v>
   <v type="logical" >  T  T  T </v>
   <v type="logical" >  T  T  T </v>
   <v type="logical" >  T  T  T </v>
   <v type="logical" >  T  T  T </v>
   <v type="logical" >  T  T  T </v>
   <v type="logical" >  T  T  T </v>
   <v type="logical" >  T  T  T </v>
   <v type="logical" >  T  T  T </v>
   <v type="logical" >  T  T  T </v>
   <v type="logical" >  T  T  F </v>
  </varray>
  <nose>
   <v>      -3.00000000       0.00000000       0.00010000       0.00010000 </v>
  </nose>
 </structure>
</modeling>
