 running   48 mpi-ranks, with    1 threads/rank, on    1 nodes
 distrk:  each k-point on   48 cores,    1 groups
 distr:  one band on   24 cores,    2 groups
 vasp.6.4.2 20Jul23 (build Jan 24 2024 13:44:02) complex                         
 POSCAR found type information on POSCAR C H F O 
 POSCAR found :  4 types and      99 ions
 scaLAPACK will be used selectively (only on CPU)
 -----------------------------------------------------------------------------
|                                                                             |
|               ----> ADVICE to this user running VASP <----                  |
|                                                                             |
|     You have a (more or less) 'large supercell' and for larger cells it     |
|     might be more efficient to use real-space projection operators.         |
|     Therefore, try LREAL= Auto in the INCAR file.                           |
|     Mind: For very accurate calculation, you might also keep the            |
|     reciprocal projection scheme (i.e. LREAL=.FALSE.).                      |
|                                                                             |
 -----------------------------------------------------------------------------

 LDA part: xc-table for Pade appr. of Perdew
 POSCAR, INCAR and KPOINTS ok, starting setup
 FFT: planning ... GRIDC
 FFT: planning ... GRID_SOFT
 FFT: planning ... GRID
 WAVECAR not read
 entering main loop
       N       E                     dE             d eps       ncg     rms          rms(c)
DAV:   1     0.352994306270E+04    0.35299E+04   -0.14499E+05 10568   0.120E+03
DAV:   2    -0.203315206981E+03   -0.37333E+04   -0.35557E+04 14024   0.289E+02
DAV:   3    -0.887809396397E+03   -0.68449E+03   -0.68167E+03 11536   0.129E+02
DAV:   4    -0.913228363205E+03   -0.25419E+02   -0.25266E+02 11392   0.315E+01
DAV:   5    -0.914004606736E+03   -0.77624E+00   -0.77448E+00 13112   0.479E+00    0.439E+01
DAV:   6    -0.880591864876E+03    0.33413E+02   -0.21977E+01 10840   0.897E+00    0.335E+01
DAV:   7    -0.852176040704E+03    0.28416E+02   -0.10757E+02 10688   0.184E+01    0.134E+01
DAV:   8    -0.851829292477E+03    0.34675E+00   -0.73577E+00 11376   0.581E+00    0.622E+00
DAV:   9    -0.851905830758E+03   -0.76538E-01   -0.10488E+00 10960   0.235E+00    0.277E+00
DAV:  10    -0.851772924107E+03    0.13291E+00   -0.50073E-01 11112   0.146E+00    0.953E-01
DAV:  11    -0.851762747054E+03    0.10177E-01   -0.86776E-02 10864   0.677E-01    0.340E-01
DAV:  12    -0.851760283910E+03    0.24631E-02   -0.27482E-02 11400   0.487E-01    0.136E-01
DAV:  13    -0.851760575595E+03   -0.29168E-03   -0.48619E-03 11288   0.161E-01    0.130E-01
DAV:  14    -0.851760488364E+03    0.87231E-04   -0.75859E-04 11296   0.679E-02    0.851E-02
DAV:  15    -0.851760523637E+03   -0.35273E-04   -0.40975E-04 11248   0.534E-02    0.395E-02
DAV:  16    -0.851760572777E+03   -0.49140E-04   -0.10076E-04 10752   0.236E-02    0.249E-02
DAV:  17    -0.851760571627E+03    0.11493E-05   -0.31994E-05 11600   0.201E-02    0.814E-03
DAV:  18    -0.851760572384E+03   -0.75690E-06   -0.99197E-06 10912   0.726E-03
   1 F= -.85962449E+03 E0= -.85962444E+03  d E =-.859624E+03  mag=     0.0000
 curvature:   0.00 expect dE= 0.000E+00 dE for cont linesearch  0.000E+00
 trial: gam= 0.00000 g(F)=  0.637E-03 g(S)=  0.000E+00 ort = 0.000E+00 (trialstep = 0.100E+01)
 search vector abs. value=  0.637E-03
 bond charge predicted
       N       E                     dE             d eps       ncg     rms          rms(c)
DAV:   1    -0.851761007759E+03   -0.43613E-03   -0.18704E-02 10080   0.308E-01    0.336E-02
DAV:   2    -0.851761034607E+03   -0.26848E-04   -0.45717E-04 11632   0.451E-02    0.291E-02
DAV:   3    -0.851761020089E+03    0.14518E-04   -0.24024E-05 11648   0.113E-02    0.203E-02
DAV:   4    -0.851761011207E+03    0.88822E-05   -0.40470E-05 10008   0.147E-02    0.523E-03
DAV:   5    -0.851761011276E+03   -0.68452E-07   -0.82683E-06  9528   0.600E-03
   2 F= -.85962490E+03 E0= -.85962485E+03  d E =-.404996E-03  mag=    -0.0000
 trial-energy change:   -0.000405  1 .order   -0.000406   -0.000637   -0.000175
 step:   1.3790(harm=  1.3790)  dis= 0.00066  next Energy=  -859.624930 (dE=-0.439E-03)
 bond charge predicted
       N       E                     dE             d eps       ncg     rms          rms(c)
DAV:   1    -0.851761056571E+03   -0.45364E-04   -0.26753E-03 10080   0.117E-01    0.133E-02
DAV:   2    -0.851761060717E+03   -0.41460E-05   -0.64382E-05 11664   0.170E-02    0.111E-02
DAV:   3    -0.851761058802E+03    0.19154E-05   -0.32845E-06  8304   0.443E-03    0.768E-03
DAV:   4    -0.851761058037E+03    0.76478E-06   -0.67128E-06  9456   0.581E-03
   3 F= -.85962493E+03 E0= -.85962488E+03  d E =-.438603E-03  mag=    -0.0000
 curvature:  -0.69 expect dE=-0.589E-04 dE for cont linesearch -0.386E-07
 trial: gam= 0.14353 g(F)=  0.854E-04 g(S)=  0.000E+00 ort =-0.597E-05 (trialstep = 0.108E+01)
 search vector abs. value=  0.968E-04
 bond charge predicted
       N       E                     dE             d eps       ncg     rms          rms(c)
DAV:   1    -0.851761139649E+03   -0.80847E-04   -0.27297E-03  9968   0.121E-01    0.102E-02
DAV:   2    -0.851761143727E+03   -0.40786E-05   -0.52651E-05 11472   0.154E-02    0.855E-03
DAV:   3    -0.851761143206E+03    0.52086E-06   -0.15101E-06  7192   0.314E-03
   4 F= -.85962501E+03 E0= -.85962496E+03  d E =-.792746E-04  mag=    -0.0000
 ZBRENT: can't locate minimum, use default step
 trial-energy change:   -0.000079  1 .order   -0.000080   -0.000091   -0.000068
 step:   4.3032(harm=  4.3213)  dis= 0.00083  next Energy=  -859.625112 (dE=-0.183E-03)
 bond charge predicted
       N       E                     dE             d eps       ncg     rms          rms(c)
DAV:   1    -0.851761217863E+03   -0.74135E-04   -0.24168E-02  9856   0.360E-01    0.300E-02
DAV:   2    -0.851761252309E+03   -0.34446E-04   -0.44464E-04 11488   0.444E-02    0.253E-02
DAV:   3    -0.851761248294E+03    0.40151E-05   -0.14931E-05 12128   0.883E-03    0.197E-02
DAV:   4    -0.851761246655E+03    0.16390E-05   -0.16187E-05  9888   0.100E-02    0.624E-03
DAV:   5    -0.851761247267E+03   -0.61288E-06   -0.43279E-06  7808   0.439E-03
   5 F= -.85962509E+03 E0= -.85962505E+03  d E =-.165283E-03  mag=     0.0000
 curvature:  -2.47 expect dE=-0.366E-03 dE for cont linesearch -0.245E-05
 trial: gam= 1.84635 g(F)=  0.148E-03 g(S)=  0.000E+00 ort =-0.980E-05 (trialstep = 0.377E+00)
 search vector abs. value=  0.442E-03
 bond charge predicted
       N       E                     dE             d eps       ncg     rms          rms(c)
DAV:   1    -0.851761293405E+03   -0.46750E-04   -0.15413E-03  9968   0.900E-02    0.751E-03
DAV:   2    -0.851761295670E+03   -0.22653E-05   -0.28750E-05 11464   0.112E-02    0.611E-03
DAV:   3    -0.851761295542E+03    0.12839E-06   -0.60889E-07  6136   0.203E-03
   6 F= -.85962514E+03 E0= -.85962509E+03  d E =-.461086E-04  mag=    -0.0000
 ZBRENT: can't locate minimum, use default step
 trial-energy change:   -0.000046  1 .order   -0.000046   -0.000049   -0.000043
 step:   1.5083(harm=  3.1013)  dis= 0.00063  next Energy=  -859.625297 (dE=-0.202E-03)
 bond charge predicted
       N       E                     dE             d eps       ncg     rms          rms(c)
DAV:   1    -0.851761378876E+03   -0.83206E-04   -0.13674E-02  9824   0.268E-01    0.209E-02
DAV:   2    -0.851761398528E+03   -0.19652E-04   -0.24631E-04 11440   0.328E-02    0.174E-02
DAV:   3    -0.851761397102E+03    0.14259E-05   -0.64147E-06 11120   0.582E-03    0.135E-02
DAV:   4    -0.851761397133E+03   -0.31388E-07   -0.70038E-06  9376   0.653E-03
   7 F= -.85962524E+03 E0= -.85962519E+03  d E =-.141090E-03  mag=    -0.0000
 curvature:  -3.47 expect dE=-0.230E-03 dE for cont linesearch -0.215E-04
 ZBRENT: increasing intervall
 opt :   3.7707  next Energy=  -859.625214 (dE=-0.119E-03)
 bond charge predicted
       N       E                     dE             d eps       ncg     rms          rms(c)
DAV:   1    -0.851761332049E+03    0.65053E-04   -0.55185E-02  9760   0.539E-01    0.416E-02
DAV:   2    -0.851761413141E+03   -0.81092E-04   -0.10035E-03 11376   0.666E-02    0.346E-02
DAV:   3    -0.851761407437E+03    0.57041E-05   -0.26654E-05 12112   0.118E-02    0.269E-02
DAV:   4    -0.851761406860E+03    0.57717E-06   -0.24985E-05  9840   0.126E-02    0.802E-03
DAV:   5    -0.851761408465E+03   -0.16046E-05   -0.75225E-06  9496   0.529E-03    0.442E-03
DAV:   6    -0.851761408274E+03    0.19035E-06   -0.97512E-07  6144   0.290E-03
   8 F= -.85962523E+03 E0= -.85962519E+03  d E =-.138604E-03  mag=     0.0000
 curvature:   3.49 expect dE= 0.521E-03 dE for cont linesearch  0.279E-04
 ZBRENT: bracketing found
 ZBRENT: interpolating
 opt :   2.5667  next Energy=  -859.625264 (dE=-0.169E-03)
 bond charge predicted
       N       E                     dE             d eps       ncg     rms          rms(c)
DAV:   1    -0.851761414734E+03   -0.62689E-05   -0.15572E-02  9776   0.286E-01    0.218E-02
DAV:   2    -0.851761437462E+03   -0.22729E-04   -0.28344E-04 11152   0.353E-02    0.182E-02
DAV:   3    -0.851761435301E+03    0.21615E-05   -0.76685E-06 11488   0.635E-03    0.141E-02
DAV:   4    -0.851761434259E+03    0.10425E-05   -0.76103E-06  9376   0.678E-03    0.430E-03
DAV:   5    -0.851761434638E+03   -0.37927E-06   -0.21638E-06  7216   0.286E-03
   9 F= -.85962527E+03 E0= -.85962522E+03  d E =-.172321E-03  mag=    -0.0000
 curvature:  -3.45 expect dE=-0.264E-03 dE for cont linesearch -0.140E-06
 trial: gam= 0.27633 g(F)=  0.765E-04 g(S)=  0.000E+00 ort = 0.423E-05 (trialstep = 0.815E+00)
 search vector abs. value=  0.113E-03
 bond charge predicted
       N       E                     dE             d eps       ncg     rms          rms(c)
DAV:   1    -0.851761492006E+03   -0.57747E-04   -0.16714E-03  9856   0.938E-02    0.770E-03
DAV:   2    -0.851761494488E+03   -0.24825E-05   -0.33143E-05 11200   0.123E-02    0.668E-03
DAV:   3    -0.851761494029E+03    0.45862E-06   -0.90498E-07  6704   0.255E-03
  10 F= -.85962532E+03 E0= -.85962528E+03  d E =-.562588E-04  mag=    -0.0000
 ZBRENT: can't locate minimum, use default step
 trial-energy change:   -0.000056  1 .order   -0.000057   -0.000063   -0.000051
 step:   3.2600(harm=  4.1403)  dis= 0.00079  next Energy=  -859.625428 (dE=-0.161E-03)
 bond charge predicted
       N       E                     dE             d eps       ncg     rms          rms(c)
DAV:   1    -0.851761573900E+03   -0.79412E-04   -0.14981E-02  9856   0.281E-01    0.241E-02
DAV:   2    -0.851761595660E+03   -0.21760E-04   -0.28340E-04 11424   0.357E-02    0.207E-02
DAV:   3    -0.851761592423E+03    0.32370E-05   -0.89733E-06 12048   0.727E-03    0.160E-02
DAV:   4    -0.851761591482E+03    0.94089E-06   -0.14074E-05  9640   0.943E-03    0.486E-03
DAV:   5    -0.851761591678E+03   -0.19603E-06   -0.38677E-06  7776   0.443E-03
  11 F= -.85962541E+03 E0= -.85962536E+03  d E =-.144136E-03  mag=    -0.0000
 curvature:  -2.79 expect dE=-0.182E-03 dE for cont linesearch -0.233E-05
 trial: gam= 0.75028 g(F)=  0.652E-04 g(S)=  0.000E+00 ort = 0.970E-05 (trialstep = 0.103E+01)
 search vector abs. value=  0.143E-03
 bond charge predicted
       N       E                     dE             d eps       ncg     rms          rms(c)
DAV:   1    -0.851761653615E+03   -0.62133E-04   -0.32116E-03  9856   0.129E-01    0.108E-02
DAV:   2    -0.851761657983E+03   -0.43687E-05   -0.58561E-05 11592   0.160E-02    0.949E-03
DAV:   3    -0.851761657359E+03    0.62458E-06   -0.15304E-06  7368   0.322E-03
  12 F= -.85962548E+03 E0= -.85962543E+03  d E =-.641654E-04  mag=    -0.0000
 trial-energy change:   -0.000064  1 .order   -0.000065   -0.000074   -0.000055
 step:   3.9118(harm=  3.9118)  dis= 0.00123  next Energy=  -859.625553 (dE=-0.142E-03)
 bond charge predicted
       N       E                     dE             d eps       ncg     rms          rms(c)
DAV:   1    -0.851761690214E+03   -0.32231E-04   -0.24983E-02  9728   0.360E-01    0.299E-02
DAV:   2    -0.851761723263E+03   -0.33049E-04   -0.44323E-04 11616   0.439E-02    0.265E-02
DAV:   3    -0.851761718651E+03    0.46125E-05   -0.13635E-05 11952   0.859E-03    0.204E-02
DAV:   4    -0.851761717909E+03    0.74218E-06   -0.20233E-05  9696   0.110E-02    0.514E-03
DAV:   5    -0.851761718334E+03   -0.42572E-06   -0.49403E-06  8360   0.454E-03
  13 F= -.85962553E+03 E0= -.85962548E+03  d E =-.120642E-03  mag=    -0.0000
 curvature:  -3.86 expect dE=-0.374E-03 dE for cont linesearch -0.524E-05
 ZBRENT: interpolating
 opt :   3.3153  next Energy=  -859.625536 (dE=-0.125E-03)
 bond charge predicted
       N       E                     dE             d eps       ncg     rms          rms(c)
DAV:   1    -0.851761720055E+03   -0.21462E-05   -0.10649E-03  9728   0.743E-02    0.594E-03
DAV:   2    -0.851761721388E+03   -0.13336E-05   -0.19421E-05 11184   0.920E-03    0.544E-03
DAV:   3    -0.851761720997E+03    0.39159E-06   -0.54733E-07  6328   0.188E-03
  14 F= -.85962554E+03 E0= -.85962549E+03  d E =-.124267E-03  mag=    -0.0000
 curvature:  -3.07 expect dE=-0.199E-03 dE for cont linesearch -0.110E-07
 trial: gam= 1.23037 g(F)=  0.649E-04 g(S)=  0.000E+00 ort =-0.718E-06 (trialstep = 0.759E+00)
 search vector abs. value=  0.280E-03
 bond charge predicted
       N       E                     dE             d eps       ncg     rms          rms(c)
DAV:   1    -0.851761760721E+03   -0.39333E-04   -0.32982E-03  9856   0.129E-01    0.988E-03
DAV:   2    -0.851761765349E+03   -0.46277E-05   -0.61204E-05 11184   0.163E-02    0.876E-03
DAV:   3    -0.851761764707E+03    0.64178E-06   -0.14906E-06  7304   0.309E-03
  15 F= -.85962558E+03 E0= -.85962553E+03  d E =-.440959E-04  mag=    -0.0000
 ZBRENT: can't locate minimum, use default step
 trial-energy change:   -0.000044  1 .order   -0.000045   -0.000049   -0.000041
 step:   3.0367(harm=  4.8791)  dis= 0.00154  next Energy=  -859.625692 (dE=-0.156E-03)
 bond charge predicted
       N       E                     dE             d eps       ncg     rms          rms(c)
DAV:   1    -0.851761799450E+03   -0.34101E-04   -0.28816E-02  9776   0.382E-01    0.316E-02
DAV:   2    -0.851761835948E+03   -0.36498E-04   -0.49248E-04 11536   0.461E-02    0.277E-02
DAV:   3    -0.851761831522E+03    0.44256E-05   -0.13803E-05 11728   0.881E-03    0.208E-02
DAV:   4    -0.851761832459E+03   -0.93660E-06   -0.17717E-05  9680   0.103E-02    0.554E-03
DAV:   5    -0.851761833094E+03   -0.63540E-06   -0.49013E-06  8656   0.435E-03
  16 F= -.85962565E+03 E0= -.85962560E+03  d E =-.113404E-03  mag=     0.0000
 curvature:  -8.53 expect dE=-0.467E-03 dE for cont linesearch -0.158E-05
 trial: gam= 0.54987 g(F)=  0.548E-04 g(S)=  0.000E+00 ort = 0.719E-05 (trialstep = 0.121E+01)
 search vector abs. value=  0.147E-03
 bond charge predicted
       N       E                     dE             d eps       ncg     rms          rms(c)
DAV:   1    -0.851761887456E+03   -0.54997E-04   -0.41531E-03  9792   0.143E-01    0.122E-02
DAV:   2    -0.851761892834E+03   -0.53776E-05   -0.73490E-05 11312   0.178E-02    0.108E-02
DAV:   3    -0.851761891986E+03    0.84810E-06   -0.21094E-06  7752   0.369E-03
  17 F= -.85962571E+03 E0= -.85962566E+03  d E =-.630913E-04  mag=     0.0000
 ZBRENT: can't locate minimum, use default step
 trial-energy change:   -0.000063  1 .order   -0.000064   -0.000071   -0.000056
 step:   4.8587(harm=  5.8376)  dis= 0.00198  next Energy=  -859.625820 (dE=-0.171E-03)
 bond charge predicted
       N       E                     dE             d eps       ncg     rms          rms(c)
DAV:   1    -0.851761916316E+03   -0.23482E-04   -0.36551E-02  9776   0.426E-01    0.370E-02
DAV:   2    -0.851761960357E+03   -0.44041E-04   -0.61608E-04 11304   0.515E-02    0.327E-02
DAV:   3    -0.851761952099E+03    0.82585E-05   -0.20896E-05 11904   0.110E-02    0.239E-02
DAV:   4    -0.851761951906E+03    0.19256E-06   -0.31496E-05  9648   0.134E-02    0.641E-03
DAV:   5    -0.851761952318E+03   -0.41138E-06   -0.82197E-06 10112   0.592E-03
  18 F= -.85962578E+03 E0= -.85962574E+03  d E =-.135527E-03  mag=    -0.0000
 curvature:  -6.99 expect dE=-0.746E-03 dE for cont linesearch -0.190E-05
 trial: gam= 2.23241 g(F)=  0.107E-03 g(S)=  0.000E+00 ort =-0.632E-05 (trialstep = 0.352E+00)
 search vector abs. value=  0.812E-03
 bond charge predicted
       N       E                     dE             d eps       ncg     rms          rms(c)
DAV:   1    -0.851761978535E+03   -0.26628E-04   -0.17988E-03  9792   0.934E-02    0.825E-03
DAV:   2    -0.851761980794E+03   -0.22592E-05   -0.29820E-05 11328   0.113E-02    0.714E-03
DAV:   3    -0.851761980627E+03    0.16728E-06   -0.76317E-07  6808   0.236E-03
  19 F= -.85962582E+03 E0= -.85962577E+03  d E =-.316221E-04  mag=     0.0000
 ZBRENT: can't locate minimum, use default step
 trial-energy change:   -0.000032  1 .order   -0.000032   -0.000033   -0.000030
 step:   1.4091(harm=  5.2501)  dis= 0.00146  next Energy=  -859.626028 (dE=-0.243E-03)
 bond charge predicted
       N       E                     dE             d eps       ncg     rms          rms(c)
DAV:   1    -0.851762025184E+03   -0.44390E-04   -0.15847E-02  9792   0.278E-01    0.234E-02
DAV:   2    -0.851762043266E+03   -0.18083E-04   -0.24905E-04 11224   0.326E-02    0.206E-02
DAV:   3    -0.851762040697E+03    0.25697E-05   -0.74354E-06 11072   0.658E-03    0.148E-02
DAV:   4    -0.851762041601E+03   -0.90400E-06   -0.10114E-05  9424   0.759E-03    0.370E-03
DAV:   5    -0.851762041772E+03   -0.17152E-06   -0.27383E-06  7440   0.324E-03
  20 F= -.85962589E+03 E0= -.85962584E+03  d E =-.102695E-03  mag=     0.0000
 curvature:  -8.86 expect dE=-0.609E-03 dE for cont linesearch -0.232E-04
 ZBRENT: increasing intervall
 opt :   3.5229  next Energy=  -859.625900 (dE=-0.115E-03)
 bond charge predicted
       N       E                     dE             d eps       ncg     rms          rms(c)
DAV:   1    -0.851761986655E+03    0.54946E-04   -0.64193E-02  9776   0.559E-01    0.461E-02
DAV:   2    -0.851762062432E+03   -0.75777E-04   -0.10431E-03 11120   0.668E-02    0.408E-02
DAV:   3    -0.851762050683E+03    0.11749E-04   -0.31728E-05 11728   0.136E-02    0.297E-02
DAV:   4    -0.851762052163E+03   -0.14804E-05   -0.42258E-05  9648   0.155E-02    0.774E-03
DAV:   5    -0.851762053172E+03   -0.10089E-05   -0.11560E-05 10592   0.658E-03    0.455E-03
DAV:   6    -0.851762053236E+03   -0.63636E-07   -0.12094E-06  6144   0.245E-03
  21 F= -.85962592E+03 E0= -.85962587E+03  d E =-.133813E-03  mag=     0.0000
 curvature:  -4.76 expect dE=-0.557E-03 dE for cont linesearch -0.283E-05
 trial: gam= 0.84517 g(F)=  0.117E-03 g(S)=  0.000E+00 ort =-0.220E-04 (trialstep = 0.986E+00)
 search vector abs. value=  0.660E-03
 bond charge predicted
       N       E                     dE             d eps       ncg     rms          rms(c)
DAV:   1    -0.851762117027E+03   -0.63855E-04   -0.11130E-02  9904   0.233E-01    0.199E-02
DAV:   2    -0.851762131030E+03   -0.14003E-04   -0.19476E-04 10864   0.291E-02    0.176E-02
DAV:   3    -0.851762128515E+03    0.25150E-05   -0.63438E-06 10672   0.603E-03    0.129E-02
DAV:   4    -0.851762128572E+03   -0.57327E-07   -0.10145E-05  9280   0.760E-03    0.353E-03
DAV:   5    -0.851762128663E+03   -0.90418E-07   -0.25488E-06  7296   0.335E-03
  22 F= -.85962600E+03 E0= -.85962595E+03  d E =-.809749E-04  mag=     0.0000
 trial-energy change:   -0.000081  1 .order   -0.000078   -0.000097   -0.000060
 step:   2.5863(harm=  2.5863)  dis= 0.00257  next Energy=  -859.626046 (dE=-0.127E-03)
 bond charge predicted
       N       E                     dE             d eps       ncg     rms          rms(c)
DAV:   1    -0.851762145241E+03   -0.16669E-04   -0.29227E-02  9808   0.377E-01    0.326E-02
DAV:   2    -0.851762181673E+03   -0.36432E-04   -0.50539E-04 10848   0.469E-02    0.286E-02
DAV:   3    -0.851762175084E+03    0.65892E-05   -0.17029E-05 11808   0.986E-03    0.208E-02
DAV:   4    -0.851762175108E+03   -0.23691E-07   -0.24339E-05  9664   0.119E-02    0.575E-03
DAV:   5    -0.851762175444E+03   -0.33592E-06   -0.66412E-06  9648   0.533E-03
  23 F= -.85962605E+03 E0= -.85962601E+03  d E =-.136398E-03  mag=     0.0000
 curvature:  -8.68 expect dE=-0.701E-03 dE for cont linesearch -0.470E-07
 trial: gam= 0.46978 g(F)=  0.807E-04 g(S)=  0.000E+00 ort = 0.189E-05 (trialstep = 0.131E+01)
 search vector abs. value=  0.228E-03
 bond charge predicted
       N       E                     dE             d eps       ncg     rms          rms(c)
DAV:   1    -0.851762252814E+03   -0.77706E-04   -0.63379E-03  9792   0.178E-01    0.157E-02
DAV:   2    -0.851762260774E+03   -0.79598E-05   -0.10978E-04 11232   0.220E-02    0.137E-02
DAV:   3    -0.851762259453E+03    0.13208E-05   -0.38046E-06  9048   0.500E-03    0.102E-02
DAV:   4    -0.851762259681E+03   -0.22742E-06   -0.73415E-06  9232   0.636E-03
  24 F= -.85962614E+03 E0= -.85962609E+03  d E =-.872515E-04  mag=    -0.0000
 trial-energy change:   -0.000087  1 .order   -0.000084   -0.000107   -0.000061
 step:   3.0837(harm=  3.0837)  dis= 0.00180  next Energy=  -859.626181 (dE=-0.126E-03)
 bond charge predicted
       N       E                     dE             d eps       ncg     rms          rms(c)
DAV:   1    -0.851762293000E+03   -0.33547E-04   -0.11778E-02  9792   0.243E-01    0.220E-02
DAV:   2    -0.851762307760E+03   -0.14760E-04   -0.20208E-04 11296   0.300E-02    0.192E-02
DAV:   3    -0.851762305399E+03    0.23610E-05   -0.72695E-06 11232   0.679E-03    0.141E-02
DAV:   4    -0.851762305779E+03   -0.37952E-06   -0.10887E-05  9520   0.802E-03    0.399E-03
DAV:   5    -0.851762305899E+03   -0.12066E-06   -0.28710E-06  7456   0.376E-03
  25 F= -.85962619E+03 E0= -.85962614E+03  d E =-.137438E-03  mag=     0.0000
 curvature:  -4.31 expect dE=-0.186E-03 dE for cont linesearch -0.319E-06
 trial: gam= 0.57143 g(F)=  0.432E-04 g(S)=  0.000E+00 ort = 0.411E-05 (trialstep = 0.166E+01)
 search vector abs. value=  0.122E-03
 bond charge predicted
       N       E                     dE             d eps       ncg     rms          rms(c)
DAV:   1    -0.851762341736E+03   -0.35957E-04   -0.52380E-03  9744   0.164E-01    0.148E-02
DAV:   2    -0.851762349555E+03   -0.78195E-05   -0.10283E-04 11392   0.216E-02    0.128E-02
DAV:   3    -0.851762348501E+03    0.10541E-05   -0.35927E-06  8976   0.462E-03    0.983E-03
DAV:   4    -0.851762348405E+03    0.95803E-07   -0.62544E-06  9136   0.594E-03
  26 F= -.85962624E+03 E0= -.85962620E+03  d E =-.525388E-04  mag=    -0.0000
 trial-energy change:   -0.000053  1 .order   -0.000050   -0.000076   -0.000025
 step:   2.4755(harm=  2.4755)  dis= 0.00111  next Energy=  -859.626249 (dE=-0.564E-04)
 bond charge predicted
       N       E                     dE             d eps       ncg     rms          rms(c)
DAV:   1    -0.851762349731E+03   -0.12301E-05   -0.12773E-03  9792   0.810E-02    0.846E-03
DAV:   2    -0.851762351688E+03   -0.19567E-05   -0.24789E-05 11480   0.107E-02    0.718E-03
DAV:   3    -0.851762351492E+03    0.19525E-06   -0.72254E-07  6624   0.234E-03
  27 F= -.85962625E+03 E0= -.85962620E+03  d E =-.604925E-04  mag=     0.0000
 curvature:  -3.33 expect dE=-0.778E-04 dE for cont linesearch -0.352E-06
 trial: gam= 0.56338 g(F)=  0.234E-04 g(S)=  0.000E+00 ort = 0.360E-05 (trialstep = 0.182E+01)
 search vector abs. value=  0.663E-04
 bond charge predicted
       N       E                     dE             d eps       ncg     rms          rms(c)
DAV:   1    -0.851762377766E+03   -0.26078E-04   -0.28290E-03  9760   0.119E-01    0.113E-02
DAV:   2    -0.851762381615E+03   -0.38491E-05   -0.50618E-05 10912   0.150E-02    0.978E-03
DAV:   3    -0.851762381124E+03    0.49068E-06   -0.15221E-06  7320   0.332E-03
  28 F= -.85962629E+03 E0= -.85962624E+03  d E =-.380969E-04  mag=     0.0000
 trial-energy change:   -0.000038  1 .order   -0.000039   -0.000046   -0.000031
 step:   5.5857(harm=  5.5857)  dis= 0.00207  next Energy=  -859.626324 (dE=-0.710E-04)
 bond charge predicted
       N       E                     dE             d eps       ncg     rms          rms(c)
DAV:   1    -0.851762375646E+03    0.59685E-05   -0.11980E-02  9760   0.244E-01    0.233E-02
DAV:   2    -0.851762391759E+03   -0.16112E-04   -0.21052E-04 10960   0.306E-02    0.201E-02
DAV:   3    -0.851762389916E+03    0.18431E-05   -0.70873E-06 10960   0.668E-03    0.147E-02
DAV:   4    -0.851762390946E+03   -0.10308E-05   -0.10765E-05  9488   0.805E-03    0.395E-03
DAV:   5    -0.851762390906E+03    0.40105E-07   -0.30064E-06  7536   0.390E-03
  29 F= -.85962632E+03 E0= -.85962627E+03  d E =-.651776E-04  mag=    -0.0000
 curvature:  -7.28 expect dE=-0.441E-03 dE for cont linesearch -0.110E-05
 trial: gam= 2.78066 g(F)=  0.606E-04 g(S)=  0.000E+00 ort =-0.317E-05 (trialstep = 0.307E+00)
 search vector abs. value=  0.555E-03
 bond charge predicted
       N       E                     dE             d eps       ncg     rms          rms(c)
DAV:   1    -0.851762403123E+03   -0.12177E-04   -0.60271E-04  9920   0.533E-02    0.533E-03
DAV:   2    -0.851762403975E+03   -0.85217E-06   -0.10406E-05 10368   0.677E-03    0.447E-03
DAV:   3    -0.851762403960E+03    0.15803E-07   -0.29005E-07  5760   0.154E-03
  30 F= -.85962633E+03 E0= -.85962629E+03  d E =-.160936E-04  mag=    -0.0000
 ZBRENT: can't locate minimum, use default step
 trial-energy change:   -0.000016  1 .order   -0.000016   -0.000016   -0.000015
 step:   1.2299(harm= 11.0631)  dis= 0.00141  next Energy=  -859.626604 (dE=-0.286E-03)
 bond charge predicted
       N       E                     dE             d eps       ncg     rms          rms(c)
DAV:   1    -0.851762429119E+03   -0.25143E-04   -0.52788E-03  9856   0.158E-01    0.150E-02
DAV:   2    -0.851762435782E+03   -0.66630E-05   -0.86360E-05 10528   0.195E-02    0.128E-02
DAV:   3    -0.851762435313E+03    0.46889E-06   -0.23788E-06  8128   0.409E-03
  31 F= -.85962637E+03 E0= -.85962633E+03  d E =-.565536E-04  mag=     0.0000
 curvature:  -9.74 expect dE=-0.496E-03 dE for cont linesearch -0.274E-04
 ZBRENT: increasing intervall
 opt :   3.0747  next Energy=  -859.626427 (dE=-0.110E-03)
 bond charge predicted
       N       E                     dE             d eps       ncg     rms          rms(c)
DAV:   1    -0.851762439902E+03   -0.41199E-05   -0.21006E-02  9840   0.315E-01    0.301E-02
DAV:   2    -0.851762466194E+03   -0.26292E-04   -0.33891E-04 10544   0.386E-02    0.258E-02
DAV:   3    -0.851762464702E+03    0.14918E-05   -0.10345E-05 11408   0.816E-03    0.182E-02
DAV:   4    -0.851762468069E+03   -0.33664E-05   -0.12839E-05  9520   0.865E-03    0.435E-03
DAV:   5    -0.851762468066E+03    0.27503E-08   -0.41421E-06  8712   0.414E-03
  32 F= -.85962643E+03 E0= -.85962638E+03  d E =-.107444E-03  mag=     0.0000
 curvature: -18.83 expect dE=-0.128E-02 dE for cont linesearch -0.540E-05
 trial: gam= 0.47167 g(F)=  0.678E-04 g(S)=  0.000E+00 ort = 0.126E-04 (trialstep = 0.861E+00)
 search vector abs. value=  0.203E-03
 bond charge predicted
       N       E                     dE             d eps       ncg     rms          rms(c)
DAV:   1    -0.851762516699E+03   -0.48630E-04   -0.19109E-03  9840   0.974E-02    0.964E-03
DAV:   2    -0.851762519537E+03   -0.28383E-05   -0.37918E-05 11160   0.130E-02    0.839E-03
DAV:   3    -0.851762519039E+03    0.49813E-06   -0.13145E-06  7008   0.306E-03
  33 F= -.85962648E+03 E0= -.85962643E+03  d E =-.555634E-04  mag=     0.0000
 ZBRENT: can't locate minimum, use default step
 trial-energy change:   -0.000056  1 .order   -0.000056   -0.000064   -0.000048
 step:   3.4437(harm=  3.5282)  dis= 0.00224  next Energy=  -859.626555 (dE=-0.130E-03)
 bond charge predicted
       N       E                     dE             d eps       ncg     rms          rms(c)
DAV:   1    -0.851762547355E+03   -0.27817E-04   -0.16795E-02  9776   0.289E-01    0.293E-02
DAV:   2    -0.851762570414E+03   -0.23060E-04   -0.31512E-04 11264   0.376E-02    0.253E-02
DAV:   3    -0.851762565822E+03    0.45926E-05   -0.13191E-05 11904   0.906E-03    0.182E-02
DAV:   4    -0.851762565978E+03   -0.15667E-06   -0.19594E-05  9920   0.108E-02    0.558E-03
DAV:   5    -0.851762565920E+03    0.58368E-07   -0.57020E-06  9040   0.543E-03
  34 F= -.85962654E+03 E0= -.85962649E+03  d E =-.115799E-03  mag=    -0.0000
 curvature:  -4.86 expect dE=-0.386E-03 dE for cont linesearch -0.234E-05
 trial: gam= 1.49657 g(F)=  0.794E-04 g(S)=  0.000E+00 ort =-0.989E-05 (trialstep = 0.554E+00)
 search vector abs. value=  0.505E-03
 bond charge predicted
       N       E                     dE             d eps       ncg     rms          rms(c)
DAV:   1    -0.851762593175E+03   -0.27197E-04   -0.16820E-03  9792   0.896E-02    0.908E-03
DAV:   2    -0.851762595483E+03   -0.23080E-05   -0.29370E-05 11096   0.114E-02    0.758E-03
DAV:   3    -0.851762595299E+03    0.18402E-06   -0.95619E-07  6880   0.289E-03
  35 F= -.85962657E+03 E0= -.85962653E+03  d E =-.336140E-04  mag=     0.0000
 ZBRENT: can't locate minimum, use default step
 trial-energy change:   -0.000034  1 .order   -0.000033   -0.000036   -0.000030
 step:   2.2176(harm=  3.6306)  dis= 0.00241  next Energy=  -859.626658 (dE=-0.117E-03)
 bond charge predicted
       N       E                     dE             d eps       ncg     rms          rms(c)
DAV:   1    -0.851762623477E+03   -0.27994E-04   -0.14892E-02  9776   0.267E-01    0.263E-02
DAV:   2    -0.851762642010E+03   -0.18533E-04   -0.24292E-04 11088   0.327E-02    0.224E-02
DAV:   3    -0.851762640321E+03    0.16888E-05   -0.84404E-06 11200   0.770E-03    0.157E-02
DAV:   4    -0.851762642603E+03   -0.22821E-05   -0.11146E-05  9920   0.799E-03    0.453E-03
DAV:   5    -0.851762642559E+03    0.44827E-07   -0.35644E-06  8080   0.437E-03
  36 F= -.85962663E+03 E0= -.85962659E+03  d E =-.932849E-04  mag=     0.0000
 curvature: -11.20 expect dE=-0.761E-03 dE for cont linesearch -0.422E-05
 ZBRENT: extrapolating
 opt :   2.7779  next Energy=  -859.626638 (dE=-0.972E-04)
 bond charge predicted
       N       E                     dE             d eps       ncg     rms          rms(c)
DAV:   1    -0.851762641596E+03    0.10074E-05   -0.17263E-03  9760   0.908E-02    0.879E-03
DAV:   2    -0.851762644098E+03   -0.25022E-05   -0.30578E-05 11152   0.116E-02    0.739E-03
DAV:   3    -0.851762643942E+03    0.15595E-06   -0.89634E-07  6960   0.277E-03
  37 F= -.85962664E+03 E0= -.85962659E+03  d E =-.987878E-04  mag=     0.0000
 curvature: -10.26 expect dE=-0.803E-03 dE for cont linesearch -0.423E-06
 trial: gam= 0.43634 g(F)=  0.783E-04 g(S)=  0.000E+00 ort = 0.456E-05 (trialstep = 0.999E+00)
 search vector abs. value=  0.178E-03
 bond charge predicted
       N       E                     dE             d eps       ncg     rms          rms(c)
DAV:   1    -0.851762701681E+03   -0.57583E-04   -0.25259E-03  9792   0.114E-01    0.122E-02
DAV:   2    -0.851762705286E+03   -0.36047E-05   -0.52903E-05 11264   0.158E-02    0.104E-02
DAV:   3    -0.851762704232E+03    0.10534E-05   -0.23423E-06  7664   0.414E-03    0.763E-03
DAV:   4    -0.851762704159E+03    0.73858E-07   -0.56204E-06  9384   0.551E-03
  38 F= -.85962671E+03 E0= -.85962666E+03  d E =-.651806E-04  mag=     0.0000
 trial-energy change:   -0.000065  1 .order   -0.000063   -0.000080   -0.000047
 step:   2.3794(harm=  2.3794)  dis= 0.00138  next Energy=  -859.626735 (dE=-0.955E-04)
 bond charge predicted
       N       E                     dE             d eps       ncg     rms          rms(c)
DAV:   1    -0.851762731153E+03   -0.26921E-04   -0.49385E-03  9792   0.159E-01    0.173E-02
DAV:   2    -0.851762738590E+03   -0.74375E-05   -0.10629E-04 11216   0.223E-02    0.147E-02
DAV:   3    -0.851762736525E+03    0.20656E-05   -0.49987E-06 10480   0.568E-03    0.106E-02
DAV:   4    -0.851762736157E+03    0.36787E-06   -0.82172E-06  9392   0.692E-03
  39 F= -.85962674E+03 E0= -.85962670E+03  d E =-.103919E-03  mag=     0.0000
 curvature:  -2.64 expect dE=-0.107E-03 dE for cont linesearch -0.153E-06
 trial: gam= 0.53123 g(F)=  0.404E-04 g(S)=  0.000E+00 ort = 0.322E-05 (trialstep = 0.128E+01)
 search vector abs. value=  0.941E-04
 bond charge predicted
       N       E                     dE             d eps       ncg     rms          rms(c)
DAV:   1    -0.851762769194E+03   -0.32669E-04   -0.21032E-03  9776   0.104E-01    0.110E-02
DAV:   2    -0.851762772576E+03   -0.33819E-05   -0.44378E-05 11216   0.144E-02    0.928E-03
DAV:   3    -0.851762771974E+03    0.60275E-06   -0.16277E-06  7336   0.363E-03
  40 F= -.85962679E+03 E0= -.85962674E+03  d E =-.434630E-04  mag=     0.0000
 trial-energy change:   -0.000043  1 .order   -0.000044   -0.000054   -0.000034
 step:   3.4149(harm=  3.4149)  dis= 0.00142  next Energy=  -859.626816 (dE=-0.718E-04)
 bond charge predicted
       N       E                     dE             d eps       ncg     rms          rms(c)
DAV:   1    -0.851762774227E+03   -0.16511E-05   -0.57093E-03  9696   0.172E-01    0.177E-02
DAV:   2    -0.851762782551E+03   -0.83241E-05   -0.10701E-04 11280   0.221E-02    0.151E-02
DAV:   3    -0.851762781312E+03    0.12391E-05   -0.40993E-06  9352   0.534E-03    0.112E-02
DAV:   4    -0.851762781574E+03   -0.26157E-06   -0.79016E-06  9392   0.683E-03
  41 F= -.85962681E+03 E0= -.85962676E+03  d E =-.656286E-04  mag=     0.0000
 curvature:  -3.82 expect dE=-0.156E-03 dE for cont linesearch -0.219E-05
 ZBRENT: interpolating
 opt :   2.9489  next Energy=  -859.626811 (dE=-0.673E-04)
 bond charge predicted
       N       E                     dE             d eps       ncg     rms          rms(c)
DAV:   1    -0.851762784880E+03   -0.35676E-05   -0.26127E-04  9632   0.369E-02    0.333E-03
DAV:   2    -0.851762785113E+03   -0.23287E-06   -0.50808E-06  9584   0.489E-03
  42 F= -.85962681E+03 E0= -.85962676E+03  d E =-.664588E-04  mag=    -0.0000
 curvature:  -2.99 expect dE=-0.834E-04 dE for cont linesearch -0.560E-07
 trial: gam= 0.76707 g(F)=  0.279E-04 g(S)=  0.000E+00 ort = 0.133E-05 (trialstep = 0.161E+01)
 search vector abs. value=  0.853E-04
 bond charge predicted
       N       E                     dE             d eps       ncg     rms          rms(c)
DAV:   1    -0.851762815699E+03   -0.30819E-04   -0.27187E-03  9792   0.116E-01    0.104E-02
DAV:   2    -0.851762819660E+03   -0.39605E-05   -0.50952E-05 11136   0.151E-02    0.882E-03
DAV:   3    -0.851762819096E+03    0.56338E-06   -0.15546E-06  7232   0.329E-03
  43 F= -.85962685E+03 E0= -.85962680E+03  d E =-.367476E-04  mag=    -0.0000
 trial-energy change:   -0.000037  1 .order   -0.000038   -0.000047   -0.000029
 step:   4.1820(harm=  4.1820)  dis= 0.00178  next Energy=  -859.626871 (dE=-0.605E-04)
 bond charge predicted
       N       E                     dE             d eps       ncg     rms          rms(c)
DAV:   1    -0.851762825932E+03   -0.62725E-05   -0.67883E-03  9776   0.184E-01    0.187E-02
DAV:   2    -0.851762834797E+03   -0.88644E-05   -0.11888E-04 11296   0.231E-02    0.158E-02
DAV:   3    -0.851762833722E+03    0.10750E-05   -0.44470E-06  9824   0.527E-03    0.112E-02
DAV:   4    -0.851762834499E+03   -0.77754E-06   -0.63717E-06  9216   0.602E-03
  44 F= -.85962687E+03 E0= -.85962682E+03  d E =-.564485E-04  mag=     0.0000
 curvature:  -6.17 expect dE=-0.282E-03 dE for cont linesearch -0.115E-05
 trial: gam= 1.76463 g(F)=  0.456E-04 g(S)=  0.000E+00 ort =-0.400E-05 (trialstep = 0.610E+00)
 search vector abs. value=  0.297E-03
 bond charge predicted
       N       E                     dE             d eps       ncg     rms          rms(c)
DAV:   1    -0.851762855480E+03   -0.21759E-04   -0.12032E-03  9792   0.750E-02    0.806E-03
DAV:   2    -0.851762857129E+03   -0.16489E-05   -0.20788E-05 10608   0.960E-03    0.681E-03
DAV:   3    -0.851762857081E+03    0.47956E-07   -0.66037E-07  6512   0.226E-03
  45 F= -.85962689E+03 E0= -.85962684E+03  d E =-.232041E-04  mag=    -0.0000
 ZBRENT: can't locate minimum, use default step
 trial-energy change:   -0.000023  1 .order   -0.000023   -0.000024   -0.000022
 step:   2.4394(harm=  8.7368)  dis= 0.00209  next Energy=  -859.627035 (dE=-0.169E-03)
 bond charge predicted
       N       E                     dE             d eps       ncg     rms          rms(c)
DAV:   1    -0.851762893319E+03   -0.36190E-04   -0.10480E-02  9840   0.221E-01    0.217E-02
DAV:   2    -0.851762906789E+03   -0.13470E-04   -0.17411E-04 10544   0.277E-02    0.185E-02
DAV:   3    -0.851762905776E+03    0.10120E-05   -0.57583E-06 10712   0.604E-03    0.130E-02
DAV:   4    -0.851762907491E+03   -0.17143E-05   -0.76158E-06  9344   0.668E-03    0.348E-03
DAV:   5    -0.851762907419E+03    0.71690E-07   -0.27330E-06  7520   0.362E-03
  46 F= -.85962694E+03 E0= -.85962689E+03  d E =-.753404E-04  mag=    -0.0000
 curvature: -13.45 expect dE=-0.528E-03 dE for cont linesearch -0.157E-04
 ZBRENT: increasing intervall
 opt :   6.0985  next Energy=  -859.626947 (dE=-0.805E-04)
 bond charge predicted
       N       E                     dE             d eps       ncg     rms          rms(c)
DAV:   1    -0.851762867820E+03    0.39671E-04   -0.42400E-02  9840   0.445E-01    0.427E-02
DAV:   2    -0.851762922814E+03   -0.54994E-04   -0.72953E-04 10384   0.568E-02    0.364E-02
DAV:   3    -0.851762916950E+03    0.58641E-05   -0.25782E-05 11808   0.128E-02    0.258E-02
DAV:   4    -0.851762922613E+03   -0.56627E-05   -0.31194E-05  9952   0.136E-02    0.752E-03
DAV:   5    -0.851762922744E+03   -0.13160E-06   -0.11779E-05 10560   0.739E-03    0.414E-03
DAV:   6    -0.851762923022E+03   -0.27798E-06   -0.11560E-06  6312   0.230E-03
  47 F= -.85962696E+03 E0= -.85962691E+03  d E =-.941783E-04  mag=    -0.0000
 curvature:  -4.38 expect dE=-0.531E-03 dE for cont linesearch -0.202E-05
 ZBRENT: bracketing found
 ZBRENT: interpolating
 opt :   4.6865  next Energy=  -859.626969 (dE=-0.102E-03)
 bond charge predicted
       N       E                     dE             d eps       ncg     rms          rms(c)
DAV:   1    -0.851762923444E+03   -0.70000E-06   -0.62772E-03  9872   0.171E-01    0.164E-02
DAV:   2    -0.851762931130E+03   -0.76854E-05   -0.10715E-04 10232   0.218E-02    0.142E-02
DAV:   3    -0.851762929892E+03    0.12373E-05   -0.37413E-06  9320   0.493E-03    0.101E-02
DAV:   4    -0.851762930352E+03   -0.45922E-06   -0.58845E-06  9040   0.574E-03
  48 F= -.85962697E+03 E0= -.85962692E+03  d E =-.100360E-03  mag=     0.0000
 curvature: -17.92 expect dE=-0.136E-02 dE for cont linesearch -0.131E-05
 trial: gam= 1.25523 g(F)=  0.757E-04 g(S)=  0.000E+00 ort = 0.466E-05 (trialstep = 0.762E+00)
 search vector abs. value=  0.556E-03
 bond charge predicted
       N       E                     dE             d eps       ncg     rms          rms(c)
DAV:   1    -0.851762974154E+03   -0.44262E-04   -0.34112E-03  9760   0.126E-01    0.117E-02
DAV:   2    -0.851762978915E+03   -0.47613E-05   -0.62142E-05 10368   0.165E-02    0.997E-03
DAV:   3    -0.851762978172E+03    0.74289E-06   -0.18466E-06  7744   0.349E-03
  49 F= -.85962702E+03 E0= -.85962697E+03  d E =-.537347E-04  mag=    -0.0000
 ZBRENT: can't locate minimum, use default step
 trial-energy change:   -0.000054  1 .order   -0.000056   -0.000062   -0.000049
 step:   3.0493(harm=  3.6863)  dis= 0.00358  next Energy=  -859.627117 (dE=-0.150E-03)
 bond charge predicted
       N       E                     dE             d eps       ncg     rms          rms(c)
DAV:   1    -0.851763014804E+03   -0.35889E-04   -0.30887E-02  9840   0.379E-01    0.380E-02
DAV:   2    -0.851763054273E+03   -0.39469E-04   -0.52281E-04 10480   0.480E-02    0.322E-02
DAV:   3    -0.851763050728E+03    0.35457E-05   -0.17873E-05 11696   0.105E-02    0.226E-02
DAV:   4    -0.851763055420E+03   -0.46928E-05   -0.21794E-05  9904   0.114E-02    0.606E-03
DAV:   5    -0.851763055393E+03    0.27154E-07   -0.79457E-06 10640   0.580E-03
  50 F= -.85962712E+03 E0= -.85962707E+03  d E =-.148626E-03  mag=    -0.0000
 curvature: -11.97 expect dE=-0.756E-03 dE for cont linesearch -0.614E-05
 ZBRENT: extrapolating
 opt :   3.8579  next Energy=  -859.627123 (dE=-0.155E-03)
 bond charge predicted
       N       E                     dE             d eps       ncg     rms          rms(c)
DAV:   1    -0.851763052780E+03    0.26404E-05   -0.39347E-03  9920   0.135E-01    0.135E-02
DAV:   2    -0.851763058445E+03   -0.56652E-05   -0.70977E-05 10560   0.177E-02    0.112E-02
DAV:   3    -0.851763058126E+03    0.31955E-06   -0.22296E-06  7920   0.392E-03
  51 F= -.85962712E+03 E0= -.85962708E+03  d E =-.157558E-03  mag=    -0.0000
 curvature: -13.30 expect dE=-0.127E-02 dE for cont linesearch -0.493E-06
 trial: gam= 1.34067 g(F)=  0.955E-04 g(S)=  0.000E+00 ort = 0.454E-05 (trialstep = 0.694E+00)
 search vector abs. value=  0.111E-02
 bond charge predicted
       N       E                     dE             d eps       ncg     rms          rms(c)
DAV:   1    -0.851763107921E+03   -0.49476E-04   -0.55089E-03  9824   0.159E-01    0.166E-02
DAV:   2    -0.851763114689E+03   -0.67683E-05   -0.88469E-05 10336   0.196E-02    0.141E-02
DAV:   3    -0.851763114472E+03    0.21730E-06   -0.30233E-06  8432   0.451E-03
  52 F= -.85962719E+03 E0= -.85962714E+03  d E =-.637538E-04  mag=    -0.0000
 ZBRENT: can't locate minimum, use default step
 trial-energy change:   -0.000064  1 .order   -0.000064   -0.000071   -0.000057
 step:   2.7751(harm=  3.6254)  dis= 0.00460  next Energy=  -859.627309 (dE=-0.184E-03)
 bond charge predicted
       N       E                     dE             d eps       ncg     rms          rms(c)
DAV:   1    -0.851763137545E+03   -0.22856E-04   -0.50148E-02  9888   0.480E-01    0.475E-02
DAV:   2    -0.851763199596E+03   -0.62051E-04   -0.82261E-04 10360   0.599E-02    0.404E-02
DAV:   3    -0.851763194699E+03    0.48975E-05   -0.28384E-05 11584   0.134E-02    0.278E-02
DAV:   4    -0.851763203536E+03   -0.88370E-05   -0.33700E-05  9936   0.140E-02    0.740E-03
DAV:   5    -0.851763203288E+03    0.24786E-06   -0.14475E-05 10552   0.795E-03    0.389E-03
DAV:   6    -0.851763203567E+03   -0.27910E-06   -0.11011E-06  6560   0.226E-03
  53 F= -.85962730E+03 E0= -.85962725E+03  d E =-.174748E-03  mag=    -0.0000
 curvature: -18.08 expect dE=-0.101E-02 dE for cont linesearch -0.674E-05
 ZBRENT: extrapolating
 opt :   3.4580  next Energy=  -859.627306 (dE=-0.182E-03)
 bond charge predicted
       N       E                     dE             d eps       ncg     rms          rms(c)
DAV:   1    -0.851763197920E+03    0.53681E-05   -0.54660E-03  9920   0.159E-01    0.154E-02
DAV:   2    -0.851763204973E+03   -0.70532E-05   -0.92670E-05 10336   0.201E-02    0.130E-02
DAV:   3    -0.851763204394E+03    0.57933E-06   -0.29443E-06  8368   0.448E-03
  54 F= -.85962731E+03 E0= -.85962726E+03  d E =-.182671E-03  mag=    -0.0000
 curvature: -18.61 expect dE=-0.151E-02 dE for cont linesearch -0.240E-06
 trial: gam= 0.90054 g(F)=  0.812E-04 g(S)=  0.000E+00 ort = 0.378E-05 (trialstep = 0.125E+01)
 search vector abs. value=  0.985E-03
 bond charge predicted
       N       E                     dE             d eps       ncg     rms          rms(c)
DAV:   1    -0.851763264971E+03   -0.59998E-04   -0.15493E-02  9936   0.265E-01    0.273E-02
DAV:   2    -0.851763283516E+03   -0.18544E-04   -0.24909E-04 10272   0.330E-02    0.231E-02
DAV:   3    -0.851763282482E+03    0.10335E-05   -0.97197E-06 11312   0.790E-03    0.156E-02
DAV:   4    -0.851763285847E+03   -0.33654E-05   -0.97243E-06  9920   0.750E-03    0.477E-03
DAV:   5    -0.851763285848E+03   -0.15280E-09   -0.41991E-06  8624   0.441E-03
  55 F= -.85962740E+03 E0= -.85962735E+03  d E =-.919131E-04  mag=     0.0000
 trial-energy change:   -0.000092  1 .order   -0.000089   -0.000105   -0.000072
 step:   3.9189(harm=  3.9189)  dis= 0.00617  next Energy=  -859.627473 (dE=-0.166E-03)
 bond charge predicted
       N       E                     dE             d eps       ncg     rms          rms(c)
DAV:   1    -0.851763264208E+03    0.21640E-04   -0.72284E-02  9920   0.573E-01    0.561E-02
DAV:   2    -0.851763353686E+03   -0.89478E-04   -0.12107E-03 10256   0.729E-02    0.476E-02
DAV:   3    -0.851763344305E+03    0.93815E-05   -0.44760E-05 11664   0.168E-02    0.326E-02
DAV:   4    -0.851763355776E+03   -0.11472E-04   -0.48127E-05  9968   0.167E-02    0.991E-03
DAV:   5    -0.851763355957E+03   -0.18076E-06   -0.21727E-05 10416   0.961E-03    0.465E-03
DAV:   6    -0.851763356405E+03   -0.44764E-06   -0.15457E-06  6704   0.272E-03
  56 F= -.85962749E+03 E0= -.85962744E+03  d E =-.184476E-03  mag=    -0.0000
 curvature: -22.82 expect dE=-0.215E-02 dE for cont linesearch -0.687E-06
 trial: gam= 1.07087 g(F)=  0.941E-04 g(S)=  0.000E+00 ort = 0.545E-05 (trialstep = 0.142E+01)
 search vector abs. value=  0.124E-02
 bond charge predicted
       N       E                     dE             d eps       ncg     rms          rms(c)
DAV:   1    -0.851763420808E+03   -0.64850E-04   -0.25450E-02  9936   0.340E-01    0.332E-02
DAV:   2    -0.851763452773E+03   -0.31965E-04   -0.43033E-04 10160   0.433E-02    0.283E-02
DAV:   3    -0.851763449742E+03    0.30301E-05   -0.15352E-05 11552   0.984E-03    0.196E-02
DAV:   4    -0.851763453826E+03   -0.40832E-05   -0.18521E-05  9808   0.104E-02    0.555E-03
DAV:   5    -0.851763453805E+03    0.20715E-07   -0.75265E-06 10416   0.565E-03
  57 F= -.85962761E+03 E0= -.85962756E+03  d E =-.117251E-03  mag=     0.0000
 trial-energy change:   -0.000117  1 .order   -0.000113   -0.000142   -0.000084
 step:   2.5319(harm=  3.4554)  dis= 0.00445  next Energy=  -859.627644 (dE=-0.152E-03)
 bond charge predicted
       N       E                     dE             d eps       ncg     rms          rms(c)
DAV:   1    -0.851763469343E+03   -0.15517E-04   -0.15607E-02  9936   0.266E-01    0.262E-02
DAV:   2    -0.851763489217E+03   -0.19874E-04   -0.26512E-04 10192   0.340E-02    0.223E-02
DAV:   3    -0.851763487721E+03    0.14960E-05   -0.95916E-06 11040   0.782E-03    0.154E-02
DAV:   4    -0.851763490483E+03   -0.27626E-05   -0.11194E-05  9472   0.809E-03    0.444E-03
DAV:   5    -0.851763490439E+03    0.44689E-07   -0.45868E-06  8912   0.450E-03
  58 F= -.85962766E+03 E0= -.85962761E+03  d E =-.169235E-03  mag=    -0.0000
 curvature: -16.97 expect dE=-0.102E-02 dE for cont linesearch -0.102E-04
 ZBRENT: increasing intervall
 opt :   4.7553  next Energy=  -859.627651 (dE=-0.160E-03)
 bond charge predicted
       N       E                     dE             d eps       ncg     rms          rms(c)
DAV:   1    -0.851763378604E+03    0.11188E-03   -0.62356E-02  9920   0.532E-01    0.521E-02
DAV:   2    -0.851763456576E+03   -0.77973E-04   -0.10536E-03 10128   0.677E-02    0.445E-02
DAV:   3    -0.851763448368E+03    0.82086E-05   -0.38142E-05 11600   0.155E-02    0.308E-02
DAV:   4    -0.851763458024E+03   -0.96566E-05   -0.45111E-05  9952   0.162E-02    0.872E-03
DAV:   5    -0.851763458022E+03    0.24083E-08   -0.18508E-05 10448   0.890E-03    0.468E-03
DAV:   6    -0.851763458447E+03   -0.42467E-06   -0.14255E-06  6336   0.257E-03
  59 F= -.85962766E+03 E0= -.85962761E+03  d E =-.167734E-03  mag=    -0.0000
 curvature:  16.01 expect dE= 0.356E-02 dE for cont linesearch  0.164E-04
 ZBRENT: bracketing found
 ZBRENT: interpolating
 opt :   3.4961  next Energy=  -859.627674 (dE=-0.182E-03)
 bond charge predicted
       N       E                     dE             d eps       ncg     rms          rms(c)
DAV:   1    -0.851763471085E+03   -0.13063E-04   -0.19919E-02  9936   0.300E-01    0.294E-02
DAV:   2    -0.851763494852E+03   -0.23767E-04   -0.33383E-04 10128   0.382E-02    0.254E-02
DAV:   3    -0.851763491577E+03    0.32746E-05   -0.12364E-05 11568   0.880E-03    0.175E-02
DAV:   4    -0.851763493750E+03   -0.21729E-05   -0.14643E-05  9616   0.923E-03    0.492E-03
DAV:   5    -0.851763493773E+03   -0.22483E-07   -0.58775E-06  9632   0.497E-03
  60 F= -.85962768E+03 E0= -.85962763E+03  d E =-.185847E-03  mag=    -0.0000
 curvature: -12.81 expect dE=-0.137E-02 dE for cont linesearch -0.460E-06
 trial: gam= 1.22264 g(F)=  0.107E-03 g(S)=  0.000E+00 ort = 0.666E-05 (trialstep = 0.115E+01)
 search vector abs. value=  0.197E-02
 bond charge predicted
       N       E                     dE             d eps       ncg     rms          rms(c)
DAV:   1    -0.851763550808E+03   -0.57057E-04   -0.25975E-02  9920   0.341E-01    0.333E-02
DAV:   2    -0.851763581423E+03   -0.30616E-04   -0.42451E-04 10080   0.430E-02    0.285E-02
DAV:   3    -0.851763577760E+03    0.36638E-05   -0.15083E-05 11424   0.974E-03    0.194E-02
DAV:   4    -0.851763581329E+03   -0.35693E-05   -0.17465E-05  9872   0.100E-02    0.547E-03
DAV:   5    -0.851763581301E+03    0.28012E-07   -0.81354E-06 10336   0.577E-03
  61 F= -.85962779E+03 E0= -.85962774E+03  d E =-.108824E-03  mag=    -0.0000
 trial-energy change:   -0.000109  1 .order   -0.000109   -0.000132   -0.000086
 step:   3.2879(harm=  3.2879)  dis= 0.00735  next Energy=  -859.627866 (dE=-0.189E-03)
 bond charge predicted
       N       E                     dE             d eps       ncg     rms          rms(c)
DAV:   1    -0.851763528105E+03    0.53224E-04   -0.89695E-02  9920   0.634E-01    0.623E-02
DAV:   2    -0.851763637353E+03   -0.10925E-03   -0.14744E-03 10144   0.801E-02    0.530E-02
DAV:   3    -0.851763627652E+03    0.97004E-05   -0.52318E-05 11456   0.182E-02    0.361E-02
DAV:   4    -0.851763643368E+03   -0.15716E-04   -0.58980E-05  9936   0.185E-02    0.102E-02
DAV:   5    -0.851763643132E+03    0.23672E-06   -0.28116E-05 10416   0.108E-02    0.488E-03
DAV:   6    -0.851763643727E+03   -0.59512E-06   -0.17061E-06  6856   0.291E-03
  62 F= -.85962789E+03 E0= -.85962784E+03  d E =-.210614E-03  mag=    -0.0000
 curvature: -28.20 expect dE=-0.270E-02 dE for cont linesearch -0.214E-05
 trial: gam= 0.72314 g(F)=  0.958E-04 g(S)=  0.000E+00 ort = 0.122E-04 (trialstep = 0.158E+01)
 search vector abs. value=  0.114E-02
 bond charge predicted
       N       E                     dE             d eps       ncg     rms          rms(c)
DAV:   1    -0.851763718007E+03   -0.74875E-04   -0.28954E-02  9936   0.362E-01    0.357E-02
DAV:   2    -0.851763753766E+03   -0.35760E-04   -0.49141E-04 10128   0.463E-02    0.305E-02
DAV:   3    -0.851763749675E+03    0.40913E-05   -0.18455E-05 11568   0.109E-02    0.211E-02
DAV:   4    -0.851763754159E+03   -0.44835E-05   -0.23181E-05  9952   0.116E-02    0.623E-03
DAV:   5    -0.851763754120E+03    0.38512E-07   -0.92793E-06 10512   0.649E-03
  63 F= -.85962802E+03 E0= -.85962797E+03  d E =-.133366E-03  mag=    -0.0000
 trial-energy change:   -0.000133  1 .order   -0.000128   -0.000165   -0.000092
 step:   2.7304(harm=  3.5407)  dis= 0.00457  next Energy=  -859.628057 (dE=-0.169E-03)
 bond charge predicted
       N       E                     dE             d eps       ncg     rms          rms(c)
DAV:   1    -0.851763769004E+03   -0.14846E-04   -0.15419E-02  9936   0.264E-01    0.263E-02
DAV:   2    -0.851763788450E+03   -0.19446E-04   -0.26259E-04 10184   0.339E-02    0.223E-02
DAV:   3    -0.851763786747E+03    0.17031E-05   -0.98689E-06 11184   0.802E-03    0.154E-02
DAV:   4    -0.851763789515E+03   -0.27679E-05   -0.11997E-05  9600   0.838E-03    0.462E-03
DAV:   5    -0.851763789443E+03    0.71952E-07   -0.48957E-06  9192   0.481E-03
  64 F= -.85962807E+03 E0= -.85962802E+03  d E =-.185319E-03  mag=    -0.0000
 curvature: -16.05 expect dE=-0.833E-03 dE for cont linesearch -0.879E-05
 ZBRENT: increasing intervall
 opt :   5.0340  next Energy=  -859.628055 (dE=-0.167E-03)
 bond charge predicted
       N       E                     dE             d eps       ncg     rms          rms(c)
DAV:   1    -0.851763669224E+03    0.12029E-03   -0.61622E-02  9920   0.528E-01    0.522E-02
DAV:   2    -0.851763745849E+03   -0.76625E-04   -0.10443E-03 10128   0.676E-02    0.446E-02
DAV:   3    -0.851763736632E+03    0.92172E-05   -0.39378E-05 11616   0.159E-02    0.309E-02
DAV:   4    -0.851763745467E+03   -0.88351E-05   -0.48862E-05  9968   0.169E-02    0.908E-03
DAV:   5    -0.851763745300E+03    0.16726E-06   -0.19776E-05 10544   0.951E-03    0.498E-03
DAV:   6    -0.851763745814E+03   -0.51446E-06   -0.16195E-06  6360   0.280E-03
  65 F= -.85962806E+03 E0= -.85962801E+03  d E =-.174472E-03  mag=    -0.0000
 curvature:  33.37 expect dE= 0.697E-02 dE for cont linesearch  0.502E-04
 ZBRENT: bracketing found
 ZBRENT: interpolating
 opt :   3.5974  next Energy=  -859.628084 (dE=-0.196E-03)
 bond charge predicted
       N       E                     dE             d eps       ncg     rms          rms(c)
DAV:   1    -0.851763764567E+03   -0.19267E-04   -0.23868E-02  9936   0.329E-01    0.325E-02
DAV:   2    -0.851763793258E+03   -0.28691E-04   -0.40120E-04 10080   0.420E-02    0.281E-02
DAV:   3    -0.851763788541E+03    0.47163E-05   -0.15447E-05 11600   0.995E-03    0.194E-02
DAV:   4    -0.851763790962E+03   -0.24212E-05   -0.19307E-05  9888   0.106E-02    0.564E-03
DAV:   5    -0.851763790921E+03    0.41517E-07   -0.76620E-06 10304   0.585E-03
  66 F= -.85962809E+03 E0= -.85962804E+03  d E =-.199267E-03  mag=    -0.0000
 curvature:  -7.21 expect dE=-0.633E-03 dE for cont linesearch -0.305E-06
 trial: gam= 1.05867 g(F)=  0.878E-04 g(S)=  0.000E+00 ort = 0.695E-05 (trialstep = 0.164E+01)
 search vector abs. value=  0.138E-02
 bond charge predicted
       N       E                     dE             d eps       ncg     rms          rms(c)
DAV:   1    -0.851763833486E+03   -0.42523E-04   -0.36908E-02  9920   0.407E-01    0.399E-02
DAV:   2    -0.851763876657E+03   -0.43171E-04   -0.60109E-04 10080   0.512E-02    0.343E-02
DAV:   3    -0.851763870601E+03    0.60557E-05   -0.22242E-05 11472   0.120E-02    0.235E-02
DAV:   4    -0.851763875125E+03   -0.45242E-05   -0.26577E-05  9920   0.124E-02    0.677E-03
DAV:   5    -0.851763875121E+03    0.35943E-08   -0.11258E-05 10336   0.699E-03    0.350E-03
DAV:   6    -0.851763875363E+03   -0.24175E-06   -0.80142E-07  6096   0.200E-03
  67 F= -.85962820E+03 E0= -.85962815E+03  d E =-.115050E-03  mag=    -0.0000
 trial-energy change:   -0.000115  1 .order   -0.000116   -0.000156   -0.000075
 step:   3.1757(harm=  3.1757)  dis= 0.00584  next Energy=  -859.628239 (dE=-0.151E-03)
 bond charge predicted
       N       E                     dE             d eps       ncg     rms          rms(c)
DAV:   1    -0.851763849837E+03    0.25285E-04   -0.32651E-02  9920   0.382E-01    0.377E-02
DAV:   2    -0.851763889344E+03   -0.39507E-04   -0.53543E-04 10064   0.483E-02    0.322E-02
DAV:   3    -0.851763885128E+03    0.42162E-05   -0.19702E-05 11536   0.113E-02    0.220E-02
DAV:   4    -0.851763890299E+03   -0.51713E-05   -0.23251E-05  9920   0.116E-02    0.645E-03
DAV:   5    -0.851763890253E+03    0.45773E-07   -0.10003E-05 10336   0.665E-03    0.338E-03
DAV:   6    -0.851763890481E+03   -0.22745E-06   -0.75366E-07  6208   0.195E-03
  68 F= -.85962825E+03 E0= -.85962820E+03  d E =-.158712E-03  mag=    -0.0000
 curvature: -23.11 expect dE=-0.197E-02 dE for cont linesearch -0.526E-06
 trial: gam= 0.84033 g(F)=  0.852E-04 g(S)=  0.000E+00 ort = 0.561E-05 (trialstep = 0.195E+01)
 search vector abs. value=  0.107E-02
 bond charge predicted
       N       E                     dE             d eps       ncg     rms          rms(c)
DAV:   1    -0.851763947188E+03   -0.56935E-04   -0.40599E-02  9920   0.425E-01    0.424E-02
DAV:   2    -0.851763995010E+03   -0.47821E-04   -0.66183E-04 10128   0.535E-02    0.364E-02
DAV:   3    -0.851763988470E+03    0.65392E-05   -0.26538E-05 11520   0.130E-02    0.246E-02
DAV:   4    -0.851763994145E+03   -0.56748E-05   -0.29704E-05  9920   0.130E-02    0.732E-03
DAV:   5    -0.851763994123E+03    0.22315E-07   -0.12454E-05 10432   0.722E-03    0.376E-03
DAV:   6    -0.851763994422E+03   -0.29907E-06   -0.90582E-07  6256   0.212E-03
  69 F= -.85962838E+03 E0= -.85962833E+03  d E =-.133810E-03  mag=     0.0000
 trial-energy change:   -0.000134  1 .order   -0.000130   -0.000175   -0.000084
 step:   3.1833(harm=  3.7499)  dis= 0.00509  next Energy=  -859.628408 (dE=-0.162E-03)
 bond charge predicted
       N       E                     dE             d eps       ncg     rms          rms(c)
DAV:   1    -0.851763994683E+03   -0.55953E-06   -0.16467E-02  9936   0.271E-01    0.271E-02
DAV:   2    -0.851764014364E+03   -0.19681E-04   -0.26927E-04 10160   0.341E-02    0.232E-02
DAV:   3    -0.851764011818E+03    0.25454E-05   -0.10822E-05 11248   0.829E-03    0.156E-02
DAV:   4    -0.851764014303E+03   -0.24853E-05   -0.12052E-05  9840   0.826E-03    0.475E-03
DAV:   5    -0.851764014270E+03    0.33753E-07   -0.50699E-06  9344   0.466E-03
  70 F= -.85962842E+03 E0= -.85962837E+03  d E =-.172516E-03  mag=    -0.0000
 curvature: -20.15 expect dE=-0.147E-02 dE for cont linesearch -0.349E-05
 trial: gam= 0.77974 g(F)=  0.731E-04 g(S)=  0.000E+00 ort = 0.136E-04 (trialstep = 0.219E+01)
 search vector abs. value=  0.746E-03
 bond charge predicted
       N       E                     dE             d eps       ncg     rms          rms(c)
DAV:   1    -0.851764082537E+03   -0.68233E-04   -0.36651E-02  9888   0.407E-01    0.406E-02
DAV:   2    -0.851764126295E+03   -0.43758E-04   -0.60388E-04 10336   0.511E-02    0.349E-02
DAV:   3    -0.851764119653E+03    0.66422E-05   -0.25768E-05 11632   0.129E-02    0.239E-02
DAV:   4    -0.851764123879E+03   -0.42261E-05   -0.26728E-05  9984   0.125E-02    0.773E-03
DAV:   5    -0.851764124281E+03   -0.40226E-06   -0.96233E-06 10384   0.653E-03
  71 F= -.85962855E+03 E0= -.85962850E+03  d E =-.130770E-03  mag=    -0.0000
 trial-energy change:   -0.000131  1 .order   -0.000125   -0.000184   -0.000066
 step:   3.0417(harm=  3.4098)  dis= 0.00398  next Energy=  -859.628563 (dE=-0.144E-03)
 bond charge predicted
       N       E                     dE             d eps       ncg     rms          rms(c)
DAV:   1    -0.851764129159E+03   -0.52803E-05   -0.55234E-03  9936   0.158E-01    0.159E-02
DAV:   2    -0.851764136436E+03   -0.72775E-05   -0.92564E-05 10480   0.200E-02    0.135E-02
DAV:   3    -0.851764135855E+03    0.58182E-06   -0.34468E-06  8816   0.495E-03
  72 F= -.85962857E+03 E0= -.85962852E+03  d E =-.150299E-03  mag=    -0.0000
 curvature: -13.80 expect dE=-0.502E-03 dE for cont linesearch -0.360E-05
 ZBRENT: increasing intervall
 opt :   4.7391  next Energy=  -859.628566 (dE=-0.147E-03)
 bond charge predicted
       N       E                     dE             d eps       ncg     rms          rms(c)
DAV:   1    -0.851764084143E+03    0.52293E-04   -0.21651E-02  9872   0.313E-01    0.329E-02
DAV:   2    -0.851764109355E+03   -0.25212E-04   -0.33959E-04 10496   0.383E-02    0.282E-02
DAV:   3    -0.851764106776E+03    0.25798E-05   -0.14434E-05 11520   0.978E-03    0.186E-02
DAV:   4    -0.851764110444E+03   -0.36687E-05   -0.15234E-05 10000   0.933E-03    0.548E-03
DAV:   5    -0.851764110426E+03    0.18568E-07   -0.52882E-06  9248   0.491E-03
  73 F= -.85962856E+03 E0= -.85962851E+03  d E =-.140472E-03  mag=    -0.0000
 curvature:  12.92 expect dE= 0.162E-02 dE for cont linesearch  0.158E-04
 ZBRENT: bracketing found
 ZBRENT: interpolating
 opt :   3.5780  next Energy=  -859.628573 (dE=-0.154E-03)
 bond charge predicted
       N       E                     dE             d eps       ncg     rms          rms(c)
DAV:   1    -0.851764126650E+03   -0.16206E-04   -0.10204E-02  9904   0.215E-01    0.215E-02
DAV:   2    -0.851764137851E+03   -0.11201E-04   -0.16443E-04 10240   0.268E-02    0.187E-02
DAV:   3    -0.851764135276E+03    0.25744E-05   -0.73565E-06 10864   0.690E-03    0.126E-02
DAV:   4    -0.851764135902E+03   -0.62603E-06   -0.76704E-06  9584   0.659E-03
  74 F= -.85962857E+03 E0= -.85962853E+03  d E =-.155310E-03  mag=     0.0000
 curvature:  -3.06 expect dE=-0.169E-03 dE for cont linesearch -0.194E-06
 trial: gam= 0.98763 g(F)=  0.551E-04 g(S)=  0.000E+00 ort = 0.689E-05 (trialstep = 0.231E+01)
 search vector abs. value=  0.797E-03
 bond charge predicted
       N       E                     dE             d eps       ncg     rms          rms(c)
DAV:   1    -0.851764164408E+03   -0.29132E-04   -0.43028E-02  9888   0.436E-01    0.423E-02
DAV:   2    -0.851764211917E+03   -0.47508E-04   -0.67265E-04 10384   0.536E-02    0.368E-02
DAV:   3    -0.851764203430E+03    0.84862E-05   -0.28064E-05 11520   0.131E-02    0.244E-02
DAV:   4    -0.851764207744E+03   -0.43139E-05   -0.28132E-05  9904   0.124E-02    0.740E-03
DAV:   5    -0.851764207860E+03   -0.11610E-06   -0.11867E-05 10360   0.678E-03    0.355E-03
DAV:   6    -0.851764208137E+03   -0.27713E-06   -0.76925E-07  6152   0.195E-03
  75 F= -.85962867E+03 E0= -.85962862E+03  d E =-.914936E-04  mag=     0.0000
 trial-energy change:   -0.000091  1 .order   -0.000095   -0.000143   -0.000047
 step:   3.4585(harm=  3.4585)  dis= 0.00467  next Energy=  -859.628681 (dE=-0.107E-03)
 bond charge predicted
       N       E                     dE             d eps       ncg     rms          rms(c)
DAV:   1    -0.851764202705E+03    0.51550E-05   -0.10627E-02  9936   0.217E-01    0.214E-02
DAV:   2    -0.851764214783E+03   -0.12078E-04   -0.16603E-04 10448   0.266E-02    0.184E-02
DAV:   3    -0.851764213196E+03    0.15866E-05   -0.68330E-06 10864   0.652E-03    0.122E-02
DAV:   4    -0.851764214781E+03   -0.15852E-05   -0.71146E-06  9664   0.623E-03    0.378E-03
DAV:   5    -0.851764214756E+03    0.25051E-07   -0.29575E-06  7888   0.350E-03
  76 F= -.85962868E+03 E0= -.85962863E+03  d E =-.107532E-03  mag=    -0.0000
 curvature: -22.26 expect dE=-0.179E-02 dE for cont linesearch -0.341E-06
 trial: gam= 1.19697 g(F)=  0.806E-04 g(S)=  0.000E+00 ort = 0.349E-05 (trialstep = 0.165E+01)
 search vector abs. value=  0.123E-02
 bond charge predicted
       N       E                     dE             d eps       ncg     rms          rms(c)
DAV:   1    -0.851764268933E+03   -0.54152E-04   -0.34246E-02  9920   0.390E-01    0.384E-02
DAV:   2    -0.851764307998E+03   -0.39065E-04   -0.53991E-04 10352   0.483E-02    0.334E-02
DAV:   3    -0.851764301978E+03    0.60194E-05   -0.22406E-05 11504   0.119E-02    0.223E-02
DAV:   4    -0.851764306440E+03   -0.44619E-05   -0.24258E-05  9952   0.118E-02    0.660E-03
DAV:   5    -0.851764306411E+03    0.29017E-07   -0.10890E-05 10320   0.684E-03    0.330E-03
DAV:   6    -0.851764306656E+03   -0.24502E-06   -0.72079E-07  6224   0.192E-03
  77 F= -.85962879E+03 E0= -.85962874E+03  d E =-.109344E-03  mag=    -0.0000
 trial-energy change:   -0.000109  1 .order   -0.000105   -0.000140   -0.000071
 step:   3.3605(harm=  3.3605)  dis= 0.00559  next Energy=  -859.628824 (dE=-0.142E-03)
 bond charge predicted
       N       E                     dE             d eps       ncg     rms          rms(c)
DAV:   1    -0.851764290011E+03    0.16400E-04   -0.37148E-02  9920   0.406E-01    0.401E-02
DAV:   2    -0.851764332456E+03   -0.42445E-04   -0.58604E-04 10352   0.503E-02    0.348E-02
DAV:   3    -0.851764325894E+03    0.65623E-05   -0.24254E-05 11472   0.124E-02    0.232E-02
DAV:   4    -0.851764330796E+03   -0.49025E-05   -0.26471E-05  9952   0.123E-02    0.689E-03
DAV:   5    -0.851764330739E+03    0.57502E-07   -0.11914E-05 10336   0.716E-03    0.344E-03
DAV:   6    -0.851764331012E+03   -0.27291E-06   -0.78712E-07  6320   0.202E-03
  78 F= -.85962883E+03 E0= -.85962879E+03  d E =-.151601E-03  mag=     0.0000
 curvature: -24.39 expect dE=-0.141E-02 dE for cont linesearch -0.751E-09
 trial: gam= 0.83186 g(F)=  0.580E-04 g(S)=  0.000E+00 ort = 0.195E-06 (trialstep = 0.199E+01)
 search vector abs. value=  0.910E-03
 bond charge predicted
       N       E                     dE             d eps       ncg     rms          rms(c)
DAV:   1    -0.851764366932E+03   -0.36193E-04   -0.36487E-02  9920   0.400E-01    0.396E-02
DAV:   2    -0.851764408240E+03   -0.41308E-04   -0.56778E-04 10224   0.494E-02    0.343E-02
DAV:   3    -0.851764402361E+03    0.58797E-05   -0.23100E-05 11440   0.119E-02    0.228E-02
DAV:   4    -0.851764407466E+03   -0.51056E-05   -0.24838E-05  9856   0.117E-02    0.663E-03
DAV:   5    -0.851764407374E+03    0.92172E-07   -0.11460E-05 10416   0.691E-03    0.327E-03
DAV:   6    -0.851764407612E+03   -0.23749E-06   -0.68620E-07  6080   0.193E-03
  79 F= -.85962892E+03 E0= -.85962888E+03  d E =-.913678E-04  mag=     0.0000
 trial-energy change:   -0.000091  1 .order   -0.000088   -0.000116   -0.000059
 step:   4.0936(harm=  4.0936)  dis= 0.00586  next Energy=  -859.628952 (dE=-0.119E-03)
 bond charge predicted
       N       E                     dE             d eps       ncg     rms          rms(c)
DAV:   1    -0.851764382771E+03    0.24603E-04   -0.40828E-02  9920   0.423E-01    0.419E-02
DAV:   2    -0.851764428894E+03   -0.46123E-04   -0.63537E-04 10256   0.522E-02    0.363E-02
DAV:   3    -0.851764422307E+03    0.65872E-05   -0.25979E-05 11440   0.126E-02    0.241E-02
DAV:   4    -0.851764428013E+03   -0.57064E-05   -0.27712E-05  9888   0.124E-02    0.704E-03
DAV:   5    -0.851764427920E+03    0.93365E-07   -0.12884E-05 10416   0.731E-03    0.344E-03
DAV:   6    -0.851764428190E+03   -0.26965E-06   -0.76279E-07  6240   0.204E-03
  80 F= -.85962896E+03 E0= -.85962891E+03  d E =-.127427E-03  mag=    -0.0000
 curvature: -32.01 expect dE=-0.271E-02 dE for cont linesearch -0.339E-09
 trial: gam= 1.41131 g(F)=  0.847E-04 g(S)=  0.000E+00 ort = 0.982E-07 (trialstep = 0.116E+01)
 search vector abs. value=  0.190E-02
 bond charge predicted
       N       E                     dE             d eps       ncg     rms          rms(c)
DAV:   1    -0.851764477824E+03   -0.49904E-04   -0.25504E-02  9920   0.333E-01    0.329E-02
DAV:   2    -0.851764505932E+03   -0.28108E-04   -0.38942E-04 10240   0.408E-02    0.286E-02
DAV:   3    -0.851764501912E+03    0.40201E-05   -0.16596E-05 11328   0.101E-02    0.187E-02
DAV:   4    -0.851764505719E+03   -0.38068E-05   -0.16629E-05  9904   0.949E-03    0.549E-03
DAV:   5    -0.851764505628E+03    0.91328E-07   -0.84880E-06 10320   0.590E-03
  81 F= -.85962904E+03 E0= -.85962900E+03  d E =-.836113E-04  mag=     0.0000
 trial-energy change:   -0.000084  1 .order   -0.000080   -0.000098   -0.000063
 step:   3.2092(harm=  3.2092)  dis= 0.00660  next Energy=  -859.629097 (dE=-0.136E-03)
 bond charge predicted
       N       E                     dE             d eps       ncg     rms          rms(c)
DAV:   1    -0.851764468700E+03    0.37019E-04   -0.80273E-02  9888   0.591E-01    0.584E-02
DAV:   2    -0.851764558078E+03   -0.89378E-04   -0.12300E-03 10168   0.726E-02    0.507E-02
DAV:   3    -0.851764545853E+03    0.12225E-04   -0.52583E-05 11376   0.179E-02    0.332E-02
DAV:   4    -0.851764557716E+03   -0.11863E-04   -0.51712E-05  9904   0.168E-02    0.971E-03
DAV:   5    -0.851764557397E+03    0.31908E-06   -0.26330E-05 10320   0.104E-02    0.449E-03
DAV:   6    -0.851764557952E+03   -0.55582E-06   -0.15254E-06  6944   0.284E-03
  82 F= -.85962911E+03 E0= -.85962906E+03  d E =-.146705E-03  mag=     0.0000
 curvature: -35.90 expect dE=-0.233E-02 dE for cont linesearch -0.689E-09
 trial: gam= 0.77066 g(F)=  0.650E-04 g(S)=  0.000E+00 ort =-0.191E-06 (trialstep = 0.157E+01)
 search vector abs. value=  0.119E-02
 bond charge predicted
       N       E                     dE             d eps       ncg     rms          rms(c)
DAV:   1    -0.851764605386E+03   -0.47990E-04   -0.29569E-02  9920   0.359E-01    0.357E-02
DAV:   2    -0.851764638938E+03   -0.33552E-04   -0.46095E-04 10272   0.445E-02    0.309E-02
DAV:   3    -0.851764634389E+03    0.45496E-05   -0.18903E-05 11456   0.108E-02    0.205E-02
DAV:   4    -0.851764638776E+03   -0.43873E-05   -0.19443E-05  9856   0.105E-02    0.594E-03
DAV:   5    -0.851764638782E+03   -0.59372E-08   -0.93662E-06 10432   0.613E-03
  83 F= -.85962919E+03 E0= -.85962914E+03  d E =-.828365E-04  mag=     0.0000
 trial-energy change:   -0.000083  1 .order   -0.000078   -0.000102   -0.000055
 step:   2.5492(harm=  3.4532)  dis= 0.00415  next Energy=  -859.629209 (dE=-0.101E-03)
 bond charge predicted
       N       E                     dE             d eps       ncg     rms          rms(c)
DAV:   1    -0.851764651917E+03   -0.13141E-04   -0.11613E-02  9872   0.225E-01    0.223E-02
DAV:   2    -0.851764665693E+03   -0.13776E-04   -0.18377E-04 10352   0.280E-02    0.192E-02
DAV:   3    -0.851764664333E+03    0.13598E-05   -0.73815E-06 10960   0.670E-03    0.129E-02
DAV:   4    -0.851764666352E+03   -0.20190E-05   -0.74451E-06  9456   0.654E-03    0.375E-03
DAV:   5    -0.851764666337E+03    0.15323E-07   -0.35656E-06  8496   0.384E-03
  84 F= -.85962922E+03 E0= -.85962917E+03  d E =-.111582E-03  mag=     0.0000
 curvature: -24.45 expect dE=-0.918E-03 dE for cont linesearch -0.623E-05
 ZBRENT: increasing intervall
 opt :   4.5147  next Energy=  -859.629218 (dE=-0.110E-03)
 bond charge predicted
       N       E                     dE             d eps       ncg     rms          rms(c)
DAV:   1    -0.851764615499E+03    0.50853E-04   -0.46472E-02  9920   0.451E-01    0.447E-02
DAV:   2    -0.851764668060E+03   -0.52561E-04   -0.72271E-04 10272   0.558E-02    0.387E-02
DAV:   3    -0.851764660677E+03    0.73834E-05   -0.29684E-05 11472   0.135E-02    0.257E-02
DAV:   4    -0.851764667235E+03   -0.65579E-05   -0.30206E-05  9856   0.131E-02    0.743E-03
DAV:   5    -0.851764667210E+03    0.24811E-07   -0.14647E-05 10424   0.768E-03    0.353E-03
DAV:   6    -0.851764667529E+03   -0.31940E-06   -0.77452E-07  6192   0.204E-03
  85 F= -.85962922E+03 E0= -.85962917E+03  d E =-.115044E-03  mag=     0.0000
 curvature:   4.39 expect dE= 0.485E-03 dE for cont linesearch  0.140E-05
 ZBRENT: bracketing found
 ZBRENT: interpolating
 opt :   3.4776  next Energy=  -859.629227 (dE=-0.120E-03)
 bond charge predicted
       N       E                     dE             d eps       ncg     rms          rms(c)
DAV:   1    -0.851764663001E+03    0.42089E-05   -0.12880E-02  9904   0.237E-01    0.237E-02
DAV:   2    -0.851764676982E+03   -0.13981E-04   -0.19950E-04 10176   0.293E-02    0.207E-02
DAV:   3    -0.851764674430E+03    0.25520E-05   -0.84341E-06 10960   0.718E-03    0.137E-02
DAV:   4    -0.851764675831E+03   -0.14004E-05   -0.85271E-06  9664   0.694E-03    0.393E-03
DAV:   5    -0.851764675807E+03    0.23654E-07   -0.39489E-06  8576   0.402E-03
  86 F= -.85962923E+03 E0= -.85962918E+03  d E =-.122163E-03  mag=     0.0000
 curvature: -25.44 expect dE=-0.154E-02 dE for cont linesearch -0.546E-06
 trial: gam= 0.93643 g(F)=  0.607E-04 g(S)=  0.000E+00 ort = 0.506E-05 (trialstep = 0.195E+01)
 search vector abs. value=  0.111E-02
 bond charge predicted
       N       E                     dE             d eps       ncg     rms          rms(c)
DAV:   1    -0.851764712937E+03   -0.37106E-04   -0.42252E-02  9920   0.427E-01    0.427E-02
DAV:   2    -0.851764757502E+03   -0.44565E-04   -0.63952E-04 10192   0.520E-02    0.374E-02
DAV:   3    -0.851764749011E+03    0.84908E-05   -0.29056E-05 11328   0.137E-02    0.243E-02
DAV:   4    -0.851764754232E+03   -0.52210E-05   -0.29412E-05  9888   0.125E-02    0.751E-03
DAV:   5    -0.851764754063E+03    0.16936E-06   -0.12719E-05 10400   0.755E-03    0.369E-03
DAV:   6    -0.851764754398E+03   -0.33554E-06   -0.10060E-06  6192   0.235E-03
  87 F= -.85962932E+03 E0= -.85962927E+03  d E =-.901076E-04  mag=     0.0000
 trial-energy change:   -0.000090  1 .order   -0.000089   -0.000128   -0.000051
 step:   3.2379(harm=  3.2379)  dis= 0.00502  next Energy=  -859.629335 (dE=-0.106E-03)
 bond charge predicted
       N       E                     dE             d eps       ncg     rms          rms(c)
DAV:   1    -0.851764748831E+03    0.52321E-05   -0.18582E-02  9920   0.283E-01    0.283E-02
DAV:   2    -0.851764769143E+03   -0.20313E-04   -0.28410E-04 10320   0.346E-02    0.246E-02
DAV:   3    -0.851764766077E+03    0.30660E-05   -0.12609E-05 11264   0.903E-03    0.161E-02
DAV:   4    -0.851764768931E+03   -0.28539E-05   -0.12983E-05  9888   0.832E-03    0.504E-03
DAV:   5    -0.851764768838E+03    0.92768E-07   -0.57950E-06 10160   0.510E-03
  88 F= -.85962934E+03 E0= -.85962929E+03  d E =-.112024E-03  mag=    -0.0000
 curvature: -27.58 expect dE=-0.118E-02 dE for cont linesearch -0.217E-06
 trial: gam= 0.66085 g(F)=  0.427E-04 g(S)=  0.000E+00 ort = 0.296E-05 (trialstep = 0.221E+01)
 search vector abs. value=  0.533E-03
 bond charge predicted
       N       E                     dE             d eps       ncg     rms          rms(c)
DAV:   1    -0.851764788450E+03   -0.19519E-04   -0.26573E-02  9856   0.341E-01    0.339E-02
DAV:   2    -0.851764819185E+03   -0.30735E-04   -0.42193E-04 10656   0.421E-02    0.296E-02
DAV:   3    -0.851764814386E+03    0.47995E-05   -0.18140E-05 11600   0.104E-02    0.198E-02
DAV:   4    -0.851764817720E+03   -0.33340E-05   -0.18766E-05  9872   0.102E-02    0.601E-03
DAV:   5    -0.851764817707E+03    0.12835E-07   -0.83974E-06 10432   0.591E-03
  89 F= -.85962941E+03 E0= -.85962936E+03  d E =-.642646E-04  mag=     0.0000
 trial-energy change:   -0.000064  1 .order   -0.000060   -0.000098   -0.000022
 step:   2.8542(harm=  2.8542)  dis= 0.00300  next Energy=  -859.629405 (dE=-0.637E-04)
 bond charge predicted
       N       E                     dE             d eps       ncg     rms          rms(c)
DAV:   1    -0.851764814648E+03    0.30714E-05   -0.22923E-03  9760   0.100E-01    0.100E-02
DAV:   2    -0.851764817598E+03   -0.29494E-05   -0.37730E-05 10704   0.125E-02    0.860E-03
DAV:   3    -0.851764817378E+03    0.21979E-06   -0.14209E-06  7504   0.310E-03
  90 F= -.85962941E+03 E0= -.85962936E+03  d E =-.684270E-04  mag=     0.0000
 curvature: -17.06 expect dE=-0.576E-03 dE for cont linesearch -0.144E-06
 trial: gam= 0.84277 g(F)=  0.338E-04 g(S)=  0.000E+00 ort = 0.212E-05 (trialstep = 0.234E+01)
 search vector abs. value=  0.416E-03
 bond charge predicted
       N       E                     dE             d eps       ncg     rms          rms(c)
DAV:   1    -0.851764843267E+03   -0.25670E-04   -0.23265E-02  9904   0.321E-01    0.322E-02
DAV:   2    -0.851764868999E+03   -0.25732E-04   -0.35060E-04 10528   0.385E-02    0.281E-02
DAV:   3    -0.851764865699E+03    0.32996E-05   -0.14640E-05 11424   0.991E-03    0.185E-02
DAV:   4    -0.851764869317E+03   -0.36182E-05   -0.15779E-05  9936   0.921E-03    0.553E-03
DAV:   5    -0.851764869235E+03    0.82851E-07   -0.60955E-06 10256   0.529E-03
  91 F= -.85962947E+03 E0= -.85962942E+03  d E =-.586988E-04  mag=     0.0000
 trial-energy change:   -0.000059  1 .order   -0.000055   -0.000083   -0.000028
 step:   3.5050(harm=  3.5050)  dis= 0.00321  next Energy=  -859.629472 (dE=-0.623E-04)
 reached required accuracy - stopping structural energy minimisation
