unknown system                          
            1
    17.271038    0.000000    0.000000
    -8.635519   14.957158    0.000000
     0.000000    0.000000   15.000000
   C    H    F    O 
    88     8     2     1
Direct configuration=     1
   0.99996937  0.99999250  0.50103877
   0.99949250  0.14255116  0.50147238
   0.99926123  0.28540108  0.50265230
   0.99949763  0.42844924  0.50429358
   0.00009971  0.57156503  0.50420045
   0.00114451  0.71479680  0.50223958
   0.00103042  0.85790516  0.50074929
   0.14326463  0.00056061  0.50098710
   0.14282373  0.14320235  0.49871474
   0.14159959  0.28508093  0.49646763
   0.14148659  0.42824230  0.49834271
   0.14260477  0.57127123  0.50220673
   0.14324477  0.71441607  0.50385454
   0.14339130  0.85756914  0.50317045
   0.28575758  0.99998530  0.50208401
   0.28572836  0.14280099  0.49668011
   0.28591935  0.28664162  0.48733625
   0.28219332  0.42809360  0.48286386
   0.28529642  0.57033784  0.49284633
   0.28556906  0.71444362  0.50129019
   0.28570077  0.85737947  0.50379605
   0.42862597  0.99998815  0.50358790
   0.42847227  0.14228128  0.50113008
   0.42730131  0.28203417  0.49679495
   0.42673271  0.71591549  0.49985886
   0.42829795  0.85730243  0.50305295
   0.57127628  0.00037079  0.50329422
   0.57137727  0.14267057  0.50370396
   0.57223317  0.28599315  0.50207721
   0.57204460  0.85816288  0.50101051
   0.71417631  0.00001114  0.50076340
   0.71429900  0.14286006  0.50413253
   0.71429147  0.28569135  0.50369521
   0.71376418  0.42776526  0.49849843
   0.71837071  0.57320451  0.48285208
   0.72115994  0.71653992  0.47612348
   0.71323190  0.85718100  0.49302934
   0.85699190  0.99995235  0.49889530
   0.85675388  0.14268095  0.50281371
   0.85678801  0.28550910  0.50475794
   0.85716723  0.42855080  0.50316706
   0.85792505  0.57190524  0.49851926
   0.85983494  0.71543796  0.49385784
   0.85755922  0.85695567  0.49533767
   0.04754963  0.09534047  0.50094200
   0.04652043  0.23748337  0.50079761
   0.04642652  0.38054378  0.50248467
   0.04753692  0.52380085  0.50412188
   0.04809140  0.66690175  0.50385282
   0.04829290  0.80997788  0.50227053
   0.04805993  0.95281815  0.50132711
   0.19056851  0.09540409  0.49843196
   0.18997045  0.23833562  0.49495328
   0.18772033  0.37985458  0.49338351
   0.18970363  0.52341604  0.49811269
   0.19042888  0.66678833  0.50248941
   0.19077493  0.80983438  0.50381011
   0.19082732  0.95269894  0.50210577
   0.33335712  0.09531430  0.50003720
   0.33434356  0.23814137  0.49257732
   0.32646880  0.37871430  0.47566693
   0.32922801  0.52203239  0.48237723
   0.33379986  0.66749320  0.49794048
   0.33324036  0.80955675  0.50313806
   0.33324441  0.95242508  0.50340061
   0.47623183  0.09489789  0.50303107
   0.47549650  0.23712648  0.50065807
   0.47532247  0.80928992  0.50198184
   0.47612132  0.95257347  0.50360237
   0.61890396  0.09528287  0.50387314
   0.61923533  0.23797039  0.50326353
   0.62084624  0.37938521  0.50028798
   0.62028810  0.81329052  0.49730406
   0.61907710  0.95300346  0.50164335
   0.76181694  0.09532476  0.50291564
   0.76184831  0.23789524  0.50467264
   0.76199213  0.38080605  0.50188253
   0.76229290  0.52490888  0.49339104
   0.76538032  0.66714178  0.48353947
   0.76164242  0.80863144  0.48778905
   0.76180718  0.95252119  0.49726791
   0.90427833  0.09481683  0.50142452
   0.90418017  0.23780487  0.50396489
   0.90434576  0.38093740  0.50464654
   0.90501807  0.52407532  0.50263876
   0.90607076  0.66706669  0.49847497
   0.90592729  0.81022632  0.49678443
   0.90468466  0.95209707  0.49903645
   0.46374950  0.35411913  0.49721680
   0.40146957  0.55537018  0.47581012
   0.64614537  0.53990039  0.47617861
   0.58486594  0.41595685  0.50033714
   0.58384300  0.74122289  0.49766191
   0.46267625  0.67930526  0.49967203
   0.56692080  0.59240681  0.64412408
   0.48057309  0.50096281  0.64461553
   0.41563779  0.42889388  0.45695505
   0.63198449  0.66626244  0.45730356
   0.52373887  0.54639671  0.60466391
Direct configuration=     2
   0.99996567  0.99998604  0.50102499
   0.99949442  0.14256273  0.50146823
   0.99926402  0.28539662  0.50265128
   0.99949041  0.42845722  0.50428640
   0.00010270  0.57156833  0.50418868
   0.00115034  0.71481699  0.50223528
   0.00102924  0.85789675  0.50074669
   0.14327600  0.00057458  0.50098670
   0.14283268  0.14321031  0.49871250
   0.14160191  0.28507560  0.49646451
   0.14149960  0.42825718  0.49834162
   0.14260701  0.57129280  0.50220403
   0.14323425  0.71440584  0.50385747
   0.14339098  0.85756750  0.50317573
   0.28573962  0.99997736  0.50208719
   0.28573954  0.14280735  0.49668114
   0.28591492  0.28665385  0.48733907
   0.28219037  0.42810340  0.48287569
   0.28529550  0.57033938  0.49284870
   0.28558488  0.71446371  0.50128951
   0.28570136  0.85740021  0.50379823
   0.42864428  0.00000170  0.50357944
   0.42846378  0.14231333  0.50113559
   0.42729547  0.28204066  0.49680604
   0.42672337  0.71590646  0.49985502
   0.42828951  0.85727767  0.50305218
   0.57126495  0.00038225  0.50329052
   0.57136557  0.14265458  0.50369958
   0.57223775  0.28598220  0.50207297
   0.57205471  0.85818292  0.50100968
   0.71418148 -0.00000192  0.50076184
   0.71431506  0.14287777  0.50413720
   0.71428792  0.28570066  0.50369479
   0.71377498  0.42776735  0.49849953
   0.71836717  0.57321024  0.48286351
   0.72116476  0.71656416  0.47612910
   0.71322114  0.85718471  0.49303593
   0.85699862  0.99996568  0.49889807
   0.85674348  0.14268044  0.50281865
   0.85678462  0.28550133  0.50475497
   0.85717918  0.42856601  0.50316094
   0.85790361  0.57191171  0.49852500
   0.85983618  0.71543875  0.49385431
   0.85755724  0.85695176  0.49533475
   0.04755267  0.09534749  0.50093555
   0.04651834  0.23747334  0.50079640
   0.04642605  0.38053459  0.50248376
   0.04752693  0.52379090  0.50412421
   0.04810480  0.66689916  0.50385391
   0.04829402  0.80997328  0.50226740
   0.04805557  0.95280805  0.50132445
   0.19054842  0.09538320  0.49843497
   0.18997430  0.23834437  0.49494715
   0.18772489  0.37986069  0.49338503
   0.18970394  0.52340026  0.49812115
   0.19040597  0.66676533  0.50248421
   0.19077596  0.80984029  0.50380794
   0.19082631  0.95268869  0.50210535
   0.33336237  0.09531762  0.50004027
   0.33435432  0.23813143  0.49257457
   0.32644608  0.37868982  0.47566469
   0.32922870  0.52202940  0.48237990
   0.33379853  0.66749415  0.49794464
   0.33325050  0.80955486  0.50313249
   0.33322933  0.95240444  0.50340628
   0.47625051  0.09488418  0.50303130
   0.47549813  0.23710966  0.50065916
   0.47531471  0.80930229  0.50198060
   0.47614644  0.95260432  0.50360425
   0.61888098  0.09526814  0.50387824
   0.61923932  0.23798543  0.50326551
   0.62084391  0.37938306  0.50028679
   0.62029028  0.81328425  0.49730726
   0.61907340  0.95297715  0.50164701
   0.76182763  0.09534121  0.50291428
   0.76184883  0.23788156  0.50466586
   0.76198271  0.38079901  0.50188508
   0.76230237  0.52491678  0.49339266
   0.76538060  0.66713732  0.48353177
   0.76163434  0.80861636  0.48778833
   0.76180733  0.95251948  0.49726689
   0.90427861  0.09479392  0.50142710
   0.90417726  0.23780203  0.50396271
   0.90435384  0.38094377  0.50464587
   0.90501625  0.52404884  0.50263626
   0.90607518  0.66705608  0.49848906
   0.90593521  0.81023578  0.49678047
   0.90468616  0.95210137  0.49903463
   0.46374935  0.35411187  0.49721385
   0.40146759  0.55537113  0.47580736
   0.64614593  0.53989646  0.47617685
   0.58487210  0.41596103  0.50033691
   0.58384114  0.74122143  0.49765918
   0.46267282  0.67930492  0.49967435
   0.56692705  0.59240343  0.64412565
   0.48057048  0.50096921  0.64461424
   0.41564414  0.42891110  0.45694761
   0.63197836  0.66625502  0.45730133
   0.52373638  0.54639416  0.60466391
Direct configuration=     3
   0.99996427  0.99998359  0.50101977
   0.99949515  0.14256712  0.50146665
   0.99926508  0.28539493  0.50265089
   0.99948767  0.42846025  0.50428368
   0.00010384  0.57156958  0.50418422
   0.00115255  0.71482464  0.50223365
   0.00102878  0.85789356  0.50074570
   0.14328032  0.00057987  0.50098655
   0.14283607  0.14321332  0.49871165
   0.14160279  0.28507358  0.49646333
   0.14150453  0.42826281  0.49834120
   0.14260786  0.57130098  0.50220300
   0.14323026  0.71440197  0.50385859
   0.14339087  0.85756688  0.50317773
   0.28573281  0.99997435  0.50208840
   0.28574378  0.14280976  0.49668153
   0.28591325  0.28665848  0.48734014
   0.28218925  0.42810712  0.48288017
   0.28529515  0.57033997  0.49284960
   0.28559087  0.71447133  0.50128925
   0.28570159  0.85740808  0.50379906
   0.42865122  0.00000684  0.50357623
   0.42846057  0.14232548  0.50113768
   0.42729325  0.28204313  0.49681025
   0.42671983  0.71590304  0.49985357
   0.42828632  0.85726829  0.50305189
   0.57126066  0.00038660  0.50328912
   0.57136113  0.14264852  0.50369792
   0.57223949  0.28597805  0.50207137
   0.57205854  0.85819052  0.50100937
   0.71418343 -0.00000687  0.50076124
   0.71432114  0.14288448  0.50413897
   0.71428657  0.28570419  0.50369463
   0.71377907  0.42776814  0.49849994
   0.71836582  0.57321241  0.48286785
   0.72116658  0.71657335  0.47613123
   0.71321707  0.85718611  0.49303843
   0.85700117  0.99997073  0.49889911
   0.85673954  0.14268025  0.50282052
   0.85678333  0.28549839  0.50475385
   0.85718371  0.42857177  0.50315862
   0.85789548  0.57191416  0.49852718
   0.85983665  0.71543905  0.49385297
   0.85755649  0.85695027  0.49533364
   0.04755382  0.09535015  0.50093311
   0.04651755  0.23746954  0.50079594
   0.04642587  0.38053111  0.50248342
   0.04752314  0.52378712  0.50412509
   0.04810988  0.66689817  0.50385432
   0.04829444  0.80997153  0.50226621
   0.04805391  0.95280422  0.50132344
   0.19054081  0.09537528  0.49843612
   0.18997576  0.23834769  0.49494483
   0.18772662  0.37986301  0.49338561
   0.18970405  0.52339427  0.49812436
   0.19039728  0.66675661  0.50248224
   0.19077635  0.80984254  0.50380712
   0.19082593  0.95268481  0.50210519
   0.33336435  0.09531888  0.50004143
   0.33435840  0.23812766  0.49257353
   0.32643746  0.37868055  0.47566385
   0.32922896  0.52202826  0.48238091
   0.33379803  0.66749450  0.49794622
   0.33325434  0.80955415  0.50313038
   0.33322362  0.95239662  0.50340843
   0.47625759  0.09487899  0.50303139
   0.47549875  0.23710328  0.50065957
   0.47531176  0.80930698  0.50198013
   0.47615596  0.95261602  0.50360497
   0.61887227  0.09526255  0.50388017
   0.61924082  0.23799113  0.50326627
   0.62084303  0.37938224  0.50028633
   0.62029110  0.81328187  0.49730847
   0.61907199  0.95296718  0.50164840
   0.76183169  0.09534744  0.50291377
   0.76184903  0.23787638  0.50466329
   0.76197914  0.38079635  0.50188604
   0.76230595  0.52491977  0.49339327
   0.76538070  0.66713563  0.48352885
   0.76163128  0.80861065  0.48778806
   0.76180739  0.95251883  0.49726650
   0.90427872  0.09478524  0.50142808
   0.90417615  0.23780096  0.50396189
   0.90435690  0.38094618  0.50464562
   0.90501556  0.52403880  0.50263531
   0.90607686  0.66705205  0.49849440
   0.90593821  0.81023936  0.49677897
   0.90468674  0.95210300  0.49903394
   0.46374929  0.35410912  0.49721273
   0.40146684  0.55537150  0.47580632
   0.64614614  0.53989497  0.47617618
   0.58487443  0.41596261  0.50033683
   0.58384043  0.74122088  0.49765815
   0.46267152  0.67930479  0.49967523
   0.56692942  0.59240215  0.64412624
   0.48056948  0.50097163  0.64461375
   0.41564654  0.42891763  0.45694479
   0.63197603  0.66625221  0.45730049
   0.52373544  0.54639319  0.60466391
Direct configuration=     4
   0.99996497  0.99998163  0.50100492
   0.99949528  0.14256571  0.50146211
   0.99926759  0.28539286  0.50264971
   0.99948552  0.42845671  0.50427647
   0.00010251  0.57156480  0.50417223
   0.00116087  0.71482801  0.50223063
   0.00103104  0.85789111  0.50074250
   0.14327790  0.00057542  0.50098654
   0.14283786  0.14321729  0.49870879
   0.14160328  0.28507370  0.49645954
   0.14150563  0.42826234  0.49834143
   0.14260304  0.57129762  0.50220060
   0.14322769  0.71439831  0.50386091
   0.14339035  0.85756240  0.50318262
   0.28572639  0.99996632  0.50209253
   0.28574206  0.14280340  0.49668281
   0.28591283  0.28665557  0.48734344
   0.28218654  0.42810882  0.48289203
   0.28529187  0.57033747  0.49285326
   0.28558980  0.71447515  0.50128771
   0.28570145  0.85741136  0.50380111
   0.42865692  0.00000901  0.50356819
   0.42846351  0.14232739  0.50114454
   0.42729669  0.28203953  0.49682250
   0.42671926  0.71590599  0.49985001
   0.42828999  0.85727415  0.50305108
   0.57126284  0.00038754  0.50328609
   0.57136062  0.14264554  0.50369400
   0.57224289  0.28597606  0.50206682
   0.57205784  0.85819003  0.50100887
   0.71418615 -0.00001092  0.50076022
   0.71431826  0.14288540  0.50414334
   0.71428500  0.28570521  0.50369444
   0.71378206  0.42776919  0.49850113
   0.71836272  0.57321647  0.48288004
   0.72116260  0.71657493  0.47613351
   0.71321219  0.85718436  0.49304480
   0.85700404  0.99997083  0.49890156
   0.85673988  0.14267593  0.50282528
   0.85678555  0.28549712  0.50474993
   0.85718630  0.42857063  0.50315239
   0.85789142  0.57190886  0.49853572
   0.85984005  0.71543722  0.49384940
   0.85755724  0.85695212  0.49533082
   0.04755863  0.09535690  0.50092474
   0.04652066  0.23746752  0.50079394
   0.04642600  0.38052870  0.50248166
   0.04752124  0.52379047  0.50412547
   0.04811175  0.66690175  0.50385426
   0.04829556  0.80997019  0.50226292
   0.04805382  0.95279818  0.50131956
   0.19054137  0.09537431  0.49843835
   0.18997793  0.23835163  0.49493940
   0.18772833  0.37986644  0.49338811
   0.18970845  0.52339970  0.49813349
   0.19039504  0.66675526  0.50247678
   0.19077451  0.80984325  0.50380603
   0.19082275  0.95268136  0.50210539
   0.33336178  0.09532145  0.50004536
   0.33436135  0.23812722  0.49257084
   0.32642999  0.37867956  0.47565838
   0.32923091  0.52203063  0.48238507
   0.33379383  0.66749590  0.49795013
   0.33325709  0.80955877  0.50312494
   0.33322105  0.95239854  0.50341389
   0.47625715  0.09488350  0.50303018
   0.47549849  0.23710716  0.50066126
   0.47530795  0.80930465  0.50197788
   0.47616050  0.95262059  0.50360561
   0.61887046  0.09526313  0.50388507
   0.61924327  0.23799123  0.50326781
   0.62084533  0.37937919  0.50028451
   0.62028780  0.81328135  0.49731271
   0.61907533  0.95296624  0.50165210
   0.76183292  0.09535012  0.50291288
   0.76184882  0.23787659  0.50465653
   0.76198042  0.38079795  0.50188832
   0.76230582  0.52492488  0.49339598
   0.76538230  0.66714052  0.48352154
   0.76162711  0.80861397  0.48779027
   0.76180974  0.95251907  0.49726603
   0.90427735  0.09478189  0.50143148
   0.90417496  0.23779803  0.50395983
   0.90435742  0.38094675  0.50464346
   0.90501144  0.52403610  0.50263091
   0.90607847  0.66705371  0.49850825
   0.90594051  0.81024115  0.49677357
   0.90468422  0.95210088  0.49903059
   0.46375112  0.35410696  0.49720944
   0.40146539  0.55537240  0.47580277
   0.64614539  0.53989030  0.47617438
   0.58488090  0.41596728  0.50033649
   0.58383740  0.74121709  0.49765485
   0.46266787  0.67930378  0.49967785
   0.56693516  0.59239592  0.64412621
   0.48056379  0.50097689  0.64461418
   0.41564172  0.42892886  0.45693842
   0.63197365  0.66624807  0.45729951
   0.52373690  0.54639483  0.60466391
Direct configuration=     5
   0.99996708  0.99997575  0.50096038
   0.99949568  0.14256150  0.50144847
   0.99927512  0.28538666  0.50264615
   0.99947907  0.42844610  0.50425482
   0.00009855  0.57155044  0.50413625
   0.00118585  0.71483813  0.50222158
   0.00103779  0.85788378  0.50073290
   0.14327065  0.00056204  0.50098653
   0.14284324  0.14322919  0.49870022
   0.14160477  0.28507404  0.49644818
   0.14150892  0.42826093  0.49834211
   0.14258858  0.57128754  0.50219342
   0.14321995  0.71438734  0.50386787
   0.14338881  0.85754896  0.50319731
   0.28570712  0.99994221  0.50210493
   0.28573692  0.14278430  0.49668665
   0.28591157  0.28664684  0.48735333
   0.28217841  0.42811391  0.48292762
   0.28528202  0.57032998  0.49286423
   0.28558658  0.71448662  0.50128308
   0.28570102  0.85742122  0.50380728
   0.42867402  0.00001553  0.50354406
   0.42847232  0.14233310  0.50116511
   0.42730703  0.28202874  0.49685925
   0.42671753  0.71591486  0.49983934
   0.42830102  0.85729175  0.50304865
   0.57126937  0.00039039  0.50327701
   0.57135908  0.14263659  0.50368224
   0.57225310  0.28597009  0.50205317
   0.57205572  0.85818857  0.50100738
   0.71419429 -0.00002307  0.50075715
   0.71430962  0.14288813  0.50415647
   0.71428030  0.28570827  0.50369385
   0.71379104  0.42777236  0.49850469
   0.71835342  0.57322866  0.48291662
   0.72115064  0.71657970  0.47614036
   0.71319755  0.85717911  0.49306389
   0.85701268  0.99997112  0.49890891
   0.85674088  0.14266296  0.50283955
   0.85679221  0.28549331  0.50473819
   0.85719405  0.42856719  0.50313369
   0.85787922  0.57189298  0.49856135
   0.85985027  0.71543173  0.49383869
   0.85755948  0.85695764  0.49532235
   0.04757308  0.09537716  0.50089961
   0.04652999  0.23746145  0.50078791
   0.04642638  0.38052148  0.50247638
   0.04751553  0.52380052  0.50412659
   0.04811735  0.66691246  0.50385408
   0.04829893  0.80996618  0.50225302
   0.04805354  0.95278005  0.50130792
   0.19054305  0.09537141  0.49844505
   0.18998444  0.23836344  0.49492311
   0.18773345  0.37987675  0.49339560
   0.18972165  0.52341598  0.49816087
   0.19038830  0.66675122  0.50246039
   0.19076898  0.80984539  0.50380275
   0.19081319  0.95267100  0.50210598
   0.33335407  0.09532917  0.50005717
   0.33437020  0.23812590  0.49256276
   0.32640758  0.37867659  0.47564197
   0.32923678  0.52203773  0.48239754
   0.33378125  0.66750011  0.49796186
   0.33326533  0.80957263  0.50310860
   0.33321334  0.95240428  0.50343027
   0.47625581  0.09489702  0.50302658
   0.47549774  0.23711879  0.50066633
   0.47529651  0.80929766  0.50197111
   0.47617413  0.95263431  0.50360755
   0.61886503  0.09526486  0.50389979
   0.61925059  0.23799155  0.50327246
   0.62085222  0.37937001  0.50027906
   0.62027787  0.81327979  0.49732543
   0.61908534  0.95296344  0.50166319
   0.76183662  0.09535815  0.50291022
   0.76184821  0.23787724  0.50463627
   0.76198424  0.38080275  0.50189515
   0.76230543  0.52494019  0.49340410
   0.76538710  0.66715519  0.48349960
   0.76161462  0.80862391  0.48779691
   0.76181680  0.95251979  0.49726463
   0.90427323  0.09477184  0.50144170
   0.90417138  0.23778924  0.50395366
   0.90435896  0.38094846  0.50463697
   0.90499907  0.52402798  0.50261769
   0.90608331  0.66705867  0.49854979
   0.90594739  0.81024651  0.49675737
   0.90467666  0.95209449  0.49902057
   0.46375660  0.35410050  0.49719956
   0.40146103  0.55537509  0.47579213
   0.64614313  0.53987627  0.47616896
   0.58490029  0.41598126  0.50033546
   0.58382830  0.74120574  0.49764497
   0.46265691  0.67930075  0.49968570
   0.56695237  0.59237722  0.64412610
   0.48054672  0.50099265  0.64461548
   0.41562725  0.42896254  0.45691933
   0.63196652  0.66623564  0.45729658
   0.52374126  0.54639975  0.60466391
Direct configuration=     6
   0.99996910  0.99997608  0.50094821
   0.99949577  0.14256022  0.50144459
   0.99927561  0.28538421  0.50264501
   0.99947948  0.42844527  0.50424943
   0.00009610  0.57155120  0.50412707
   0.00118689  0.71483768  0.50222029
   0.00103793  0.85788114  0.50072965
   0.14326937  0.00055962  0.50098647
   0.14284605  0.14323168  0.49869720
   0.14160664  0.28507626  0.49644462
   0.14150950  0.42826247  0.49834340
   0.14258774  0.57128713  0.50219215
   0.14322033  0.71438763  0.50386885
   0.14338777  0.85754732  0.50320042
   0.28570556  0.99994291  0.50210881
   0.28573602  0.14278379  0.49668758
   0.28591436  0.28664723  0.48735427
   0.28217835  0.42811570  0.48293656
   0.28528291  0.57033232  0.49286855
   0.28558475  0.71448819  0.50128118
   0.28570047  0.85742200  0.50380866
   0.42867381  0.00001787  0.50353854
   0.42847101  0.14233389  0.50117050
   0.42730715  0.28202926  0.49686811
   0.42671401  0.71591443  0.49983673
   0.42830273  0.85729572  0.50304755
   0.57127368  0.00039091  0.50327568
   0.57135936  0.14263799  0.50367976
   0.57225409  0.28596977  0.50204980
   0.57205301  0.85818674  0.50100755
   0.71419687 -0.00002163  0.50075678
   0.71430858  0.14288821  0.50415942
   0.71428175  0.28570924  0.50369365
   0.71379269  0.42777446  0.49850565
   0.71835246  0.57323239  0.48292586
   0.72114845  0.71658104  0.47614145
   0.71319569  0.85717955  0.49306924
   0.85701273  0.99996908  0.49891069
   0.85674071  0.14266097  0.50284312
   0.85679236  0.28549210  0.50473427
   0.85719338  0.42856544  0.50312869
   0.85787919  0.57189361  0.49856891
   0.85985216  0.71543271  0.49383599
   0.85755804  0.85695679  0.49531952
   0.04757400  0.09537639  0.50089147
   0.04653140  0.23746060  0.50078574
   0.04642674  0.38052044  0.50247423
   0.04751316  0.52379782  0.50412486
   0.04811688  0.66691012  0.50385307
   0.04830087  0.80996541  0.50225054
   0.04805305  0.95277817  0.50130361
   0.19054168  0.09536991  0.49844655
   0.18998550  0.23836445  0.49491916
   0.18773184  0.37987702  0.49339865
   0.18971983  0.52341568  0.49816802
   0.19038715  0.66675099  0.50245621
   0.19076881  0.80984334  0.50380307
   0.19081017  0.95266699  0.50210704
   0.33335327  0.09532538  0.50006140
   0.33437073  0.23812368  0.49256217
   0.32640417  0.37867719  0.47563828
   0.32923613  0.52203876  0.48240197
   0.33377917  0.66750141  0.49796440
   0.33326668  0.80957765  0.50310451
   0.33321582  0.95240656  0.50343424
   0.47625592  0.09489864  0.50302493
   0.47550162  0.23711897  0.50066910
   0.47529649  0.80929923  0.50196892
   0.47617689  0.95263627  0.50360683
   0.61886505  0.09526459  0.50390310
   0.61925087  0.23798858  0.50327297
   0.62085489  0.37936944  0.50027718
   0.62027379  0.81327707  0.49732899
   0.61908728  0.95296411  0.50166562
   0.76183523  0.09535626  0.50291024
   0.76184851  0.23787885  0.50463138
   0.76198650  0.38080408  0.50189653
   0.76230317  0.52494167  0.49340813
   0.76538790  0.66715892  0.48349490
   0.76161213  0.80862536  0.48779921
   0.76181832  0.95251858  0.49726504
   0.90427420  0.09477097  0.50144453
   0.90417307  0.23778718  0.50395222
   0.90435962  0.38094650  0.50463372
   0.90499792  0.52402642  0.50261338
   0.90608568  0.66705776  0.49856032
   0.90594831  0.81024613  0.49675212
   0.90467868  0.95209476  0.49901689
   0.46375823  0.35409869  0.49719694
   0.40146078  0.55537649  0.47578876
   0.64614171  0.53987221  0.47616780
   0.58490658  0.41598419  0.50033508
   0.58382605  0.74120361  0.49764208
   0.46265344  0.67930018  0.49968799
   0.56695887  0.59237237  0.64412689
   0.48054186  0.50099823  0.64461524
   0.41562098  0.42897055  0.45691366
   0.63196439  0.66623230  0.45729603
   0.52374101  0.54639960  0.60466391
Direct configuration=     7
   0.99997516  0.99997705  0.50091169
   0.99949602  0.14255637  0.50143293
   0.99927709  0.28537689  0.50264160
   0.99948074  0.42844280  0.50423329
   0.00008877  0.57155349  0.50409951
   0.00119001  0.71483634  0.50221640
   0.00103837  0.85787322  0.50071991
   0.14326553  0.00055235  0.50098632
   0.14285449  0.14323914  0.49868814
   0.14161227  0.28508291  0.49643392
   0.14151122  0.42826711  0.49834725
   0.14258522  0.57128590  0.50218837
   0.14322148  0.71438850  0.50387176
   0.14338463  0.85754240  0.50320977
   0.28570088  0.99994501  0.50212047
   0.28573333  0.14278227  0.49669037
   0.28592274  0.28664842  0.48735708
   0.28217818  0.42812105  0.48296338
   0.28528556  0.57033936  0.49288150
   0.28557928  0.71449291  0.50127548
   0.28569879  0.85742433  0.50381281
   0.42867318  0.00002490  0.50352196
   0.42846708  0.14233625  0.50118664
   0.42730752  0.28203082  0.49689467
   0.42670345  0.71591312  0.49982891
   0.42830784  0.85730764  0.50304428
   0.57128660  0.00039248  0.50327171
   0.57136019  0.14264220  0.50367234
   0.57225705  0.28596880  0.50203969
   0.57204486  0.85818124  0.50100805
   0.71420461 -0.00001732  0.50075569
   0.71430546  0.14288843  0.50416830
   0.71428608  0.28571214  0.50369303
   0.71379767  0.42778079  0.49850856
   0.71834958  0.57324359  0.48295358
   0.72114187  0.71658504  0.47614474
   0.71319010  0.85718085  0.49308531
   0.85701290  0.99996298  0.49891605
   0.85674019  0.14265502  0.50285383
   0.85679279  0.28548847  0.50472252
   0.85719137  0.42856019  0.50311371
   0.85787911  0.57189548  0.49859161
   0.85985786  0.71543564  0.49382789
   0.85755372  0.85695424  0.49531101
   0.04757678  0.09537407  0.50086705
   0.04653565  0.23745803  0.50077922
   0.04642781  0.38051733  0.50246781
   0.04750603  0.52378974  0.50411968
   0.04811545  0.66690308  0.50385004
   0.04830671  0.80996311  0.50224309
   0.04805156  0.95277251  0.50129068
   0.19053756  0.09536540  0.49845106
   0.18998869  0.23836747  0.49490733
   0.18772700  0.37987783  0.49340779
   0.18971436  0.52341480  0.49818948
   0.19038370  0.66675030  0.50244366
   0.19076831  0.80983720  0.50380403
   0.19080111  0.95265497  0.50211019
   0.33335086  0.09531403  0.50007406
   0.33437231  0.23811700  0.49256041
   0.32639393  0.37867898  0.47562720
   0.32923420  0.52204188  0.48241527
   0.33377292  0.66750534  0.49797202
   0.33327072  0.80959270  0.50309225
   0.33322328  0.95241342  0.50344615
   0.47625625  0.09490348  0.50301998
   0.47551326  0.23711951  0.50067740
   0.47529644  0.80930394  0.50196234
   0.47618519  0.95264216  0.50360465
   0.61886512  0.09526378  0.50391304
   0.61925171  0.23797965  0.50327451
   0.62086292  0.37936773  0.50027152
   0.62026154  0.81326892  0.49733968
   0.61909309  0.95296613  0.50167288
   0.76183104  0.09535058  0.50291030
   0.76184942  0.23788370  0.50461672
   0.76199328  0.38080807  0.50190066
   0.76229638  0.52494613  0.49342020
   0.76539030  0.66717009  0.48348081
   0.76160467  0.80862971  0.48780611
   0.76182287  0.95251494  0.49726626
   0.90427710  0.09476837  0.50145303
   0.90417816  0.23778099  0.50394790
   0.90436159  0.38094063  0.50462398
   0.90499446  0.52402175  0.50260047
   0.90609280  0.66705503  0.49859191
   0.90595106  0.81024498  0.49673638
   0.90468473  0.95209554  0.49900583
   0.46376312  0.35409327  0.49718908
   0.40146000  0.55538066  0.47577867
   0.64613744  0.53986003  0.47616431
   0.58492545  0.41599298  0.50033393
   0.58381930  0.74119722  0.49763341
   0.46264302  0.67929847  0.49969488
   0.56697835  0.59235784  0.64412928
   0.48052728  0.50101499  0.64461451
   0.41560218  0.42899455  0.45689665
   0.63195801  0.66622228  0.45729438
   0.52374027  0.54639914  0.60466391
Direct configuration=     8
   0.99998729  0.99997900  0.50083866
   0.99949652  0.14254868  0.50140961
   0.99928006  0.28536223  0.50263477
   0.99948324  0.42843786  0.50420101
   0.00007409  0.57155806  0.50404441
   0.00119624  0.71483366  0.50220862
   0.00103924  0.85785738  0.50070042
   0.14325785  0.00053782  0.50098600
   0.14287136  0.14325406  0.49867001
   0.14162351  0.28509623  0.49641253
   0.14151467  0.42827639  0.49835496
   0.14258018  0.57128344  0.50218080
   0.14322378  0.71439025  0.50387760
   0.14337836  0.85753258  0.50322847
   0.28569151  0.99994921  0.50214377
   0.28572795  0.14277922  0.49669597
   0.28593951  0.28665081  0.48736271
   0.28217782  0.42813176  0.48301703
   0.28529085  0.57035344  0.49290740
   0.28556833  0.71450235  0.50126410
   0.28569545  0.85742899  0.50382112
   0.42867191  0.00003895  0.50348880
   0.42845923  0.14234097  0.50121893
   0.42730826  0.28203394  0.49694778
   0.42668232  0.71591051  0.49981327
   0.42831807  0.85733149  0.50303772
   0.57131246  0.00039562  0.50326376
   0.57136186  0.14265060  0.50365750
   0.57226297  0.28596687  0.50201947
   0.57202857  0.85817024  0.50100906
   0.71422008 -0.00000869  0.50075350
   0.71429922  0.14288889  0.50418604
   0.71429476  0.28571796  0.50369180
   0.71380761  0.42779344  0.49851438
   0.71834383  0.57326599  0.48300903
   0.72112872  0.71659305  0.47615130
   0.71317892  0.85718346  0.49311745
   0.85701323  0.99995077  0.49892677
   0.85673914  0.14264311  0.50287525
   0.85679365  0.28548122  0.50469902
   0.85718733  0.42854970  0.50308374
   0.85787894  0.57189922  0.49863702
   0.85986925  0.71544152  0.49381169
   0.85754507  0.85694915  0.49529400
   0.04758232  0.09536944  0.50081821
   0.04654415  0.23745289  0.50076619
   0.04642997  0.38051110  0.50245497
   0.04749177  0.52377357  0.50410930
   0.04811261  0.66688901  0.50384398
   0.04831840  0.80995852  0.50222820
   0.04804858  0.95276119  0.50126481
   0.19052933  0.09535638  0.49846007
   0.18999508  0.23837352  0.49488366
   0.18771732  0.37987946  0.49342609
   0.18970344  0.52341303  0.49823241
   0.19037679  0.66674891  0.50241856
   0.19076731  0.80982493  0.50380594
   0.19078299  0.95263092  0.50211650
   0.33334604  0.09529132  0.50009939
   0.33437548  0.23810364  0.49255690
   0.32637345  0.37868256  0.47560506
   0.32923033  0.52204811  0.48244185
   0.33376042  0.66751319  0.49798724
   0.33327880  0.80962280  0.50306774
   0.33323819  0.95242713  0.50346997
   0.47625691  0.09491318  0.50301009
   0.47553654  0.23712059  0.50069399
   0.47529634  0.80931336  0.50194918
   0.47620177  0.95265393  0.50360028
   0.61886525  0.09526217  0.50393292
   0.61925340  0.23796180  0.50327759
   0.62087897  0.37936431  0.50026022
   0.62023705  0.81325262  0.49736105
   0.61910470  0.95297018  0.50168742
   0.76182268  0.09533923  0.50291043
   0.76185125  0.23789339  0.50458740
   0.76200684  0.38081605  0.50190891
   0.76228281  0.52495504  0.49344435
   0.76539510  0.66719245  0.48345263
   0.76158975  0.80863842  0.48781991
   0.76183198  0.95250767  0.49726870
   0.90428291  0.09476318  0.50147002
   0.90418832  0.23776861  0.50393925
   0.90436553  0.38092889  0.50460450