  97  97   0   0
  0.3994726E+02  0.1727104E-08  0.1727104E-08  0.1500000E-08  0.0000000E+00
  1.000000000000000E-004
  CAR 
 unknown system                          
      5.77839266    -25.54431039  301     -2.45034803      1.00000000
    -25.544  0.0000E+00  0.0000E+00  0.0000E+00  0.0000E+00
    -25.440  0.0000E+00  0.0000E+00  0.0000E+00  0.0000E+00
    -25.335  0.0000E+00  0.0000E+00  0.0000E+00  0.0000E+00
    -25.231  0.0000E+00  0.0000E+00  0.0000E+00  0.0000E+00
    -25.127  0.0000E+00  0.0000E+00  0.0000E+00  0.0000E+00
    -25.022  0.0000E+00  0.0000E+00  0.0000E+00  0.0000E+00
    -24.918  0.0000E+00  0.0000E+00  0.0000E+00  0.0000E+00
    -24.813  0.0000E+00  0.0000E+00  0.0000E+00  0.0000E+00
    -24.709  0.0000E+00  0.0000E+00  0.0000E+00  0.0000E+00
    -24.605  0.0000E+00  0.0000E+00  0.0000E+00  0.0000E+00
    -24.500  0.0000E+00  0.0000E+00  0.0000E+00  0.0000E+00
    -24.396  0.3310E-16  0.3310E-16  0.3456E-17  0.3456E-17
    -24.291  0.6445E-08  0.6445E-08  0.6729E-09  0.6729E-09
    -24.187  0.2880E-03  0.2880E-03  0.3007E-04  0.3007E-04
    -24.083  0.7934E-02  0.7934E-02  0.8585E-03  0.8585E-03
    -23.978  0.1355E-02  0.1355E-02  0.1000E-02  0.1000E-02
    -23.874  0.2711E-06  0.2711E-06  0.1000E-02  0.1000E-02
    -23.769  0.1417E-13  0.1417E-13  0.1000E-02  0.1000E-02
    -23.665  0.0000E+00  0.0000E+00  0.1000E-02  0.1000E-02
    -23.561  0.0000E+00  0.0000E+00  0.1000E-02  0.1000E-02
    -23.456  0.0000E+00  0.0000E+00  0.1000E-02  0.1000E-02
    -23.352  0.0000E+00  0.0000E+00  0.1000E-02  0.1000E-02
    -23.247  0.0000E+00  0.0000E+00  0.1000E-02  0.1000E-02
    -23.143  0.0000E+00  0.0000E+00  0.1000E-02  0.1000E-02
    -23.038  0.0000E+00  0.0000E+00  0.1000E-02  0.1000E-02
    -22.934  0.0000E+00  0.0000E+00  0.1000E-02  0.1000E-02
    -22.830  0.0000E+00  0.0000E+00  0.1000E-02  0.1000E-02
    -22.725  0.0000E+00  0.0000E+00  0.1000E-02  0.1000E-02
    -22.621  0.0000E+00  0.0000E+00  0.1000E-02  0.1000E-02
    -22.516  0.1936E-10  0.1936E-10  0.1000E-02  0.1000E-02
    -22.412  0.1592E-04  0.1592E-04  0.1002E-02  0.1002E-02
    -22.308  0.4912E-02  0.4912E-02  0.1514E-02  0.1514E-02
    -22.203  0.1170E-01  0.1170E-01  0.2736E-02  0.2736E-02
    -22.099  0.2527E-02  0.2527E-02  0.3000E-02  0.3000E-02
    -21.994  0.1628E-05  0.1628E-05  0.3000E-02  0.3000E-02
    -21.890  0.5555E-09  0.5555E-09  0.3000E-02  0.3000E-02
    -21.786  0.5143E-04  0.5143E-04  0.3005E-02  0.3005E-02
    -21.681  0.4899E-02  0.4899E-02  0.3517E-02  0.3517E-02
    -21.577  0.6802E-02  0.6802E-02  0.4227E-02  0.4227E-02
    -21.472  0.5142E-02  0.5142E-02  0.4764E-02  0.4764E-02
    -21.368  0.6413E-02  0.6413E-02  0.5433E-02  0.5433E-02
    -21.264  0.5035E-02  0.5035E-02  0.5959E-02  0.5959E-02
    -21.159  0.9738E-02  0.9738E-02  0.6976E-02  0.6976E-02
    -21.055  0.1688E-02  0.1688E-02  0.7152E-02  0.7152E-02
    -20.950  0.6434E-02  0.6434E-02  0.7824E-02  0.7824E-02
    -20.846  0.9729E-02  0.9729E-02  0.8840E-02  0.8840E-02
    -20.741  0.5655E-02  0.5655E-02  0.9430E-02  0.9430E-02
    -20.637  0.5979E-02  0.5979E-02  0.1005E-01  0.1005E-01
    -20.533  0.6260E-02  0.6260E-02  0.1071E-01  0.1071E-01
    -20.428  0.2805E-02  0.2805E-02  0.1100E-01  0.1100E-01
    -20.324  0.8932E-02  0.8932E-02  0.1193E-01  0.1193E-01
    -20.219  0.1083E-01  0.1083E-01  0.1306E-01  0.1306E-01
    -20.115  0.9134E-02  0.9134E-02  0.1402E-01  0.1402E-01
    -20.011  0.3418E-02  0.3418E-02  0.1437E-01  0.1437E-01
    -19.906  0.3737E-02  0.3737E-02  0.1477E-01  0.1477E-01
    -19.802  0.4516E-02  0.4516E-02  0.1524E-01  0.1524E-01
    -19.697  0.7606E-02  0.7606E-02  0.1603E-01  0.1603E-01
    -19.593  0.5876E-02  0.5876E-02  0.1664E-01  0.1664E-01
    -19.489  0.1179E-01  0.1179E-01  0.1788E-01  0.1788E-01
    -19.384  0.1247E-01  0.1247E-01  0.1918E-01  0.1918E-01
    -19.280  0.5311E-02  0.5311E-02  0.1973E-01  0.1973E-01
    -19.175  0.2023E-02  0.2023E-02  0.1994E-01  0.1994E-01
    -19.071  0.3938E-02  0.3938E-02  0.2035E-01  0.2035E-01
    -18.967  0.1172E-01  0.1172E-01  0.2158E-01  0.2158E-01
    -18.862  0.3985E-02  0.3985E-02  0.2199E-01  0.2199E-01
    -18.758  0.3710E-02  0.3710E-02  0.2238E-01  0.2238E-01
    -18.653  0.7029E-02  0.7029E-02  0.2312E-01  0.2312E-01
    -18.549  0.1492E-01  0.1492E-01  0.2467E-01  0.2467E-01
    -18.444  0.9221E-02  0.9221E-02  0.2564E-01  0.2564E-01
    -18.340  0.6188E-02  0.6188E-02  0.2628E-01  0.2628E-01
    -18.236  0.6538E-02  0.6538E-02  0.2696E-01  0.2696E-01
    -18.131  0.5064E-02  0.5064E-02  0.2749E-01  0.2749E-01
    -18.027  0.8449E-02  0.8449E-02  0.2838E-01  0.2838E-01
    -17.922  0.6608E-02  0.6608E-02  0.2907E-01  0.2907E-01
    -17.818  0.4008E-02  0.4008E-02  0.2948E-01  0.2948E-01
    -17.714  0.9822E-03  0.9822E-03  0.2959E-01  0.2959E-01
    -17.609  0.1244E-01  0.1244E-01  0.3089E-01  0.3089E-01
    -17.505  0.1013E-01  0.1013E-01  0.3194E-01  0.3194E-01
    -17.400  0.1165E-01  0.1165E-01  0.3316E-01  0.3316E-01
    -17.296  0.1144E-01  0.1144E-01  0.3435E-01  0.3435E-01
    -17.192  0.9309E-02  0.9309E-02  0.3533E-01  0.3533E-01
    -17.087  0.5721E-02  0.5721E-02  0.3592E-01  0.3592E-01
    -16.983  0.1006E-01  0.1006E-01  0.3697E-01  0.3697E-01
    -16.878  0.7551E-02  0.7551E-02  0.3776E-01  0.3776E-01
    -16.774  0.4436E-02  0.4436E-02  0.3823E-01  0.3823E-01
    -16.670  0.1088E-02  0.1088E-02  0.3834E-01  0.3834E-01
    -16.565  0.6649E-02  0.6649E-02  0.3903E-01  0.3903E-01
    -16.461  0.1183E-01  0.1183E-01  0.4027E-01  0.4027E-01
    -16.356  0.1710E-01  0.1710E-01  0.4205E-01  0.4205E-01
    -16.252  0.8000E-02  0.8000E-02  0.4289E-01  0.4289E-01
    -16.147  0.1063E-02  0.1063E-02  0.4300E-01  0.4300E-01
    -16.043  0.9720E-03  0.9720E-03  0.4310E-01  0.4310E-01
    -15.939  0.3129E-02  0.3129E-02  0.4343E-01  0.4343E-01
    -15.834  0.5105E-02  0.5105E-02  0.4396E-01  0.4396E-01
    -15.730  0.3037E-02  0.3037E-02  0.4428E-01  0.4428E-01
    -15.625  0.2337E-02  0.2337E-02  0.4452E-01  0.4452E-01
    -15.521  0.5294E-02  0.5294E-02  0.4508E-01  0.4508E-01
    -15.417  0.8415E-02  0.8415E-02  0.4595E-01  0.4595E-01
    -15.312  0.4713E-02  0.4713E-02  0.4645E-01  0.4645E-01
    -15.208  0.7792E-02  0.7792E-02  0.4726E-01  0.4726E-01
    -15.103  0.5816E-02  0.5816E-02  0.4787E-01  0.4787E-01
    -14.999  0.1132E-01  0.1132E-01  0.4905E-01  0.4905E-01
    -14.895  0.1245E-01  0.1245E-01  0.5035E-01  0.5035E-01
    -14.790  0.8155E-02  0.8155E-02  0.5120E-01  0.5120E-01
    -14.686  0.8669E-02  0.8669E-02  0.5210E-01  0.5210E-01
    -14.581  0.6644E-02  0.6644E-02  0.5280E-01  0.5280E-01
    -14.477  0.1090E-01  0.1090E-01  0.5394E-01  0.5394E-01
    -14.373  0.5592E-02  0.5592E-02  0.5452E-01  0.5452E-01
    -14.268  0.1175E-01  0.1175E-01  0.5575E-01  0.5575E-01
    -14.164  0.8196E-02  0.8196E-02  0.5660E-01  0.5660E-01
    -14.059  0.8943E-02  0.8943E-02  0.5754E-01  0.5754E-01
    -13.955  0.7172E-02  0.7172E-02  0.5829E-01  0.5829E-01
    -13.851  0.4044E-02  0.4044E-02  0.5871E-01  0.5871E-01
    -13.746  0.3779E-02  0.3779E-02  0.5910E-01  0.5910E-01
    -13.642  0.7698E-02  0.7698E-02  0.5991E-01  0.5991E-01
    -13.537  0.7037E-02  0.7037E-02  0.6064E-01  0.6064E-01
    -13.433  0.1056E-01  0.1056E-01  0.6174E-01  0.6174E-01
    -13.328  0.8781E-02  0.8781E-02  0.6266E-01  0.6266E-01
    -13.224  0.5715E-02  0.5715E-02  0.6326E-01  0.6326E-01
    -13.120  0.7671E-02  0.7671E-02  0.6406E-01  0.6406E-01
    -13.015  0.3947E-02  0.3947E-02  0.6447E-01  0.6447E-01
    -12.911  0.5983E-03  0.5983E-03  0.6453E-01  0.6453E-01
    -12.806  0.7146E-02  0.7146E-02  0.6528E-01  0.6528E-01
    -12.702  0.7371E-02  0.7371E-02  0.6605E-01  0.6605E-01
    -12.598  0.6940E-02  0.6940E-02  0.6677E-01  0.6677E-01
    -12.493  0.1517E-01  0.1517E-01  0.6836E-01  0.6836E-01
    -12.389  0.1355E-01  0.1355E-01  0.6977E-01  0.6977E-01
    -12.284  0.1002E-01  0.1002E-01  0.7082E-01  0.7082E-01
    -12.180  0.7892E-02  0.7892E-02  0.7164E-01  0.7164E-01
    -12.076  0.1274E-02  0.1274E-02  0.7177E-01  0.7177E-01
    -11.971  0.7268E-02  0.7268E-02  0.7253E-01  0.7253E-01
    -11.867  0.1286E-01  0.1286E-01  0.7388E-01  0.7388E-01
    -11.762  0.9484E-02  0.9484E-02  0.7487E-01  0.7487E-01
    -11.658  0.9696E-02  0.9696E-02  0.7588E-01  0.7588E-01
    -11.554  0.6838E-02  0.6838E-02  0.7659E-01  0.7659E-01
    -11.449  0.1204E-01  0.1204E-01  0.7785E-01  0.7785E-01
    -11.345  0.1087E-01  0.1087E-01  0.7898E-01  0.7898E-01
    -11.240  0.1122E-01  0.1122E-01  0.8015E-01  0.8015E-01
    -11.136  0.1059E-01  0.1059E-01  0.8126E-01  0.8126E-01
    -11.031  0.8737E-02  0.8737E-02  0.8217E-01  0.8217E-01
    -10.927  0.1065E-01  0.1065E-01  0.8328E-01  0.8328E-01
    -10.823  0.9438E-02  0.9438E-02  0.8427E-01  0.8427E-01
    -10.718  0.1206E-01  0.1206E-01  0.8553E-01  0.8553E-01
    -10.614  0.7825E-02  0.7825E-02  0.8635E-01  0.8635E-01
    -10.509  0.5332E-02  0.5332E-02  0.8690E-01  0.8690E-01
    -10.405  0.3309E-02  0.3309E-02  0.8725E-01  0.8725E-01
    -10.301  0.1520E-02  0.1520E-02  0.8741E-01  0.8741E-01
    -10.196  0.1447E-01  0.1447E-01  0.8892E-01  0.8892E-01
    -10.092  0.1482E-01  0.1482E-01  0.9047E-01  0.9047E-01
     -9.987  0.1765E-01  0.1765E-01  0.9231E-01  0.9231E-01
     -9.883  0.1643E-01  0.1643E-01  0.9402E-01  0.9402E-01
     -9.779  0.2128E-01  0.2128E-01  0.9625E-01  0.9625E-01
     -9.674  0.1776E-01  0.1776E-01  0.9810E-01  0.9810E-01
     -9.570  0.1296E-01  0.1296E-01  0.9945E-01  0.9945E-01
     -9.465  0.1501E-01  0.1501E-01  0.1010E+00  0.1010E+00
     -9.361  0.1878E-01  0.1878E-01  0.1030E+00  0.1030E+00
     -9.257  0.1786E-01  0.1786E-01  0.1048E+00  0.1048E+00
     -9.152  0.1287E-01  0.1287E-01  0.1062E+00  0.1062E+00
     -9.048  0.1729E-01  0.1729E-01  0.1080E+00  0.1080E+00
     -8.943  0.3093E-01  0.3093E-01  0.1112E+00  0.1112E+00
     -8.839  0.2587E-01  0.2587E-01  0.1139E+00  0.1139E+00
     -8.734  0.2399E-01  0.2399E-01  0.1164E+00  0.1164E+00
     -8.630  0.1813E-01  0.1813E-01  0.1183E+00  0.1183E+00
     -8.526  0.2016E-01  0.2016E-01  0.1204E+00  0.1204E+00
     -8.421  0.1627E-01  0.1627E-01  0.1221E+00  0.1221E+00
     -8.317  0.1704E-01  0.1704E-01  0.1239E+00  0.1239E+00
     -8.212  0.2557E-01  0.2557E-01  0.1266E+00  0.1266E+00
     -8.108  0.2092E-01  0.2092E-01  0.1288E+00  0.1288E+00
     -8.004  0.2104E-01  0.2104E-01  0.1310E+00  0.1310E+00
     -7.899  0.1535E-01  0.1535E-01  0.1326E+00  0.1326E+00
     -7.795  0.1592E-01  0.1592E-01  0.1342E+00  0.1342E+00
     -7.690  0.1479E-01  0.1479E-01  0.1358E+00  0.1358E+00
     -7.586  0.1545E-01  0.1545E-01  0.1374E+00  0.1374E+00
     -7.482  0.1022E-01  0.1022E-01  0.1384E+00  0.1384E+00
     -7.377  0.8310E-02  0.8310E-02  0.1393E+00  0.1393E+00
     -7.273  0.2001E-01  0.2001E-01  0.1414E+00  0.1414E+00
     -7.168  0.2401E-01  0.2401E-01  0.1439E+00  0.1439E+00
     -7.064  0.2190E-01  0.2190E-01  0.1462E+00  0.1462E+00
     -6.960  0.1108E-01  0.1108E-01  0.1474E+00  0.1474E+00
     -6.855  0.1115E-01  0.1115E-01  0.1485E+00  0.1485E+00
     -6.751  0.1434E-01  0.1434E-01  0.1500E+00  0.1500E+00
     -6.646  0.7327E-02  0.7327E-02  0.1508E+00  0.1508E+00
     -6.542  0.1083E-01  0.1083E-01  0.1519E+00  0.1519E+00
     -6.437  0.1065E-01  0.1065E-01  0.1530E+00  0.1530E+00
     -6.333  0.1458E-01  0.1458E-01  0.1545E+00  0.1545E+00
     -6.229  0.1467E-01  0.1467E-01  0.1561E+00  0.1561E+00
     -6.124  0.2189E-01  0.2189E-01  0.1584E+00  0.1584E+00
     -6.020  0.1309E-01  0.1309E-01  0.1597E+00  0.1597E+00
     -5.915  0.1438E-01  0.1438E-01  0.1612E+00  0.1612E+00
     -5.811  0.1094E-01  0.1094E-01  0.1624E+00  0.1624E+00
     -5.707  0.1649E-01  0.1649E-01  0.1641E+00  0.1641E+00
     -5.602  0.1455E-01  0.1455E-01  0.1656E+00  0.1656E+00
     -5.498  0.6147E-02  0.6147E-02  0.1663E+00  0.1663E+00
     -5.393  0.4177E-02  0.4177E-02  0.1667E+00  0.1667E+00
     -5.289  0.2536E-02  0.2536E-02  0.1670E+00  0.1670E+00
     -5.185  0.2076E-02  0.2076E-02  0.1672E+00  0.1672E+00
     -5.080  0.1307E-01  0.1307E-01  0.1685E+00  0.1685E+00
     -4.976  0.2100E-01  0.2100E-01  0.1707E+00  0.1707E+00
     -4.871  0.1747E-01  0.1747E-01  0.1726E+00  0.1726E+00
     -4.767  0.1813E-01  0.1813E-01  0.1744E+00  0.1744E+00
     -4.663  0.5276E-02  0.5276E-02  0.1750E+00  0.1750E+00
     -4.558  0.9290E-02  0.9290E-02  0.1760E+00  0.1760E+00
     -4.454  0.4771E-02  0.4771E-02  0.1765E+00  0.1765E+00
     -4.349  0.8936E-02  0.8936E-02  0.1774E+00  0.1774E+00
     -4.245  0.8437E-02  0.8437E-02  0.1783E+00  0.1783E+00
     -4.140  0.7724E-02  0.7724E-02  0.1791E+00  0.1791E+00
     -4.036  0.9555E-02  0.9555E-02  0.1801E+00  0.1801E+00
     -3.932  0.9416E-02  0.9416E-02  0.1811E+00  0.1811E+00
     -3.827  0.6186E-02  0.6186E-02  0.1817E+00  0.1817E+00
     -3.723  0.2080E-02  0.2080E-02  0.1819E+00  0.1819E+00
     -3.618  0.6527E-03  0.6527E-03  0.1820E+00  0.1820E+00
     -3.514  0.5306E-04  0.5306E-04  0.1820E+00  0.1820E+00
     -3.410  0.1986E-02  0.1986E-02  0.1822E+00  0.1822E+00
     -3.305  0.4738E-02  0.4738E-02  0.1827E+00  0.1827E+00
     -3.201  0.4269E-02  0.4269E-02  0.1832E+00  0.1832E+00
     -3.096  0.2939E-02  0.2939E-02  0.1835E+00  0.1835E+00
     -2.992  0.3822E-03  0.3822E-03  0.1835E+00  0.1835E+00
     -2.888  0.9363E-07  0.9363E-07  0.1835E+00  0.1835E+00
     -2.783  0.5300E-04  0.5300E-04  0.1835E+00  0.1835E+00
     -2.679  0.1961E-02  0.1961E-02  0.1837E+00  0.1837E+00
     -2.574  0.2243E-02  0.2243E-02  0.1839E+00  0.1839E+00
     -2.470  0.5313E-03  0.5313E-03  0.1840E+00  0.1840E+00
     -2.366  0.7661E-04  0.7661E-04  0.1840E+00  0.1840E+00
     -2.261  0.3146E-02  0.3146E-02  0.1843E+00  0.1843E+00
     -2.157  0.1562E-02  0.1562E-02  0.1845E+00  0.1845E+00
     -2.052  0.4448E-05  0.4448E-05  0.1845E+00  0.1845E+00
     -1.948  0.4710E-03  0.4710E-03  0.1845E+00  0.1845E+00
     -1.843  0.2107E-02  0.2107E-02  0.1848E+00  0.1848E+00
     -1.739  0.3182E-02  0.3182E-02  0.1851E+00  0.1851E+00
     -1.635  0.4533E-02  0.4533E-02  0.1856E+00  0.1856E+00
     -1.530  0.4023E-02  0.4023E-02  0.1860E+00  0.1860E+00
     -1.426  0.1718E-03  0.1718E-03  0.1860E+00  0.1860E+00
     -1.321  0.5095E-02  0.5095E-02  0.1865E+00  0.1865E+00
     -1.217  0.6955E-02  0.6955E-02  0.1873E+00  0.1873E+00
     -1.113  0.2160E-02  0.2160E-02  0.1875E+00  0.1875E+00
     -1.008  0.9977E-03  0.9977E-03  0.1876E+00  0.1876E+00
     -0.904  0.1019E-01  0.1019E-01  0.1887E+00  0.1887E+00
     -0.799  0.1709E-01  0.1709E-01  0.1904E+00  0.1904E+00
     -0.695  0.6992E-02  0.6992E-02  0.1912E+00  0.1912E+00
     -0.591  0.8160E-02  0.8160E-02  0.1920E+00  0.1920E+00
     -0.486  0.1099E-01  0.1099E-01  0.1932E+00  0.1932E+00
     -0.382  0.6105E-02  0.6105E-02  0.1938E+00  0.1938E+00
     -0.277  0.4215E-02  0.4215E-02  0.1943E+00  0.1943E+00
     -0.173  0.6106E-02  0.6106E-02  0.1949E+00  0.1949E+00
     -0.069  0.1110E-01  0.1110E-01  0.1961E+00  0.1961E+00
      0.036  0.1028E-01  0.1028E-01  0.1971E+00  0.1971E+00
      0.140  0.1038E-01  0.1038E-01  0.1982E+00  0.1982E+00
      0.245  0.1084E-01  0.1084E-01  0.1993E+00  0.1993E+00
      0.349  0.4193E-02  0.4193E-02  0.1998E+00  0.1998E+00
      0.454  0.2349E-02  0.2349E-02  0.2000E+00  0.2000E+00
      0.558  0.3446E-02  0.3446E-02  0.2004E+00  0.2004E+00
      0.662  0.6798E-02  0.6798E-02  0.2011E+00  0.2011E+00
      0.767  0.1378E-01  0.1378E-01  0.2025E+00  0.2025E+00
      0.871  0.1052E-01  0.1052E-01  0.2036E+00  0.2036E+00
      0.976  0.4923E-02  0.4923E-02  0.2041E+00  0.2041E+00
      1.080  0.1210E-01  0.1210E-01  0.2054E+00  0.2054E+00
      1.184  0.6436E-02  0.6436E-02  0.2061E+00  0.2061E+00
      1.289  0.7224E-02  0.7224E-02  0.2068E+00  0.2068E+00
      1.393  0.1079E-01  0.1079E-01  0.2080E+00  0.2080E+00
      1.498  0.1435E-01  0.1435E-01  0.2095E+00  0.2095E+00
      1.602  0.2098E-01  0.2098E-01  0.2116E+00  0.2116E+00
      1.706  0.1308E-01  0.1308E-01  0.2130E+00  0.2130E+00
      1.811  0.8821E-02  0.8821E-02  0.2139E+00  0.2139E+00
      1.915  0.8499E-02  0.8499E-02  0.2148E+00  0.2148E+00
      2.020  0.1579E-01  0.1579E-01  0.2165E+00  0.2165E+00
      2.124  0.2141E-01  0.2141E-01  0.2187E+00  0.2187E+00
      2.228  0.1631E-01  0.1631E-01  0.2204E+00  0.2204E+00
      2.333  0.1644E-01  0.1644E-01  0.2221E+00  0.2221E+00
      2.437  0.2658E-01  0.2658E-01  0.2249E+00  0.2249E+00
      2.542  0.1231E-01  0.1231E-01  0.2262E+00  0.2262E+00
      2.646  0.8090E-02  0.8090E-02  0.2270E+00  0.2270E+00
      2.751  0.1150E-01  0.1150E-01  0.2282E+00  0.2282E+00
      2.855  0.2907E-01  0.2907E-01  0.2313E+00  0.2313E+00
      2.959  0.3942E-01  0.3942E-01  0.2354E+00  0.2354E+00
      3.064  0.2945E-01  0.2945E-01  0.2385E+00  0.2385E+00
      3.168  0.1759E-01  0.1759E-01  0.2403E+00  0.2403E+00
      3.273  0.2120E-01  0.2120E-01  0.2425E+00  0.2425E+00
      3.377  0.1136E-01  0.1136E-01  0.2437E+00  0.2437E+00
      3.481  0.2230E-01  0.2230E-01  0.2460E+00  0.2460E+00
      3.586  0.2331E-01  0.2331E-01  0.2485E+00  0.2485E+00
      3.690  0.1325E-01  0.1325E-01  0.2498E+00  0.2498E+00
      3.795  0.2460E-01  0.2460E-01  0.2524E+00  0.2524E+00
      3.899  0.2348E-01  0.2348E-01  0.2549E+00  0.2549E+00
      4.003  0.2392E-01  0.2392E-01  0.2574E+00  0.2574E+00
      4.108  0.1922E-01  0.1922E-01  0.2594E+00  0.2594E+00
      4.212  0.1150E-01  0.1150E-01  0.2606E+00  0.2606E+00
      4.317  0.2727E-01  0.2727E-01  0.2634E+00  0.2634E+00
      4.421  0.1499E-01  0.1499E-01  0.2650E+00  0.2650E+00
      4.525  0.2058E-03  0.2058E-03  0.2650E+00  0.2650E+00
      4.630  0.3159E-08  0.3159E-08  0.2650E+00  0.2650E+00
      4.734  0.1329E-16  0.1329E-16  0.2650E+00  0.2650E+00
      4.839  0.0000E+00  0.0000E+00  0.2650E+00  0.2650E+00
      4.943  0.0000E+00  0.0000E+00  0.2650E+00  0.2650E+00
      5.048  0.0000E+00  0.0000E+00  0.2650E+00  0.2650E+00
      5.152  0.0000E+00  0.0000E+00  0.2650E+00  0.2650E+00
      5.256  0.0000E+00  0.0000E+00  0.2650E+00  0.2650E+00
      5.361  0.0000E+00  0.0000E+00  0.2650E+00  0.2650E+00
      5.465  0.0000E+00  0.0000E+00  0.2650E+00  0.2650E+00
      5.570  0.0000E+00  0.0000E+00  0.2650E+00  0.2650E+00
      5.674  0.0000E+00  0.0000E+00  0.2650E+00  0.2650E+00
      5.778  0.0000E+00  0.0000E+00  0.2650E+00  0.2650E+00
