       N       E                     dE             d eps       ncg     rms          rms(c)
DAV:   1     0.326017678547E+04    0.32602E+04   -0.13768E+05  4590   0.105E+03
DAV:   2    -0.252797625649E+03   -0.35130E+04   -0.33085E+04  6420   0.258E+02
DAV:   3    -0.864411567593E+03   -0.61161E+03   -0.60892E+03  5300   0.111E+02
DAV:   4    -0.886400386449E+03   -0.21989E+02   -0.21911E+02  5400   0.265E+01
DAV:   5    -0.887026815073E+03   -0.62643E+00   -0.62571E+00  6070   0.380E+00    0.518E+01
DAV:   6    -0.869673214720E+03    0.17354E+02   -0.21920E+01  5140   0.725E+00    0.337E+01
DAV:   7    -0.847437886188E+03    0.22235E+02   -0.32492E+01  5040   0.858E+00    0.204E+01
DAV:   8    -0.842598395972E+03    0.48395E+01   -0.24530E+01  5130   0.744E+00    0.817E+00
DAV:   9    -0.842471214035E+03    0.12718E+00   -0.11762E+00  5010   0.198E+00    0.312E+00
DAV:  10    -0.842388050851E+03    0.83163E-01   -0.36893E-01  4950   0.108E+00    0.889E-01
DAV:  11    -0.842375738288E+03    0.12313E-01   -0.76977E-02  4840   0.486E-01    0.294E-01
DAV:  12    -0.842374977063E+03    0.76123E-03   -0.60713E-03  5220   0.163E-01    0.153E-01
DAV:  13    -0.842374738104E+03    0.23896E-03   -0.28667E-03  5170   0.113E-01    0.681E-02
DAV:  14    -0.842374830239E+03   -0.92135E-04   -0.40709E-04  4820   0.381E-02    0.510E-02
DAV:  15    -0.842374876033E+03   -0.45794E-04   -0.12576E-04  5230   0.209E-02    0.262E-02
DAV:  16    -0.842374879546E+03   -0.35137E-05   -0.23317E-05  4850   0.102E-02    0.124E-02
DAV:  17    -0.842374879835E+03   -0.28839E-06   -0.14353E-05  5260   0.729E-03    0.567E-03
DAV:  18    -0.842374879298E+03    0.53659E-06   -0.29433E-06  4050   0.386E-03
   1 F= -.85013014E+03 E0= -.85013013E+03  d E =-.850130E+03  mag=     0.0001
       N       E                     dE             d eps       ncg     rms          rms(c)
DAV:   1    -0.842374994874E+03   -0.11504E-03   -0.71426E-03  4470   0.115E-01    0.162E-02
DAV:   2    -0.842375004968E+03   -0.10095E-04   -0.16388E-04  4680   0.144E-02    0.146E-02
DAV:   3    -0.842375002041E+03    0.29277E-05   -0.19185E-06  4000   0.226E-03    0.122E-02
DAV:   4    -0.842375004215E+03   -0.21748E-05   -0.93404E-06  4040   0.469E-03    0.305E-03
DAV:   5    -0.842375004697E+03   -0.48167E-06   -0.19938E-06  3400   0.166E-03
   2 F= -.85013025E+03 E0= -.85013025E+03  d E =-.118823E-03  mag=    -0.0000
       N       E                     dE             d eps       ncg     rms          rms(c)
DAV:   1    -0.842375129156E+03   -0.12494E-03   -0.16475E-02  4380   0.179E-01    0.232E-02
DAV:   2    -0.842375145632E+03   -0.16477E-04   -0.28001E-04  4490   0.204E-02    0.194E-02
DAV:   3    -0.842375141057E+03    0.45758E-05   -0.43663E-06  4310   0.349E-03    0.155E-02
DAV:   4    -0.842375148305E+03   -0.72488E-05   -0.15187E-05  4080   0.637E-03    0.350E-03
DAV:   5    -0.842375148752E+03   -0.44666E-06   -0.27860E-06  3490   0.230E-03
   3 F= -.85013039E+03 E0= -.85013039E+03  d E =-.132288E-03  mag=     0.0000
       N       E                     dE             d eps       ncg     rms          rms(c)
DAV:   1    -0.842375404211E+03   -0.25591E-03   -0.27094E-02  4360   0.233E-01    0.296E-02
DAV:   2    -0.842375429163E+03   -0.24953E-04   -0.38231E-04  4560   0.249E-02    0.233E-02
DAV:   3    -0.842375425373E+03    0.37904E-05   -0.77291E-06  4770   0.473E-03    0.179E-02
DAV:   4    -0.842375432469E+03   -0.70964E-05   -0.15906E-05  4140   0.706E-03    0.366E-03
DAV:   5    -0.842375432820E+03   -0.35058E-06   -0.29435E-06  3800   0.251E-03
   4 F= -.85013066E+03 E0= -.85013065E+03  d E =-.268909E-03  mag=     0.0000
       N       E                     dE             d eps       ncg     rms          rms(c)
DAV:   1    -0.842375714896E+03   -0.28243E-03   -0.47254E-02  4320   0.307E-01    0.400E-02
DAV:   2    -0.842375763008E+03   -0.48112E-04   -0.69713E-04  4600   0.334E-02    0.313E-02
DAV:   3    -0.842375757041E+03    0.59667E-05   -0.14461E-05  5115   0.644E-03    0.241E-02
DAV:   4    -0.842375766264E+03   -0.92230E-05   -0.25364E-05  4210   0.906E-03    0.522E-03
DAV:   5    -0.842375767216E+03   -0.95196E-06   -0.52544E-06  4130   0.328E-03
   5 F= -.85013097E+03 E0= -.85013097E+03  d E =-.313779E-03  mag=    -0.0000
       N       E                     dE             d eps       ncg     rms          rms(c)
DAV:   1    -0.842376130334E+03   -0.36407E-03   -0.74570E-02  4310   0.381E-01    0.493E-02
DAV:   2    -0.842376198517E+03   -0.68182E-04   -0.10513E-03  4580   0.408E-02    0.389E-02
DAV:   3    -0.842376186793E+03    0.11723E-04   -0.20650E-05  5155   0.760E-03    0.298E-02
DAV:   4    -0.842376207546E+03   -0.20752E-04   -0.45707E-05  4295   0.116E-02    0.619E-03
DAV:   5    -0.842376208756E+03   -0.12104E-05   -0.84261E-06  4500   0.416E-03    0.468E-03
DAV:   6    -0.842376208835E+03   -0.79235E-07   -0.13477E-06  3320   0.221E-03
   6 F= -.85013138E+03 E0= -.85013138E+03  d E =-.414453E-03  mag=     0.0000
       N       E                     dE             d eps       ncg     rms          rms(c)
DAV:   1    -0.842376644131E+03   -0.43537E-03   -0.11496E-01  4280   0.466E-01    0.606E-02
DAV:   2    -0.842376757744E+03   -0.11361E-03   -0.17181E-03  4540   0.509E-02    0.490E-02
DAV:   3    -0.842376736301E+03    0.21444E-04   -0.30611E-05  5100   0.906E-03    0.383E-02
DAV:   4    -0.842376765640E+03   -0.29339E-04   -0.86658E-05  4400   0.152E-02    0.797E-03
DAV:   5    -0.842376767605E+03   -0.19646E-05   -0.15585E-05  4620   0.542E-03    0.615E-03
DAV:   6    -0.842376768205E+03   -0.60086E-06   -0.20480E-06  3550   0.265E-03
   7 F= -.85013191E+03 E0= -.85013191E+03  d E =-.527786E-03  mag=     0.0000
       N       E                     dE             d eps       ncg     rms          rms(c)
DAV:   1    -0.842377285486E+03   -0.51788E-03   -0.18474E-01  4280   0.590E-01    0.765E-02
DAV:   2    -0.842377466580E+03   -0.18109E-03   -0.26063E-03  4560   0.629E-02    0.606E-02
DAV:   3    -0.842377438447E+03    0.28133E-04   -0.49314E-05  5120   0.116E-02    0.469E-02
DAV:   4    -0.842377475248E+03   -0.36801E-04   -0.12289E-04  4555   0.185E-02    0.956E-03
DAV:   5    -0.842377477388E+03   -0.21401E-05   -0.21533E-05  4610   0.662E-03    0.759E-03
DAV:   6    -0.842377477688E+03   -0.30016E-06   -0.34282E-06  3900   0.349E-03
   8 F= -.85013258E+03 E0= -.85013258E+03  d E =-.671808E-03  mag=     0.0000
       N       E                     dE             d eps       ncg     rms          rms(c)
DAV:   1    -0.842378107655E+03   -0.63027E-03   -0.28153E-01  4260   0.730E-01    0.961E-02
DAV:   2    -0.842378391938E+03   -0.28428E-03   -0.39286E-03  4580   0.777E-02    0.754E-02
DAV:   3    -0.842378355108E+03    0.36830E-04   -0.78605E-05  5160   0.147E-02    0.579E-02
DAV:   4    -0.842378396749E+03   -0.41641E-04   -0.16848E-04  4685   0.223E-02    0.117E-02
DAV:   5    -0.842378400236E+03   -0.34871E-05   -0.30346E-05  4620   0.797E-03    0.912E-03
DAV:   6    -0.842378399836E+03    0.39927E-06   -0.50488E-06  4040   0.428E-03
   9 F= -.85013346E+03 E0= -.85013346E+03  d E =-.875245E-03  mag=     0.0000
       N       E                     dE             d eps       ncg     rms          rms(c)
DAV:   1    -0.842379139955E+03   -0.73972E-03   -0.47863E-01  4260   0.942E-01    0.124E-01
DAV:   2    -0.842379642549E+03   -0.50259E-03   -0.68766E-03  4560   0.101E-01    0.987E-02
DAV:   3    -0.842379572144E+03    0.70405E-04   -0.12857E-04  5120   0.185E-02    0.765E-02
DAV:   4    -0.842379637435E+03   -0.65290E-04   -0.32914E-04  4780   0.298E-02    0.157E-02
DAV:   5    -0.842379644063E+03   -0.66289E-05   -0.57850E-05  4600   0.107E-02    0.124E-02
DAV:   6    -0.842379645843E+03   -0.17793E-05   -0.87566E-06  3990   0.553E-03    0.525E-03
DAV:   7    -0.842379645775E+03    0.67943E-07   -0.25673E-06  3980   0.264E-03
  10 F= -.85013463E+03 E0= -.85013463E+03  d E =-.117639E-02  mag=     0.0000
       N       E                     dE             d eps       ncg     rms          rms(c)
DAV:   1    -0.842380474371E+03   -0.82853E-03   -0.75051E-01  4260   0.117E+00    0.155E-01
DAV:   2    -0.842381271742E+03   -0.79737E-03   -0.10607E-02  4560   0.125E-01    0.123E-01
DAV:   3    -0.842381167544E+03    0.10420E-03   -0.20214E-04  5160   0.231E-02    0.950E-02
DAV:   4    -0.842381246007E+03   -0.78462E-04   -0.49659E-04  4820   0.365E-02    0.193E-02
DAV:   5    -0.842381255996E+03   -0.99898E-05   -0.87252E-05  4700   0.131E-02    0.155E-02
DAV:   6    -0.842381258066E+03   -0.20696E-05   -0.13583E-05  4110   0.689E-03    0.659E-03
DAV:   7    -0.842381257971E+03    0.94915E-07   -0.42094E-06  4540   0.337E-03
  11 F= -.85013616E+03 E0= -.85013616E+03  d E =-.152145E-02  mag=    -0.0000
       N       E                     dE             d eps       ncg     rms          rms(c)
DAV:   1    -0.842382133781E+03   -0.87572E-03   -0.11595E+00  4260   0.145E+00    0.194E-01
DAV:   2    -0.842383386345E+03   -0.12526E-02   -0.16251E-02  4560   0.153E-01    0.152E-01
DAV:   3    -0.842383241162E+03    0.14518E-03   -0.31858E-04  5160   0.289E-02    0.117E-01
DAV:   4    -0.842383329808E+03   -0.88646E-04   -0.71257E-04  4830   0.444E-02    0.236E-02
DAV:   5    -0.842383344946E+03   -0.15138E-04   -0.12798E-04  4700   0.159E-02    0.189E-02
DAV:   6    -0.842383345661E+03   -0.71478E-06   -0.20557E-05  4270   0.851E-03    0.817E-03
DAV:   7    -0.842383345682E+03   -0.21239E-07   -0.63169E-06  4800   0.417E-03
  12 F= -.85013814E+03 E0= -.85013814E+03  d E =-.198449E-02  mag=     0.0000
       N       E                     dE             d eps       ncg     rms          rms(c)
DAV:   1    -0.842383439447E+03   -0.93786E-04   -0.19494E+00  4260   0.186E+00    0.251E-01
DAV:   2    -0.842385810062E+03   -0.23706E-02   -0.30000E-02  4600   0.203E-01    0.201E-01
DAV:   3    -0.842385513359E+03    0.29670E-03   -0.52764E-04  5200   0.363E-02    0.158E-01
DAV:   4    -0.842385611938E+03   -0.98579E-04   -0.14607E-03  4840   0.602E-02    0.333E-02
DAV:   5    -0.842385640414E+03   -0.28475E-04   -0.26352E-04  4680   0.216E-02    0.266E-02
DAV:   6    -0.842385652742E+03   -0.12329E-04   -0.40842E-05  4320   0.117E-02    0.110E-02
DAV:   7    -0.842385653190E+03   -0.44829E-06   -0.10651E-05  4990   0.520E-03    0.592E-03
DAV:   8    -0.842385653101E+03    0.89734E-07   -0.39078E-06  3980   0.342E-03
  13 F= -.85014027E+03 E0= -.85014027E+03  d E =-.213210E-02  mag=     0.0000
       N       E                     dE             d eps       ncg     rms          rms(c)
DAV:   1    -0.842383186239E+03    0.24670E-02   -0.23038E+00  4240   0.213E+00    0.291E-01
DAV:   2    -0.842386186393E+03   -0.30002E-02   -0.37112E-02  4680   0.242E-01    0.233E-01
DAV:   3    -0.842385901819E+03    0.28457E-03   -0.79393E-04  5260   0.470E-02    0.182E-01
DAV:   4    -0.842385849127E+03    0.52692E-04   -0.13939E-03  4740   0.680E-02    0.417E-02
DAV:   5    -0.842385897064E+03   -0.47937E-04   -0.31368E-04  4700   0.255E-02    0.287E-02
DAV:   6    -0.842385889125E+03    0.79398E-05   -0.52882E-05  4540   0.138E-02    0.129E-02
DAV:   7    -0.842385889098E+03    0.26135E-07   -0.10367E-05  5040   0.573E-03    0.742E-03
DAV:   8    -0.842385888485E+03    0.61376E-06   -0.42878E-06  4140   0.388E-03
  14 F= -.85014039E+03 E0= -.85014038E+03  d E =-.112832E-03  mag=     0.0000
       N       E                     dE             d eps       ncg     rms          rms(c)
DAV:   1    -0.842388947517E+03   -0.30584E-02   -0.24843E-01  4480   0.742E-01    0.103E-01
DAV:   2    -0.842389542430E+03   -0.59491E-03   -0.77537E-03  4580   0.104E-01    0.990E-02
DAV:   3    -0.842389463287E+03    0.79142E-04   -0.90218E-05  5440   0.163E-02    0.861E-02
DAV:   4    -0.842389380422E+03    0.82865E-04   -0.34950E-04  4460   0.304E-02    0.269E-02
DAV:   5    -0.842389404670E+03   -0.24248E-04   -0.10570E-04  4820   0.120E-02    0.125E-02
DAV:   6    -0.842389415254E+03   -0.10584E-04   -0.91209E-06  4400   0.500E-03    0.437E-03
DAV:   7    -0.842389416702E+03   -0.14479E-05   -0.78079E-07  3280   0.186E-03    0.294E-03
DAV:   8    -0.842389416635E+03    0.66510E-07   -0.54427E-07  3660   0.131E-03
  15 F= -.85014387E+03 E0= -.85014386E+03  d E =-.347959E-02  mag=     0.0000
       N       E                     dE             d eps       ncg     rms          rms(c)
DAV:   1    -0.842389451869E+03   -0.35167E-04   -0.10741E-04  4380   0.173E-02    0.265E-03
DAV:   2    -0.842389451998E+03   -0.12846E-06   -0.21882E-06  3460   0.224E-03
  16 F= -.85014390E+03 E0= -.85014390E+03  d E =-.338485E-04  mag=     0.0000
       N       E                     dE             d eps       ncg     rms          rms(c)
DAV:   1    -0.842389514726E+03   -0.62857E-04   -0.40042E-04  4330   0.328E-02    0.632E-03
DAV:   2    -0.842389514937E+03   -0.21089E-06   -0.74253E-06  4360   0.408E-03
  17 F= -.85014396E+03 E0= -.85014396E+03  d E =-.598659E-04  mag=     0.0000
       N       E                     dE             d eps       ncg     rms          rms(c)
DAV:   1    -0.842389597511E+03   -0.82785E-04   -0.83956E-04  4280   0.461E-02    0.982E-03
DAV:   2    -0.842389597512E+03   -0.98953E-09   -0.12737E-05  4720   0.532E-03    0.829E-03
DAV:   3    -0.842389597505E+03    0.79162E-08   -0.10027E-06  3250   0.208E-03
  18 F= -.85014404E+03 E0= -.85014404E+03  d E =-.776932E-04  mag=     0.0000
       N       E                     dE             d eps       ncg     rms          rms(c)
DAV:   1    -0.842389699831E+03   -0.10232E-03   -0.14847E-03  4280   0.583E-02    0.903E-03
DAV:   2    -0.842389700361E+03   -0.53038E-06   -0.19418E-05  4540   0.626E-03    0.753E-03
DAV:   3    -0.842389700337E+03    0.24098E-07   -0.48869E-07  3730   0.141E-03
  19 F= -.85014413E+03 E0= -.85014413E+03  d E =-.959375E-04  mag=     0.0000
       N       E                     dE             d eps       ncg     rms          rms(c)
DAV:   1    -0.842389829544E+03   -0.12918E-03   -0.25198E-03  4270   0.724E-02    0.105E-02
DAV:   2    -0.842389830221E+03   -0.67721E-06   -0.32709E-05  4480   0.762E-03    0.867E-03
DAV:   3    -0.842389829993E+03    0.22817E-06   -0.66921E-07  3790   0.153E-03
  20 F= -.85014425E+03 E0= -.85014425E+03  d E =-.120969E-03  mag=     0.0000
       N       E                     dE             d eps       ncg     rms          rms(c)
DAV:   1    -0.842389988726E+03   -0.15851E-03   -0.40058E-03  4260   0.889E-02    0.129E-02
DAV:   2    -0.842389989534E+03   -0.80721E-06   -0.55013E-05  4460   0.946E-03    0.106E-02
DAV:   3    -0.842389988997E+03    0.53668E-06   -0.10325E-06  3915   0.180E-03
  21 F= -.85014440E+03 E0= -.85014440E+03  d E =-.148463E-03  mag=     0.0000
       N       E                     dE             d eps       ncg     rms          rms(c)
DAV:   1    -0.842390193421E+03   -0.20389E-03   -0.72236E-03  4240   0.118E-01    0.174E-02
DAV:   2    -0.842390195223E+03   -0.18016E-05   -0.10412E-04  4370   0.128E-02    0.143E-02
DAV:   3    -0.842390194107E+03    0.11163E-05   -0.19688E-06  4000   0.244E-03    0.109E-02
DAV:   4    -0.842390201607E+03   -0.75004E-05   -0.53594E-06  3890   0.371E-03    0.208E-03
DAV:   5    -0.842390201751E+03   -0.14371E-06   -0.92220E-07  3280   0.137E-03
  22 F= -.85014460E+03 E0= -.85014460E+03  d E =-.199117E-03  mag=     0.0000
       N       E                     dE             d eps       ncg     rms          rms(c)
DAV:   1    -0.842390449839E+03   -0.24823E-03   -0.11980E-02  4240   0.152E-01    0.220E-02
DAV:   2    -0.842390456709E+03   -0.68692E-05   -0.18820E-04  4300   0.173E-02    0.180E-02
DAV:   3    -0.842390453684E+03    0.30250E-05   -0.36477E-06  4240   0.330E-03    0.138E-02
DAV:   4    -0.842390462918E+03   -0.92347E-05   -0.95144E-06  3905   0.498E-03    0.293E-03
DAV:   5    -0.842390463409E+03   -0.49032E-06   -0.16787E-06  3460   0.183E-03
  23 F= -.85014485E+03 E0= -.85014485E+03  d E =-.244637E-03  mag=     0.0000
       N       E                     dE             d eps       ncg     rms          rms(c)
DAV:   1    -0.842390769124E+03   -0.30621E-03   -0.17815E-02  4240   0.185E-01    0.272E-02
DAV:   2    -0.842390779436E+03   -0.10312E-04   -0.26428E-04  4340   0.208E-02    0.221E-02
DAV:   3    -0.842390775695E+03    0.37407E-05   -0.56145E-06  4460   0.411E-03    0.166E-02
DAV:   4    -0.842390787748E+03   -0.12053E-04   -0.12534E-05  3970   0.583E-03    0.349E-03
DAV:   5    -0.842390788403E+03   -0.65540E-06   -0.22371E-06  3580   0.217E-03
  24 F= -.85014515E+03 E0= -.85014515E+03  d E =-.304443E-03  mag=     0.0000
       N       E                     dE             d eps       ncg     rms          rms(c)
DAV:   1    -0.842391170407E+03   -0.38266E-03   -0.25198E-02  4240   0.222E-01    0.327E-02
DAV:   2    -0.842391185352E+03   -0.14945E-04   -0.35162E-04  4380   0.245E-02    0.266E-02
DAV:   3    -0.842391180990E+03    0.43612E-05   -0.77671E-06  4820   0.486E-03    0.199E-02
DAV:   4    -0.842391196235E+03   -0.15244E-04   -0.16951E-05  4010   0.692E-03    0.377E-03
DAV:   5    -0.842391196639E+03   -0.40432E-06   -0.29929E-06  3760   0.260E-03
  25 F= -.85014553E+03 E0= -.85014553E+03  d E =-.383249E-03  mag=     0.0000
       N       E                     dE             d eps       ncg     rms          rms(c)
DAV:   1    -0.842391668963E+03   -0.47273E-03   -0.38205E-02  4240   0.274E-01    0.401E-02
DAV:   2    -0.842391693862E+03   -0.24900E-04   -0.52378E-04  4400   0.299E-02    0.329E-02
DAV:   3    -0.842391687970E+03    0.58921E-05   -0.11330E-05  5000   0.588E-03    0.248E-02
DAV:   4    -0.842391708350E+03   -0.20379E-04   -0.26988E-05  4120   0.871E-03    0.463E-03
DAV:   5    -0.842391708520E+03   -0.17047E-06   -0.46580E-06  4120   0.330E-03
  26 F= -.85014601E+03 E0= -.85014601E+03  d E =-.480364E-03  mag=     0.0000
       N       E                     dE             d eps       ncg     rms          rms(c)
DAV:   1    -0.842392285615E+03   -0.57726E-03   -0.63832E-02  4240   0.348E-01    0.509E-02
DAV:   2    -0.842392335162E+03   -0.49547E-04   -0.90565E-04  4440   0.383E-02    0.420E-02
DAV:   3    -0.842392325031E+03    0.10130E-04   -0.17971E-05  5140   0.730E-03    0.320E-02
DAV:   4    -0.842392353369E+03   -0.28338E-04   -0.49835E-05  4180   0.113E-02    0.625E-03
DAV:   5    -0.842392353695E+03   -0.32614E-06   -0.83899E-06  4500   0.427E-03
  27 F= -.85014662E+03 E0= -.85014662E+03  d E =-.604170E-03  mag=     0.0000
       N       E                     dE             d eps       ncg     rms          rms(c)
DAV:   1    -0.842393035528E+03   -0.68216E-03   -0.10504E-01  4240   0.442E-01    0.647E-02
DAV:   2    -0.842393131379E+03   -0.95851E-04   -0.15610E-03  4410   0.490E-02    0.533E-02
DAV:   3    -0.842393114504E+03    0.16876E-04   -0.28674E-05  5120   0.903E-03    0.411E-02
DAV:   4    -0.842393151555E+03   -0.37052E-04   -0.87027E-05  4220   0.145E-02    0.790E-03
DAV:   5    -0.842393152529E+03   -0.97369E-06   -0.14651E-05  4700   0.538E-03    0.633E-03
DAV:   6    -0.842393154357E+03   -0.18277E-05   -0.25193E-06  3500   0.282E-03    0.262E-03
DAV:   7    -0.842393154385E+03   -0.27962E-07   -0.71150E-07  3630   0.131E-03
  28 F= -.85014737E+03 E0= -.85014737E+03  d E =-.748171E-03  mag=     0.0000
       N       E                     dE             d eps       ncg     rms          rms(c)
DAV:   1    -0.842393991153E+03   -0.83680E-03   -0.15293E-01  4240   0.537E-01    0.788E-02
DAV:   2    -0.842394128394E+03   -0.13724E-03   -0.21737E-03  4520   0.589E-02    0.648E-02
DAV:   3    -0.842394103650E+03    0.24744E-04   -0.44967E-05  5140   0.113E-02    0.493E-02
DAV:   4    -0.842394143435E+03   -0.39785E-04   -0.11771E-04  4280   0.171E-02    0.946E-03
DAV:   5    -0.842394146109E+03   -0.26741E-05   -0.20674E-05  4740   0.642E-03    0.734E-03
DAV:   6    -0.842394148432E+03   -0.23227E-05   -0.30675E-06  3740   0.309E-03    0.316E-03
DAV:   7    -0.842394148555E+03   -0.12332E-06   -0.10629E-06  3620   0.159E-03
  29 F= -.85014830E+03 E0= -.85014830E+03  d E =-.931379E-03  mag=     0.0000
       N       E                     dE             d eps       ncg     rms          rms(c)
DAV:   1    -0.842395172074E+03   -0.10236E-02   -0.21951E-01  4240   0.648E-01    0.952E-02
DAV:   2    -0.842395369960E+03   -0.19789E-03   -0.29999E-03  4560   0.703E-02    0.780E-02
DAV:   3    -0.842395338440E+03    0.31520E-04   -0.66698E-05  5160   0.139E-02    0.587E-02
DAV:   4    -0.842395384928E+03   -0.46488E-04   -0.15468E-04  4320   0.202E-02    0.112E-02
DAV:   5    -0.842395388307E+03   -0.33790E-05   -0.27687E-05  4720   0.768E-03    0.856E-03
DAV:   6    -0.842395390615E+03   -0.23084E-05   -0.43765E-06  3960   0.372E-03    0.376E-03
DAV:   7    -0.842395390739E+03   -0.12314E-06   -0.13985E-06  3680   0.186E-03
  30 F= -.85014947E+03 E0= -.85014947E+03  d E =-.116964E-02  mag=     0.0000
       N       E                     dE             d eps       ncg     rms          rms(c)
DAV:   1    -0.842396582915E+03   -0.11923E-02   -0.35914E-01  4240   0.818E-01    0.119E-01
DAV:   2    -0.842396945490E+03   -0.36257E-03   -0.51057E-03  4540   0.895E-02    0.987E-02
DAV:   3    -0.842396890942E+03    0.54548E-04   -0.10217E-04  5150   0.171E-02    0.757E-02
DAV:   4    -0.842396947584E+03   -0.56643E-04   -0.29101E-04  4600   0.267E-02    0.145E-02
DAV:   5    -0.842396951246E+03   -0.36618E-05   -0.49782E-05  4680   0.100E-02    0.116E-02
DAV:   6    -0.842396956433E+03   -0.51873E-05   -0.80965E-06  3940   0.504E-03    0.494E-03
DAV:   7    -0.842396956574E+03   -0.14031E-06   -0.25675E-06  4020   0.244E-03
  31 F= -.85015094E+03 E0= -.85015094E+03  d E =-.147297E-02  mag=    -0.0000
       N       E                     dE             d eps       ncg     rms          rms(c)
DAV:   1    -0.842398335440E+03   -0.13790E-02   -0.53824E-01  4240   0.100E+00    0.146E-01
DAV:   2    -0.842398888939E+03   -0.55350E-03   -0.75351E-03  4560   0.109E-01    0.120E-01
DAV:   3    -0.842398808941E+03    0.79998E-04   -0.15410E-04  5160   0.211E-02    0.922E-02
DAV:   4    -0.842398879579E+03   -0.70638E-04   -0.42566E-04  4720   0.328E-02    0.177E-02
DAV:   5    -0.842398883899E+03   -0.43200E-05   -0.72918E-05  4720   0.123E-02    0.141E-02
DAV:   6    -0.842398889393E+03   -0.54933E-05   -0.12435E-05  4040   0.634E-03    0.604E-03
DAV:   7    -0.842398889676E+03   -0.28290E-06   -0.37040E-06  4220   0.299E-03
  32 F= -.85015276E+03 E0= -.85015276E+03  d E =-.181960E-02  mag=    -0.0000
       N       E                     dE             d eps       ncg     rms          rms(c)
DAV:   1    -0.842400462672E+03   -0.15733E-02   -0.78604E-01  4240   0.122E+00    0.177E-01
DAV:   2    -0.842401269087E+03   -0.80641E-03   -0.10855E-02  4560   0.132E-01    0.146E-01
DAV:   3    -0.842401153393E+03    0.11569E-03   -0.23585E-04  5160   0.260E-02    0.111E-01
DAV:   4    -0.842401244984E+03   -0.91591E-04   -0.57256E-04  4750   0.385E-02    0.213E-02
DAV:   5    -0.842401254265E+03   -0.92812E-05   -0.10149E-04  4740   0.145E-02    0.166E-02
DAV:   6    -0.842401259842E+03   -0.55767E-05   -0.16441E-05  4160   0.725E-03    0.723E-03
DAV:   7    -0.842401260313E+03   -0.47113E-06   -0.56423E-06  4640   0.370E-03
  33 F= -.85015500E+03 E0= -.85015500E+03  d E =-.223715E-02  mag=     0.0000
       N       E                     dE             d eps       ncg     rms          rms(c)
DAV:   1    -0.842402765145E+03   -0.15053E-02   -0.12384E+00  4260   0.152E+00    0.219E-01
DAV:   2    -0.842404122474E+03   -0.13573E-02   -0.17946E-02  4600   0.167E-01    0.182E-01
DAV:   3    -0.842403914394E+03    0.20808E-03   -0.36059E-04  5220   0.320E-02    0.141E-01
DAV:   4    -0.842404065215E+03   -0.15082E-03   -0.10261E-03  4800   0.503E-02    0.280E-02
DAV:   5    -0.842404077407E+03   -0.12192E-04   -0.17795E-04  4660   0.186E-02    0.223E-02
DAV:   6    -0.842404086879E+03   -0.94724E-05   -0.32056E-05  4260   0.101E-02    0.919E-03
DAV:   7    -0.842404087143E+03   -0.26326E-06   -0.83941E-06  4960   0.446E-03
  34 F= -.85015765E+03 E0= -.85015765E+03  d E =-.265202E-02  mag=    -0.0000
       N       E                     dE             d eps       ncg     rms          rms(c)
DAV:   1    -0.842405458616E+03   -0.13717E-02   -0.14553E+00  4240   0.175E+00    0.247E-01
DAV:   2    -0.842406921296E+03   -0.14627E-02   -0.19518E-02  4680   0.194E-01    0.207E-01
DAV:   3    -0.842406711559E+03    0.20974E-03   -0.50857E-04  5220   0.401E-02    0.156E-01
DAV:   4    -0.842406843903E+03   -0.13234E-03   -0.10302E-03  4640   0.573E-02    0.323E-02
DAV:   5    -0.842406859117E+03   -0.15214E-04   -0.19758E-04  4820   0.223E-02    0.236E-02
DAV:   6    -0.842406860946E+03   -0.18288E-05   -0.39816E-05  4460   0.117E-02    0.103E-02
DAV:   7    -0.842406860818E+03    0.12744E-06   -0.74346E-06  5040   0.478E-03
  35 F= -.85016025E+03 E0= -.85016024E+03  d E =-.259640E-02  mag=     0.0000
       N       E                     dE             d eps       ncg     rms          rms(c)
DAV:   1    -0.842407686605E+03   -0.82566E-03   -0.14629E-01  4260   0.564E-01    0.818E-02
DAV:   2    -0.842407907232E+03   -0.22063E-03   -0.32796E-03  4560   0.740E-02    0.699E-02
DAV:   3    -0.842407863156E+03    0.44077E-04   -0.54948E-05  5320   0.132E-02    0.555E-02
DAV:   4    -0.842407873793E+03   -0.10637E-04   -0.16455E-04  4370   0.210E-02    0.144E-02
DAV:   5    -0.842407888336E+03   -0.14543E-04   -0.32969E-05  4720   0.755E-03    0.841E-03
DAV:   6    -0.842407895677E+03   -0.73411E-05   -0.32467E-06  3680   0.319E-03    0.343E-03
DAV:   7    -0.842407896087E+03   -0.40941E-06   -0.51816E-07  3400   0.136E-03
  36 F= -.85016119E+03 E0= -.85016119E+03  d E =-.941213E-03  mag=     0.0000
       N       E                     dE             d eps       ncg     rms          rms(c)
DAV:   1    -0.842407381618E+03    0.51406E-03   -0.34727E-01  4300   0.830E-01    0.132E-01
DAV:   2    -0.842407872349E+03   -0.49073E-03   -0.69073E-03  4420   0.103E-01    0.109E-01
DAV:   3    -0.842407777033E+03    0.95316E-04   -0.10739E-04  5280   0.183E-02    0.838E-02
DAV:   4    -0.842407828535E+03   -0.51502E-04   -0.38218E-04  4450   0.301E-02    0.174E-02
DAV:   5    -0.842407841141E+03   -0.12606E-04   -0.66427E-05  4760   0.108E-02    0.121E-02
DAV:   6    -0.842407852411E+03   -0.11270E-04   -0.85305E-06  4100   0.497E-03    0.482E-03
DAV:   7    -0.842407853127E+03   -0.71596E-06   -0.14282E-06  3720   0.191E-03
  37 F= -.85016098E+03 E0= -.85016098E+03  d E =0.207475E-03  mag=    -0.0000
       N       E                     dE             d eps       ncg     rms          rms(c)
DAV:   1    -0.842408248996E+03   -0.39659E-03   -0.39858E-01  4300   0.891E-01    0.156E-01
DAV:   2    -0.842408688211E+03   -0.43921E-03   -0.66011E-03  4420   0.105E-01    0.127E-01
DAV:   3    -0.842408607109E+03    0.81102E-04   -0.11241E-04  5030   0.196E-02    0.901E-02
DAV:   4    -0.842408714323E+03   -0.10721E-03   -0.34771E-04  4740   0.288E-02    0.162E-02
DAV:   5    -0.842408712553E+03    0.17699E-05   -0.60546E-05  4650   0.117E-02    0.112E-02
DAV:   6    -0.842408719056E+03   -0.65024E-05   -0.83984E-06  3980   0.478E-03    0.467E-03
DAV:   7    -0.842408719385E+03   -0.32919E-06   -0.18509E-06  3960   0.193E-03
  38 F= -.85016164E+03 E0= -.85016164E+03  d E =-.664522E-03  mag=    -0.0000
       N       E                     dE             d eps       ncg     rms          rms(c)
DAV:   1    -0.842409513901E+03   -0.79485E-03   -0.46972E-01  4280   0.105E+00    0.180E-01
DAV:   2    -0.842409999442E+03   -0.48554E-03   -0.75276E-03  4440   0.127E-01    0.149E-01
DAV:   3    -0.842409902958E+03    0.96484E-04   -0.19402E-04  4820   0.279E-02    0.101E-01
DAV:   4    -0.842410015595E+03   -0.11264E-03   -0.35569E-04  4460   0.341E-02    0.223E-02
DAV:   5    -0.842410013835E+03    0.17604E-05   -0.86858E-05  4660   0.166E-02    0.119E-02
DAV:   6    -0.842410020052E+03   -0.62171E-05   -0.14048E-05  4520   0.610E-03    0.578E-03
DAV:   7    -0.842410020003E+03    0.48429E-07   -0.12263E-06  4000   0.214E-03
  39 F= -.85016271E+03 E0= -.85016271E+03  d E =-.107110E-02  mag=    -0.0000
       N       E                     dE             d eps       ncg     rms          rms(c)
DAV:   1    -0.842410131944E+03   -0.11189E-03   -0.67207E-01  4300   0.115E+00    0.204E-01
DAV:   2    -0.842410864246E+03   -0.73230E-03   -0.11013E-02  4420   0.136E-01    0.167E-01
DAV:   3    -0.842410718086E+03    0.14616E-03   -0.20583E-04  5040   0.272E-02    0.118E-01
DAV:   4    -0.842410892746E+03   -0.17466E-03   -0.60815E-04  4640   0.388E-02    0.247E-02
DAV:   5    -0.842410887149E+03    0.55963E-05   -0.11726E-04  4640   0.174E-02    0.148E-02
DAV:   6    -0.842410900359E+03   -0.13210E-04   -0.19464E-05  4200   0.681E-03    0.674E-03
DAV:   7    -0.842410900351E+03    0.79817E-08   -0.16793E-06  4080   0.238E-03
  40 F= -.85016332E+03 E0= -.85016332E+03  d E =-.601313E-03  mag=    -0.0000
       N       E                     dE             d eps       ncg     rms          rms(c)
DAV:   1    -0.842411363103E+03   -0.46274E-03   -0.83621E-01  4300   0.122E+00    0.209E-01
DAV:   2    -0.842412448918E+03   -0.10858E-02   -0.15363E-02  4440   0.145E-01    0.173E-01
DAV:   3    -0.842412232483E+03    0.21644E-03   -0.20980E-04  5200   0.250E-02    0.131E-01
DAV:   4    -0.842412428114E+03   -0.19563E-03   -0.97283E-04  4720   0.442E-02    0.252E-02
DAV:   5    -0.842412425381E+03    0.27329E-05   -0.15539E-04  4660   0.164E-02    0.187E-02
DAV:   6    -0.842412444993E+03   -0.19612E-04   -0.26566E-05  4280   0.809E-03    0.713E-03
DAV:   7    -0.842412445394E+03   -0.40114E-06   -0.29604E-06  4100   0.252E-03
  41 F= -.85016456E+03 E0= -.85016456E+03  d E =-.124659E-02  mag=    -0.0000
       N       E                     dE             d eps       ncg     rms          rms(c)
DAV:   1    -0.842412482880E+03   -0.37887E-04   -0.31041E-04  4360   0.301E-02    0.457E-03
DAV:   2    -0.842412483088E+03   -0.20761E-06   -0.57617E-06  4340   0.395E-03
  42 F= -.85016460E+03 E0= -.85016460E+03  d E =-.405043E-04  mag=    -0.0000
       N       E                     dE             d eps       ncg     rms          rms(c)
DAV:   1    -0.842412538364E+03   -0.55483E-04   -0.11639E-03  4320   0.575E-02    0.103E-02
DAV:   2    -0.842412539126E+03   -0.76251E-06   -0.25610E-05  4860   0.767E-03    0.868E-03
DAV:   3    -0.842412538507E+03    0.61899E-06   -0.15232E-06  3940   0.245E-03
  43 F= -.85016466E+03 E0= -.85016466E+03  d E =-.609067E-04  mag=    -0.0000
       N       E                     dE             d eps       ncg     rms          rms(c)
DAV:   1    -0.842412588263E+03   -0.49136E-04   -0.20492E-03  4280   0.765E-02    0.129E-02
DAV:   2    -0.842412589671E+03   -0.14089E-05   -0.39499E-05  4840   0.964E-03    0.109E-02
DAV:   3    -0.842412589081E+03    0.59006E-06   -0.19514E-06  4060   0.285E-03
  44 F= -.85016472E+03 E0= -.85016472E+03  d E =-.583030E-04  mag=    -0.0000
       N       E                     dE             d eps       ncg     rms          rms(c)
DAV:   1    -0.842412627411E+03   -0.37739E-04   -0.26211E-03  4300   0.870E-02    0.145E-02
DAV:   2    -0.842412628868E+03   -0.14573E-05   -0.43351E-05  4760   0.105E-02    0.121E-02
DAV:   3    -0.842412628707E+03    0.16092E-06   -0.23339E-06  4180   0.322E-03
  45 F= -.85016477E+03 E0= -.85016477E+03  d E =-.488447E-04  mag=    -0.0000
       N       E                     dE             d eps       ncg     rms          rms(c)
DAV:   1    -0.842412673479E+03   -0.44611E-04   -0.28932E-03  4300   0.924E-02    0.150E-02
DAV:   2    -0.842412674890E+03   -0.14112E-05   -0.39601E-05  4660   0.106E-02    0.124E-02
DAV:   3    -0.842412675403E+03   -0.51317E-06   -0.23904E-06  3920   0.341E-03
  46 F= -.85016483E+03 E0= -.85016483E+03  d E =-.565898E-04  mag=    -0.0000
       N       E                     dE             d eps       ncg     rms          rms(c)
DAV:   1    -0.842412744844E+03   -0.69954E-04   -0.32448E-03  4300   0.994E-02    0.154E-02
DAV:   2    -0.842412746691E+03   -0.18468E-05   -0.39679E-05  4640   0.111E-02    0.126E-02
DAV:   3    -0.842412747454E+03   -0.76291E-06   -0.23743E-06  3960   0.342E-03
  47 F= -.85016491E+03 E0= -.85016491E+03  d E =-.819771E-04  mag=    -0.0000
       N       E                     dE             d eps       ncg     rms          rms(c)
DAV:   1    -0.842412852727E+03   -0.10604E-03   -0.48953E-03  4300   0.124E-01    0.182E-02
DAV:   2    -0.842412856214E+03   -0.34875E-05   -0.62075E-05  4700   0.141E-02    0.150E-02
DAV:   3    -0.842412856753E+03   -0.53940E-06   -0.36790E-06  4260   0.416E-03
  48 F= -.85016503E+03 E0= -.85016503E+03  d E =-.119737E-03  mag=    -0.0000
       N       E                     dE             d eps       ncg     rms          rms(c)
DAV:   1    -0.842412987784E+03   -0.13157E-03   -0.75472E-03  4300   0.155E-01    0.226E-02
DAV:   2    -0.842412993483E+03   -0.56986E-05   -0.98018E-05  4760   0.177E-02    0.187E-02
DAV:   3    -0.842412993929E+03   -0.44594E-06   -0.64207E-06  4360   0.545E-03
  49 F= -.85016518E+03 E0= -.85016518E+03  d E =-.148505E-03  mag=    -0.0000
       N       E                     dE             d eps       ncg     rms          rms(c)
DAV:   1    -0.842413143061E+03   -0.14958E-03   -0.11647E-02  4300   0.190E-01    0.283E-02
DAV:   2    -0.842413150936E+03   -0.78754E-05   -0.14524E-04  4780   0.216E-02    0.234E-02
DAV:   3    -0.842413152123E+03   -0.11870E-05   -0.10212E-05  4440   0.688E-03    0.116E-02
DAV:   4    -0.842413154956E+03   -0.28326E-05   -0.49001E-06  4460   0.405E-03    0.397E-03
DAV:   5    -0.842413154778E+03    0.17759E-06   -0.18101E-06  3970   0.280E-03
  50 F= -.85016535E+03 E0= -.85016535E+03  d E =-.175815E-03  mag=    -0.0000
       N       E                     dE             d eps       ncg     rms          rms(c)
DAV:   1    -0.842413362555E+03   -0.20760E-03   -0.16995E-02  4300   0.227E-01    0.317E-02
DAV:   2    -0.842413373378E+03   -0.10823E-04   -0.21530E-04  4820   0.261E-02    0.266E-02
DAV:   3    -0.842413372544E+03    0.83401E-06   -0.14376E-05  4800   0.817E-03    0.138E-02
DAV:   4    -0.842413376428E+03   -0.38838E-05   -0.83876E-06  4480   0.525E-03    0.469E-03
DAV:   5    -0.842413376255E+03    0.17272E-06   -0.29550E-06  4240   0.341E-03
  51 F= -.85016559E+03 E0= -.85016559E+03  d E =-.239494E-03  mag=    -0.0000
       N       E                     dE             d eps       ncg     rms          rms(c)
DAV:   1    -0.842413670342E+03   -0.29391E-03   -0.23599E-02  4300   0.269E-01    0.370E-02
DAV:   2    -0.842413686245E+03   -0.15903E-04   -0.29768E-04  4840   0.309E-02    0.313E-02
DAV:   3    -0.842413684273E+03    0.19718E-05   -0.20184E-05  4830   0.975E-03    0.166E-02
DAV:   4    -0.842413689192E+03   -0.49187E-05   -0.11983E-05  4480   0.638E-03    0.567E-03
DAV:   5    -0.842413689018E+03    0.17399E-06   -0.38197E-06  4520   0.370E-03
  52 F= -.85016592E+03 E0= -.85016592E+03  d E =-.329312E-03  mag=    -0.0000
       N       E                     dE             d eps       ncg     rms          rms(c)
DAV:   1    -0.842414089269E+03   -0.40008E-03   -0.31740E-02  4280   0.310E-01    0.433E-02
DAV:   2    -0.842414109805E+03   -0.20536E-04   -0.38752E-04  4740   0.355E-02    0.360E-02
DAV:   3    -0.842414106878E+03    0.29272E-05   -0.33174E-05  4900   0.123E-02    0.189E-02
DAV:   4    -0.842414112010E+03   -0.51322E-05   -0.12180E-05  4520   0.642E-03    0.781E-03
DAV:   5    -0.842414112627E+03   -0.61750E-06   -0.32718E-06  4060   0.354E-03
  53 F= -.85016635E+03 E0= -.85016635E+03  d E =-.430553E-03  mag=    -0.0000
       N       E                     dE             d eps       ncg     rms          rms(c)
DAV:   1    -0.842414648570E+03   -0.53656E-03   -0.45284E-02  4280   0.356E-01    0.492E-02
DAV:   2    -0.842414679916E+03   -0.31346E-04   -0.57735E-04  4600   0.404E-02    0.411E-02
DAV:   3    -0.842414675899E+03    0.40163E-05   -0.27454E-05  5180   0.109E-02    0.262E-02
DAV:   4    -0.842414688702E+03   -0.12802E-04   -0.22037E-05  4420   0.905E-03    0.764E-03
DAV:   5    -0.842414689676E+03   -0.97480E-06   -0.61021E-06  4340   0.432E-03
  54 F= -.85016692E+03 E0= -.85016692E+03  d E =-.567864E-03  mag=    -0.0000
       N       E                     dE             d eps       ncg     rms          rms(c)
DAV:   1    -0.842415394807E+03   -0.70611E-03   -0.66221E-02  4260   0.407E-01    0.578E-02
DAV:   2    -0.842415443426E+03   -0.48619E-04   -0.86976E-04  4510   0.459E-02    0.490E-02
DAV:   3    -0.842415435318E+03    0.81079E-05   -0.27662E-05  5180   0.105E-02    0.344E-02
DAV:   4    -0.842415460674E+03   -0.25356E-04   -0.47672E-05  4320   0.125E-02    0.758E-03
DAV:   5    -0.842415460833E+03   -0.15869E-06   -0.10683E-05  4620   0.544E-03    0.492E-03
DAV:   6    -0.842415460940E+03   -0.10766E-06   -0.18464E-06  3460   0.248E-03
  55 F= -.85016766E+03 E0= -.85016766E+03  d E =-.740110E-03  mag=    -0.0000
       N       E                     dE             d eps       ncg     rms          rms(c)
DAV:   1    -0.842416356004E+03   -0.89517E-03   -0.10214E-01  4240   0.475E-01    0.724E-02
DAV:   2    -0.842416429340E+03   -0.73337E-04   -0.13293E-03  4540   0.528E-02    0.615E-02
DAV:   3    -0.842416414994E+03    0.14346E-04   -0.36705E-05  5220   0.116E-02    0.440E-02
DAV:   4    -0.842416456788E+03   -0.41794E-04   -0.79182E-05  4300   0.153E-02    0.934E-03
DAV:   5    -0.842416456305E+03    0.48345E-06   -0.15610E-05  4660   0.654E-03    0.630E-03
DAV:   6    -0.842416456598E+03   -0.29312E-06   -0.36798E-06  3700   0.332E-03
  56 F= -.85016859E+03 E0= -.85016859E+03  d E =-.933143E-03  mag=    -0.0000
       N       E                     dE             d eps       ncg     rms          rms(c)
DAV:   1    -0.842417500090E+03   -0.10438E-02   -0.19808E-01  4240   0.609E-01    0.989E-02
DAV:   2    -0.842417679883E+03   -0.17979E-03   -0.28590E-03  4420   0.682E-02    0.819E-02
DAV:   3    -0.842417650011E+03    0.29872E-04   -0.58282E-05  5200   0.134E-02    0.610E-02
DAV:   4    -0.842417719388E+03   -0.69377E-04   -0.15935E-04  4300   0.195E-02    0.111E-02
DAV:   5    -0.842417720386E+03   -0.99814E-06   -0.27386E-05  4680   0.755E-03    0.847E-03
DAV:   6    -0.842417721121E+03   -0.73461E-06   -0.51799E-06  3880   0.384E-03
  57 F= -.85016975E+03 E0= -.85016975E+03  d E =-.115467E-02  mag=    -0.0000
       N       E                     dE             d eps       ncg     rms          rms(c)
DAV:   1    -0.842418831990E+03   -0.11116E-02   -0.36714E-01  4240   0.789E-01    0.133E-01
DAV:   2    -0.842419225993E+03   -0.39400E-03   -0.57153E-03  4410   0.892E-02    0.109E-01
DAV:   3    -0.842419162379E+03    0.63615E-04   -0.10358E-04  5200   0.169E-02    0.822E-02
DAV:   4    -0.842419254280E+03   -0.91901E-04   -0.30723E-04  4340   0.251E-02    0.151E-02
DAV:   5    -0.842419261048E+03   -0.67679E-05   -0.51405E-05  4700   0.949E-03    0.115E-02
DAV:   6    -0.842419263886E+03   -0.28385E-05   -0.84302E-06  3940   0.467E-03    0.466E-03
DAV:   7    -0.842419263985E+03   -0.99317E-07   -0.26054E-06  3880   0.221E-03
  58 F= -.85017114E+03 E0= -.85017114E+03  d E =-.138791E-02  mag=    -0.0000
       N       E                     dE             d eps       ncg     rms          rms(c)
DAV:   1    -0.842420615732E+03   -0.13518E-02   -0.48968E-01  4240   0.922E-01    0.156E-01
DAV:   2    -0.842421109997E+03   -0.49427E-03   -0.71073E-03  4480   0.103E-01    0.130E-01
DAV:   3    -0.842421030045E+03    0.79952E-04   -0.13310E-04  5200   0.199E-02    0.976E-02
DAV:   4    -0.842421153683E+03   -0.12364E-03   -0.43108E-04  4420   0.307E-02    0.180E-02
DAV:   5    -0.842421152089E+03    0.15938E-05   -0.70453E-05  4660   0.120E-02    0.141E-02
DAV:   6    -0.842421155218E+03   -0.31289E-05   -0.16374E-05  3960   0.660E-03    0.565E-03
DAV:   7    -0.842421155104E+03    0.11389E-06   -0.25628E-06  3980   0.231E-03
  59 F= -.85017284E+03 E0= -.85017284E+03  d E =-.170018E-02  mag=    -0.0000
       N       E                     dE             d eps       ncg     rms          rms(c)
DAV:   1    -0.842422526133E+03   -0.13709E-02   -0.75624E-01  4240   0.114E+00    0.188E-01
DAV:   2    -0.842423370664E+03   -0.84453E-03   -0.11622E-02  4450   0.129E-01    0.158E-01
DAV:   3    -0.842423231562E+03    0.13910E-03   -0.20308E-04  5200   0.242E-02    0.121E-01
DAV:   4    -0.842423393835E+03   -0.16227E-03   -0.73514E-04  4630   0.390E-02    0.228E-02
DAV:   5    -0.842423395241E+03   -0.14062E-05   -0.11929E-04  4680   0.149E-02    0.181E-02
DAV:   6    -0.842423403033E+03   -0.77924E-05   -0.24607E-05  4120   0.813E-03    0.716E-03
DAV:   7    -0.842423402934E+03    0.98909E-07   -0.45513E-06  4260   0.301E-03
  60 F= -.85017484E+03 E0= -.85017484E+03  d E =-.200533E-02  mag=     0.0000
       N       E                     dE             d eps       ncg     rms          rms(c)
DAV:   1    -0.842424874263E+03   -0.14712E-02   -0.82075E-01  4240   0.128E+00    0.203E-01
DAV:   2    -0.842425697622E+03   -0.82336E-03   -0.11627E-02  4580   0.146E-01    0.170E-01
DAV:   3    -0.842425568979E+03    0.12864E-03   -0.29956E-04  5220   0.309E-02    0.125E-01
DAV:   4    -0.842425708339E+03   -0.13936E-03   -0.58852E-04  4480   0.409E-02    0.257E-02
DAV:   5    -0.842425725586E+03   -0.17247E-04   -0.11366E-04  4700   0.164E-02    0.174E-02
DAV:   6    -0.842425729600E+03   -0.40133E-05   -0.19808E-05  4460   0.782E-03    0.772E-03
DAV:   7    -0.842425729537E+03    0.62122E-07   -0.41196E-06  4280   0.333E-03
  61 F= -.85017696E+03 E0= -.85017696E+03  d E =-.211523E-02  mag=     0.0000
       N       E                     dE             d eps       ncg     rms          rms(c)
DAV:   1    -0.842425208303E+03    0.52130E-03   -0.13934E+00  4260   0.178E+00    0.245E-01
DAV:   2    -0.842427049685E+03   -0.18414E-02   -0.24180E-02  4600   0.218E-01    0.213E-01
DAV:   3    -0.842426744188E+03    0.30550E-03   -0.55431E-04  5300   0.430E-02    0.169E-01
DAV:   4    -0.842426818957E+03   -0.74769E-04   -0.14262E-03  4510   0.661E-02    0.420E-02
DAV:   5    -0.842426857864E+03   -0.38908E-04   -0.26851E-04  4700   0.251E-02    0.284E-02
DAV:   6    -0.842426882975E+03   -0.25110E-04   -0.52952E-05  4360   0.129E-02    0.112E-02
DAV:   7    -0.842426882785E+03    0.18928E-06   -0.56698E-06  4820   0.437E-03
  62 F= -.85017784E+03 E0= -.85017784E+03  d E =-.885881E-03  mag=     0.0000
       N       E                     dE             d eps       ncg     rms          rms(c)
DAV:   1    -0.842428843794E+03   -0.19608E-02   -0.11794E-01  4330   0.679E-01    0.768E-02
DAV:   2    -0.842429057421E+03   -0.21363E-03   -0.31497E-03  4640   0.983E-02    0.701E-02
DAV:   3    -0.842429001907E+03    0.55515E-04   -0.10783E-04  5800   0.194E-02    0.558E-02
DAV:   4    -0.842428962190E+03    0.39717E-04   -0.12808E-04  4400   0.238E-02    0.223E-02
DAV:   5    -0.842428966616E+03   -0.44259E-05   -0.38677E-05  4560   0.107E-02    0.899E-03
DAV:   6    -0.842428968071E+03   -0.14551E-05   -0.30047E-06  3360   0.335E-03    0.358E-03
DAV:   7    -0.842428968026E+03    0.45293E-07   -0.48402E-07  3260   0.152E-03
  63 F= -.85017997E+03 E0= -.85017997E+03  d E =-.212877E-02  mag=     0.0000
       N       E                     dE             d eps       ncg     rms          rms(c)
DAV:   1    -0.842428985170E+03   -0.17099E-04   -0.74110E-05  4360   0.162E-02    0.227E-03
DAV:   2    -0.842428985222E+03   -0.51965E-07   -0.10883E-06  3320   0.205E-03
  64 F= -.85017999E+03 E0= -.85017999E+03  d E =-.190956E-04  mag=     0.0000
       N       E                     dE             d eps       ncg     rms          rms(c)
DAV:   1    -0.842429014582E+03   -0.29412E-04   -0.29002E-04  4340   0.317E-02    0.517E-03
DAV:   2    -0.842429014746E+03   -0.16416E-06   -0.41780E-06  4460   0.380E-03
  65 F= -.85018003E+03 E0= -.85018002E+03  d E =-.337782E-04  mag=     0.0000
       N       E                     dE             d eps       ncg     rms          rms(c)
DAV:   1    -0.842429051916E+03   -0.37334E-04   -0.63634E-04  4300   0.456E-02    0.836E-03
DAV:   2    -0.842429052094E+03   -0.17838E-06   -0.80586E-06  4700   0.521E-03
  66 F= -.85018007E+03 E0= -.85018007E+03  d E =-.441951E-04  mag=     0.0000
       N       E                     dE             d eps       ncg     rms          rms(c)
DAV:   1    -0.842429096215E+03   -0.44299E-04   -0.11377E-03  4285   0.588E-02    0.111E-02
DAV:   2    -0.842429096429E+03   -0.21382E-06   -0.13303E-05  4800   0.649E-03    0.920E-03
DAV:   3    -0.842429096931E+03   -0.50227E-06   -0.14197E-06  3360   0.269E-03
  67 F= -.85018012E+03 E0= -.85018012E+03  d E =-.542634E-04  mag=     0.0000
       N       E                     dE             d eps       ncg     rms          rms(c)
DAV:   1    -0.842429150817E+03   -0.54388E-04   -0.18411E-03  4300   0.724E-02    0.108E-02
DAV:   2    -0.842429151803E+03   -0.98636E-06   -0.22228E-05  4600   0.806E-03    0.907E-03
DAV:   3    -0.842429152070E+03   -0.26617E-06   -0.89303E-07  3880   0.218E-03
  68 F= -.85018019E+03 E0= -.85018019E+03  d E =-.668141E-04  mag=     0.0000
       N       E                     dE             d eps       ncg     rms          rms(c)
DAV:   1    -0.842429219711E+03   -0.67908E-04   -0.26729E-03  4260   0.857E-02    0.129E-02
DAV:   2    -0.842429221032E+03   -0.13211E-05   -0.32555E-05  4580   0.948E-03    0.108E-02
DAV:   3    -0.842429221323E+03   -0.29069E-06   -0.12739E-06  3900   0.252E-03
  69 F= -.85018027E+03 E0= -.85018027E+03  d E =-.823140E-04  mag=     0.0000
       N       E                     dE             d eps       ncg     rms          rms(c)
DAV:   1    -0.842429313192E+03   -0.92160E-04   -0.43832E-03  4290   0.109E-01    0.163E-02
DAV:   2    -0.842429315325E+03   -0.21332E-05   -0.53738E-05  4600   0.121E-02    0.137E-02
DAV:   3    -0.842429315730E+03   -0.40557E-06   -0.21290E-06  4200   0.318E-03
  70 F= -.85018038E+03 E0= -.85018038E+03  d E =-.109475E-03  mag=     0.0000
       N       E                     dE             d eps       ncg     rms          rms(c)
DAV:   1    -0.842429438060E+03   -0.12274E-03   -0.65048E-03  4260   0.133E-01    0.200E-02
DAV:   2    -0.842429441206E+03   -0.31457E-05   -0.76811E-05  4640   0.147E-02    0.168E-02
DAV:   3    -0.842429441999E+03   -0.79310E-06   -0.34347E-06  4440   0.401E-03
  71 F= -.85018052E+03 E0= -.85018052E+03  d E =-.142584E-03  mag=     0.0000
       N       E                     dE             d eps       ncg     rms          rms(c)
DAV:   1    -0.842429607258E+03   -0.16605E-03   -0.90737E-03  4280   0.158E-01    0.237E-02
DAV:   2    -0.842429611665E+03   -0.44073E-05   -0.99272E-05  4640   0.171E-02    0.200E-02
DAV:   3    -0.842429613144E+03   -0.14790E-05   -0.52546E-06  4540   0.503E-03    0.111E-02
DAV:   4    -0.842429616225E+03   -0.30810E-05   -0.44106E-06  4280   0.381E-03    0.285E-03
DAV:   5    -0.842429616075E+03    0.14994E-06   -0.98744E-07  3740   0.193E-03
  72 F= -.85018072E+03 E0= -.85018072E+03  d E =-.191024E-03  mag=     0.0000
       N       E                     dE             d eps       ncg     rms          rms(c)
DAV:   1    -0.842429842855E+03   -0.22663E-03   -0.12672E-02  4260   0.188E-01    0.268E-02
DAV:   2    -0.842429849908E+03   -0.70522E-05   -0.14030E-04  4640   0.208E-02    0.230E-02
DAV:   3    -0.842429849550E+03    0.35773E-06   -0.88342E-06  4880   0.654E-03
  73 F= -.85018097E+03 E0= -.85018096E+03  d E =-.249453E-03  mag=     0.0000
       N       E                     dE             d eps       ncg     rms          rms(c)
DAV:   1    -0.842430152099E+03   -0.30219E-03   -0.17907E-02  4260   0.222E-01    0.332E-02
DAV:   2    -0.842430162413E+03   -0.10315E-04   -0.17708E-04  4760   0.234E-02    0.282E-02
DAV:   3    -0.842430165016E+03   -0.26025E-05   -0.11360E-05  4610   0.730E-03    0.146E-02
DAV:   4    -0.842430169512E+03   -0.44959E-05   -0.76696E-06  4480   0.502E-03    0.394E-03
DAV:   5    -0.842430169160E+03    0.35141E-06   -0.17483E-06  4200   0.260E-03
  74 F= -.85018130E+03 E0= -.85018130E+03  d E =-.333604E-03  mag=     0.0000
       N       E                     dE             d eps       ncg     rms          rms(c)
DAV:   1    -0.842430576547E+03   -0.40703E-03   -0.25957E-02  4260   0.261E-01    0.366E-02
DAV:   2    -0.842430592340E+03   -0.15793E-04   -0.26719E-04  4820   0.283E-02    0.315E-02
DAV:   3    -0.842430591099E+03    0.12404E-05   -0.15591E-05  5020   0.833E-03    0.186E-02
DAV:   4    -0.842430596694E+03   -0.55943E-05   -0.13538E-05  4500   0.678E-03    0.505E-03
DAV:   5    -0.842430596392E+03    0.30153E-06   -0.37363E-06  4280   0.355E-03
  75 F= -.85018173E+03 E0= -.85018173E+03  d E =-.434440E-03  mag=     0.0000
       N       E                     dE             d eps       ncg     rms          rms(c)
DAV:   1    -0.842431135225E+03   -0.53853E-03   -0.37868E-02  4260   0.307E-01    0.432E-02
DAV:   2    -0.842431159701E+03   -0.24476E-04   -0.38882E-04  4820   0.331E-02    0.372E-02
DAV:   3    -0.842431157853E+03    0.18477E-05   -0.19445E-05  5120   0.903E-03    0.236E-02
DAV:   4    -0.842431166094E+03   -0.82406E-05   -0.19982E-05  4450   0.827E-03    0.575E-03
DAV:   5    -0.842431165886E+03    0.20752E-06   -0.53476E-06  4400   0.403E-03
  76 F= -.85018230E+03 E0= -.85018230E+03  d E =-.563402E-03  mag=     0.0000
       N       E                     dE             d eps       ncg     rms          rms(c)
DAV:   1    -0.842431856202E+03   -0.69011E-03   -0.59831E-02  4260   0.367E-01    0.531E-02
DAV:   2    -0.842431898075E+03   -0.41873E-04   -0.66583E-04  4720   0.399E-02    0.454E-02
DAV:   3    -0.842431893544E+03    0.45307E-05   -0.24266E-05  5260   0.966E-03    0.319E-02
DAV:   4    -0.842431911042E+03   -0.17499E-04   -0.36360E-05  4310   0.108E-02    0.671E-03
DAV:   5    -0.842431911174E+03   -0.13181E-06   -0.81586E-06  4570   0.470E-03
  77 F= -.85018301E+03 E0= -.85018301E+03  d E =-.718358E-03  mag=    -0.0000
       N       E                     dE             d eps       ncg     rms          rms(c)
DAV:   1    -0.842432741455E+03   -0.83041E-03   -0.97698E-02  4260   0.446E-01    0.674E-02
DAV:   2    -0.842432815821E+03   -0.74366E-04   -0.12006E-03  4660   0.488E-02    0.573E-02
DAV:   3    -0.842432805973E+03    0.98480E-05   -0.33274E-05  5240   0.108E-02    0.422E-02
DAV:   4    -0.842432842591E+03   -0.36618E-04   -0.67812E-05  4310   0.139E-02    0.825E-03
DAV:   5    -0.842432843124E+03   -0.53337E-06   -0.13196E-05  4680   0.568E-03    0.596E-03
DAV:   6    -0.842432842906E+03    0.21794E-06   -0.22637E-06  3520   0.271E-03
  78 F= -.85018390E+03 E0= -.85018390E+03  d E =-.887482E-03  mag=     0.0000
       N       E                     dE             d eps       ncg     rms          rms(c)
DAV:   1    -0.842433860652E+03   -0.10175E-02   -0.14912E-01  4240   0.536E-01    0.840E-02
DAV:   2    -0.842433975153E+03   -0.11450E-03   -0.18326E-03  4630   0.586E-02    0.715E-02
DAV:   3    -0.842433959578E+03    0.15575E-04   -0.49131E-05  5240   0.130E-02    0.527E-02
DAV:   4    -0.842434011326E+03   -0.51747E-04   -0.10544E-04  4330   0.168E-02    0.993E-03
DAV:   5    -0.842434012137E+03   -0.81147E-06   -0.19987E-05  4720   0.683E-03    0.738E-03
DAV:   6    -0.842434011871E+03    0.26665E-06   -0.33051E-06  3760   0.323E-03
  79 F= -.85018501E+03 E0= -.85018500E+03  d E =-.110263E-02  mag=     0.0000
       N       E                     dE             d eps       ncg     rms          rms(c)
DAV:   1    -0.842435185397E+03   -0.11733E-02   -0.24254E-01  4240   0.665E-01    0.106E-01
DAV:   2    -0.842435402879E+03   -0.21748E-03   -0.31887E-03  4600   0.734E-02    0.905E-02
DAV:   3    -0.842435373891E+03    0.28988E-04   -0.73524E-05  5220   0.153E-02    0.679E-02
DAV:   4    -0.842435446360E+03   -0.72469E-04   -0.19102E-04  4350   0.215E-02    0.126E-02
DAV:   5    -0.842435447715E+03   -0.13551E-05   -0.33851E-05  4700   0.843E-03    0.966E-03
DAV:   6    -0.842435447879E+03   -0.16474E-06   -0.56998E-06  3960   0.411E-03
  80 F= -.85018634E+03 E0= -.85018634E+03  d E =-.133452E-02  mag=     0.0000
       N       E                     dE             d eps       ncg     rms          rms(c)
DAV:   1    -0.842436811146E+03   -0.13634E-02   -0.32778E-01  4240   0.787E-01    0.126E-01
DAV:   2    -0.842437097285E+03   -0.28614E-03   -0.40859E-03  4620   0.862E-02    0.107E-01
DAV:   3    -0.842437064236E+03    0.33049E-04   -0.10478E-04  5240   0.187E-02    0.790E-02
DAV:   4    -0.842437151425E+03   -0.87189E-04   -0.23900E-04  4470   0.249E-02    0.146E-02
DAV:   5    -0.842437152083E+03   -0.65814E-06   -0.44161E-05  4660   0.101E-02    0.109E-02
DAV:   6    -0.842437151960E+03    0.12335E-06   -0.76686E-06  4060   0.488E-03
  81 F= -.85018794E+03 E0= -.85018794E+03  d E =-.159665E-02  mag=     0.0000
       N       E                     dE             d eps       ncg     rms          rms(c)
DAV:   1    -0.842438593912E+03   -0.14418E-02   -0.49748E-01  4240   0.977E-01    0.152E-01
DAV:   2    -0.842439103818E+03   -0.50991E-03   -0.68054E-03  4600   0.110E-01    0.129E-01
DAV:   3    -0.842439044172E+03    0.59646E-04   -0.16291E-04  5240   0.233E-02    0.977E-02
DAV:   4    -0.842439147444E+03   -0.10327E-03   -0.40273E-04  4530   0.323E-02    0.192E-02
DAV:   5    -0.842439152573E+03   -0.51291E-05   -0.74268E-05  4680   0.127E-02    0.142E-02
DAV:   6    -0.842439153332E+03   -0.75876E-06   -0.12115E-05  4160   0.608E-03    0.625E-03
DAV:   7    -0.842439153307E+03    0.24695E-07   -0.37104E-06  4280   0.304E-03
  82 F= -.85018981E+03 E0= -.85018981E+03  d E =-.187825E-02  mag=     0.0000
       N       E                     dE             d eps       ncg     rms          rms(c)
DAV:   1    -0.842440568538E+03   -0.14152E-02   -0.55139E-01  4240   0.115E+00    0.169E-01
DAV:   2    -0.842441008408E+03   -0.43987E-03   -0.62925E-03  4800   0.129E-01    0.146E-01
DAV:   3    -0.842440949340E+03    0.59069E-04   -0.27930E-04  5240   0.333E-02    0.998E-02
DAV:   4    -0.842441040877E+03   -0.91538E-04   -0.33427E-04  4520   0.349E-02    0.245E-02
DAV:   5    -0.842441041517E+03   -0.63967E-06   -0.82986E-05  4800   0.161E-02    0.142E-02
DAV:   6    -0.842441041415E+03    0.10202E-06   -0.14979E-05  4600   0.685E-03    0.744E-03
DAV:   7    -0.842441041079E+03    0.33596E-06   -0.16912E-06  4020   0.270E-03
  83 F= -.85019162E+03 E0= -.85019162E+03  d E =-.180572E-02  mag=     0.0000
       N       E                     dE             d eps       ncg     rms          rms(c)
DAV:   1    -0.842437799297E+03    0.32421E-02   -0.14975E+00  4240   0.191E+00    0.254E-01
DAV:   2    -0.842440174672E+03   -0.23754E-02   -0.29703E-02  4780   0.245E-01    0.223E-01
DAV:   3    -0.842439821589E+03    0.35308E-03   -0.68108E-04  5360   0.478E-02    0.181E-01
DAV:   4    -0.842439734276E+03    0.87313E-04   -0.14997E-03  4630   0.700E-02    0.527E-02
DAV:   5    -0.842439803267E+03   -0.68991E-04   -0.33641E-04  4680   0.271E-02    0.299E-02
DAV:   6    -0.842439827331E+03   -0.24065E-04   -0.42116E-05  4400   0.115E-02    0.121E-02
DAV:   7    -0.842439827953E+03   -0.62137E-06   -0.60890E-06  4720   0.459E-03
  84 F= -.85019023E+03 E0= -.85019023E+03  d E =0.138914E-02  mag=     0.0000
       N       E                     dE             d eps       ncg     rms          rms(c)
DAV:   1    -0.842443789918E+03   -0.39626E-02   -0.30070E-01  4520   0.101E+00    0.121E-01
DAV:   2    -0.842444406281E+03   -0.61636E-03   -0.86995E-03  4480   0.147E-01    0.113E-01
DAV:   3    -0.842444289537E+03    0.11674E-03   -0.22035E-04  5440   0.273E-02    0.941E-02
DAV:   4    -0.842444168483E+03    0.12105E-03   -0.32572E-04  4450   0.357E-02    0.386E-02
DAV:   5    -0.842444193636E+03   -0.25152E-04   -0.12249E-04  4760   0.177E-02    0.152E-02
DAV:   6    -0.842444203034E+03   -0.93985E-05   -0.11402E-05  4320   0.583E-03    0.562E-03
DAV:   7    -0.842444203859E+03   -0.82446E-06   -0.76008E-07  3240   0.204E-03
  85 F= -.85019467E+03 E0= -.85019466E+03  d E =-.443460E-02  mag=     0.0000
       N       E                     dE             d eps       ncg     rms          rms(c)
DAV:   1    -0.842444258483E+03   -0.55449E-04   -0.38536E-04  4520   0.349E-02    0.442E-03
DAV:   2    -0.842444259002E+03   -0.51846E-06   -0.95615E-06  4460   0.485E-03
  86 F= -.85019472E+03 E0= -.85019472E+03  d E =-.530085E-04  mag=     0.0000
       N       E                     dE             d eps       ncg     rms          rms(c)
DAV:   1    -0.842444325297E+03   -0.66814E-04   -0.11299E-03  4500   0.609E-02    0.103E-02
DAV:   2    -0.842444326486E+03   -0.11886E-05   -0.30462E-05  4780   0.859E-03    0.924E-03
DAV:   3    -0.842444325636E+03    0.84997E-06   -0.11823E-06  3740   0.219E-03
  87 F= -.85019478E+03 E0= -.85019478E+03  d E =-.645361E-04  mag=     0.0000
       N       E                     dE             d eps       ncg     rms          rms(c)
DAV:   1    -0.842444363475E+03   -0.36989E-04   -0.14436E-03  4420   0.698E-02    0.107E-02
DAV:   2    -0.842444365648E+03   -0.21731E-05   -0.32480E-05  4900   0.913E-03    0.921E-03
DAV:   3    -0.842444365117E+03    0.53120E-06   -0.10251E-06  3820   0.208E-03
  88 F= -.85019482E+03 E0= -.85019482E+03  d E =-.403215E-04  mag=     0.0000
       N       E                     dE             d eps       ncg     rms          rms(c)
DAV:   1    -0.842444387259E+03   -0.21611E-04   -0.14951E-03  4260   0.683E-02    0.109E-02
DAV:   2    -0.842444388914E+03   -0.16547E-05   -0.25811E-05  4820   0.824E-03    0.884E-03
DAV:   3    -0.842444388709E+03    0.20453E-06   -0.93395E-07  3820   0.207E-03
  89 F= -.85019485E+03 E0= -.85019485E+03  d E =-.284622E-04  mag=     0.0000
       N       E                     dE             d eps       ncg     rms          rms(c)
DAV:   1    -0.842444434760E+03   -0.45846E-04   -0.19445E-03  4260   0.709E-02    0.116E-02
DAV:   2    -0.842444435641E+03   -0.88177E-06   -0.27490E-05  4480   0.791E-03    0.925E-03
DAV:   3    -0.842444435717E+03   -0.75430E-07   -0.75903E-07  3860   0.186E-03
  90 F= -.85019491E+03 E0= -.85019491E+03  d E =-.561820E-04  mag=     0.0000
       N       E                     dE             d eps       ncg     rms          rms(c)
DAV:   1    -0.842444516635E+03   -0.80994E-04   -0.31587E-03  4260   0.881E-02    0.136E-02
DAV:   2    -0.842444517888E+03   -0.12534E-05   -0.49430E-05  4520   0.102E-02    0.111E-02
DAV:   3    -0.842444517550E+03    0.33836E-06   -0.11106E-06  3940   0.216E-03
  91 F= -.85019500E+03 E0= -.85019500E+03  d E =-.947742E-04  mag=     0.0000
       N       E                     dE             d eps       ncg     rms          rms(c)
DAV:   1    -0.842444616490E+03   -0.98601E-04   -0.57789E-03  4240   0.120E-01    0.181E-02
DAV:   2    -0.842444619132E+03   -0.26420E-05   -0.97352E-05  4540   0.143E-02    0.151E-02
DAV:   3    -0.842444618072E+03    0.10594E-05   -0.22407E-06  4160   0.297E-03    0.112E-02
DAV:   4    -0.842444623762E+03   -0.56893E-05   -0.58647E-06  3880   0.425E-03    0.248E-03
DAV:   5    -0.842444623845E+03   -0.82997E-07   -0.10646E-06  3280   0.167E-03
  92 F= -.85019513E+03 E0= -.85019513E+03  d E =-.123366E-03  mag=     0.0000
       N       E                     dE             d eps       ncg     rms          rms(c)
DAV:   1    -0.842444716162E+03   -0.92401E-04   -0.80123E-03  4260   0.142E-01    0.209E-02
DAV:   2    -0.842444721418E+03   -0.52557E-05   -0.13748E-04  4450   0.173E-02    0.176E-02
DAV:   3    -0.842444719203E+03    0.22150E-05   -0.33760E-06  4480   0.368E-03    0.131E-02
DAV:   4    -0.842444725348E+03   -0.61449E-05   -0.88913E-06  3940   0.527E-03    0.333E-03
DAV:   5    -0.842444725486E+03   -0.13851E-06   -0.16308E-06  3440   0.215E-03
  93 F= -.85019525E+03 E0= -.85019525E+03  d E =-.120409E-03  mag=    -0.0000
       N       E                     dE             d eps       ncg     rms          rms(c)
DAV:   1    -0.842444870455E+03   -0.14511E-03   -0.84776E-03  4260   0.146E-01    0.225E-02
DAV:   2    -0.842444875121E+03   -0.46660E-05   -0.11629E-04  4450   0.168E-02    0.185E-02
DAV:   3    -0.842444874369E+03    0.75199E-06   -0.37647E-06  4620   0.408E-03
  94 F= -.85019541E+03 E0= -.85019541E+03  d E =-.164500E-03  mag=    -0.0000
       N       E                     dE             d eps       ncg     rms          rms(c)
DAV:   1    -0.842445110415E+03   -0.23529E-03   -0.10817E-02  4260   0.171E-01    0.272E-02
DAV:   2    -0.842445118097E+03   -0.76818E-05   -0.13835E-04  4680   0.191E-02    0.219E-02
DAV:   3    -0.842445119004E+03   -0.90696E-06   -0.57382E-06  4840   0.495E-03
  95 F= -.85019566E+03 E0= -.85019566E+03  d E =-.253707E-03  mag=    -0.0000
       N       E                     dE             d eps       ncg     rms          rms(c)
DAV:   1    -0.842445393004E+03   -0.27491E-03   -0.16520E-02  4260   0.206E-01    0.322E-02
DAV:   2    -0.842445408794E+03   -0.15790E-04   -0.22388E-04  4800   0.233E-02    0.259E-02
DAV:   3    -0.842445408883E+03   -0.88578E-07   -0.74695E-06  5000   0.554E-03
  96 F= -.85019596E+03 E0= -.85019596E+03  d E =-.292260E-03  mag=    -0.0000
       N       E                     dE             d eps       ncg     rms          rms(c)
DAV:   1    -0.842445785916E+03   -0.37712E-03   -0.21234E-02  4260   0.225E-01    0.364E-02
DAV:   2    -0.842445802585E+03   -0.16668E-04   -0.24429E-04  4840   0.242E-02    0.292E-02
DAV:   3    -0.842445804262E+03   -0.16772E-05   -0.89594E-06  5020   0.616E-03    0.185E-02
DAV:   4    -0.842445810372E+03   -0.61103E-05   -0.93131E-06  4270   0.560E-03    0.378E-03
DAV:   5    -0.842445810319E+03    0.53609E-07   -0.20289E-06  4000   0.255E-03
  97 F= -.85019636E+03 E0= -.85019636E+03  d E =-.401429E-03  mag=    -0.0000
       N       E                     dE             d eps       ncg     rms          rms(c)
DAV:   1    -0.842446297611E+03   -0.48724E-03   -0.29651E-02  4240   0.271E-01    0.409E-02
DAV:   2    -0.842446322669E+03   -0.25058E-04   -0.36135E-04  4820   0.308E-02    0.342E-02
DAV:   3    -0.842446321230E+03    0.14394E-05   -0.14586E-05  5180   0.787E-03    0.228E-02
DAV:   4    -0.842446327974E+03   -0.67445E-05   -0.16897E-05  4390   0.785E-03    0.548E-03
DAV:   5    -0.842446327883E+03    0.90993E-07   -0.40749E-06  4260   0.370E-03
  98 F= -.85019687E+03 E0= -.85019687E+03  d E =-.511921E-03  mag=    -0.0000
       N       E                     dE             d eps       ncg     rms          rms(c)
DAV:   1    -0.842446939519E+03   -0.61154E-03   -0.48195E-02  4240   0.319E-01    0.508E-02
DAV:   2    -0.842446977579E+03   -0.38060E-04   -0.59664E-04  4620   0.354E-02    0.423E-02
DAV:   3    -0.842446975151E+03    0.24282E-05   -0.17619E-05  5240   0.824E-03    0.298E-02
DAV:   4    -0.842446993351E+03   -0.18201E-04   -0.30593E-05  4210   0.958E-03    0.615E-03
DAV:   5    -0.842446993204E+03    0.14797E-06   -0.64344E-06  4620   0.430E-03
  99 F= -.85019751E+03 E0= -.85019751E+03  d E =-.635868E-03  mag=    -0.0000
       N       E                     dE             d eps       ncg     rms          rms(c)
DAV:   1    -0.842447719660E+03   -0.72631E-03   -0.94954E-02  4240   0.425E-01    0.681E-02
DAV:   2    -0.842447812644E+03   -0.92985E-04   -0.14263E-03  4480   0.488E-02    0.570E-02
DAV:   3    -0.842447800872E+03    0.11772E-04   -0.29960E-05  5280   0.999E-03    0.432E-02
DAV:   4    -0.842447840925E+03   -0.40053E-04   -0.78690E-05  4280   0.141E-02    0.855E-03
DAV:   5    -0.842447841758E+03   -0.83297E-06   -0.14068E-05  4730   0.556E-03    0.626E-03
DAV:   6    -0.842447842135E+03   -0.37711E-06   -0.23821E-06  3550   0.267E-03
 100 F= -.85019830E+03 E0= -.85019830E+03  d E =-.791350E-03  mag=    -0.0000
       N       E                     dE             d eps       ncg     rms          rms(c)
DAV:   1    -0.842448756177E+03   -0.91442E-03   -0.12956E-01  4240   0.496E-01    0.823E-02
DAV:   2    -0.842448869742E+03   -0.11357E-03   -0.17304E-03  4540   0.555E-02    0.688E-02
DAV:   3    -0.842448857934E+03    0.11808E-04   -0.41137E-05  5220   0.120E-02    0.502E-02
DAV:   4    -0.842448905052E+03   -0.47118E-04   -0.91773E-05  4310   0.157E-02    0.909E-03
DAV:   5    -0.842448905015E+03    0.36787E-07   -0.17408E-05  4760   0.654E-03    0.675E-03
DAV:   6    -0.842448905114E+03   -0.99011E-07   -0.27901E-06  3720   0.296E-03
 101 F= -.85019929E+03 E0= -.85019929E+03  d E =-.992905E-03  mag=    -0.0000
       N       E                     dE             d eps       ncg     rms          rms(c)
DAV:   1    -0.842449963136E+03   -0.10581E-02   -0.19447E-01  4240   0.609E-01    0.101E-01
DAV:   2    -0.842450140313E+03   -0.17718E-03   -0.25415E-03  4600   0.676E-02    0.843E-02
DAV:   3    -0.842450122342E+03    0.17971E-04   -0.62250E-05  5220   0.148E-02    0.613E-02
DAV:   4    -0.842450181082E+03   -0.58739E-04   -0.13592E-04  4370   0.192E-02    0.112E-02
DAV:   5    -0.842450180802E+03    0.27980E-06   -0.26101E-05  4760   0.810E-03    0.821E-03
DAV:   6    -0.842450180974E+03   -0.17171E-06   -0.41930E-06  3960   0.365E-03
 102 F= -.85020048E+03 E0= -.85020048E+03  d E =-.119380E-02  mag=    -0.0000
       N       E                     dE             d eps       ncg     rms          rms(c)
DAV:   1    -0.842451253068E+03   -0.10723E-02   -0.33131E-01  4240   0.785E-01    0.125E-01
DAV:   2    -0.842451632135E+03   -0.37907E-03   -0.49728E-03  4500   0.893E-02    0.105E-01
DAV:   3    -0.842451587904E+03    0.44231E-04   -0.10157E-04  5240   0.181E-02    0.798E-02
DAV:   4    -0.842451659313E+03   -0.71409E-04   -0.28910E-04  4350   0.266E-02    0.155E-02
DAV:   5    -0.842451662198E+03   -0.28843E-05   -0.51100E-05  4760   0.104E-02    0.116E-02
DAV:   6    -0.842451663937E+03   -0.17388E-05   -0.82091E-06  3980   0.492E-03    0.508E-03
DAV:   7    -0.842451664027E+03   -0.90644E-07   -0.23309E-06  3920   0.238E-03
 103 F= -.85020186E+03 E0= -.85020186E+03  d E =-.137713E-02  mag=     0.0000
       N       E                     dE             d eps       ncg     rms          rms(c)
DAV:   1    -0.842452754789E+03   -0.10909E-02   -0.34475E-01  4240   0.894E-01    0.136E-01
DAV:   2    -0.842453060150E+03   -0.30536E-03   -0.42046E-03  4800   0.101E-01    0.115E-01
DAV:   3    -0.842453025967E+03    0.34183E-04   -0.15844E-04  5240   0.248E-02    0.803E-02
DAV:   4    -0.842453079163E+03   -0.53196E-04   -0.20432E-04  4470   0.271E-02    0.179E-02
DAV:   5    -0.842453080086E+03   -0.92277E-06   -0.48582E-05  4820   0.121E-02    0.112E-02
DAV:   6    -0.842453079218E+03    0.86813E-06   -0.91971E-06  4720   0.554E-03
 104 F= -.85020323E+03 E0= -.85020323E+03  d E =-.136438E-02  mag=    -0.0000
       N       E                     dE             d eps       ncg     rms          rms(c)
DAV:   1    -0.842452220717E+03    0.85937E-03   -0.89498E-01  4240   0.139E+00    0.196E-01
DAV:   2    -0.842453628032E+03   -0.14073E-02   -0.17288E-02  4700   0.172E-01    0.168E-01
DAV:   3    -0.842453450729E+03    0.17730E-03   -0.32829E-04  5360   0.323E-02    0.135E-01
DAV:   4    -0.842453433194E+03    0.17535E-04   -0.92500E-04  4520   0.518E-02    0.329E-02
DAV:   5    -0.842453464766E+03   -0.31573E-04   -0.18760E-04  4860   0.192E-02    0.211E-02
DAV:   6    -0.842453475470E+03   -0.10704E-04   -0.23822E-05  4340   0.854E-03    0.890E-03
DAV:   7    -0.842453476194E+03   -0.72360E-06   -0.43269E-06  4380   0.360E-03
 105 F= -.85020350E+03 E0= -.85020350E+03  d E =-.277692E-03  mag=    -0.0000
       N       E                     dE             d eps       ncg     rms          rms(c)
DAV:   1    -0.842455168088E+03   -0.16926E-02   -0.11340E-01  4475   0.570E-01    0.720E-02
DAV:   2    -0.842455396504E+03   -0.22842E-03   -0.32988E-03  4490   0.806E-02    0.685E-02
DAV:   3    -0.842455351284E+03    0.45220E-04   -0.59942E-05  5360   0.140E-02    0.589E-02
DAV:   4    -0.842455321332E+03    0.29951E-04   -0.13637E-04  4450   0.214E-02    0.219E-02
DAV:   5    -0.842455335059E+03   -0.13726E-04   -0.49654E-05  4700   0.101E-02    0.890E-03
DAV:   6    -0.842455339947E+03   -0.48888E-05   -0.45771E-06  4020   0.357E-03    0.359E-03
DAV:   7    -0.842455341062E+03   -0.11151E-05   -0.38266E-07  2900   0.137E-03    0.216E-03
DAV:   8    -0.842455341025E+03    0.36984E-07   -0.30479E-07  3480   0.102E-03
 106 F= -.85020542E+03 E0= -.85020542E+03  d E =-.191477E-02  mag=    -0.0000
       N       E                     dE             d eps       ncg     rms          rms(c)
DAV:   1    -0.842455349838E+03   -0.87756E-05   -0.67239E-05  4320   0.142E-02    0.212E-03
DAV:   2    -0.842455349876E+03   -0.38381E-07   -0.10834E-06  3200   0.177E-03
 107 F= -.85020543E+03 E0= -.85020543E+03  d E =-.103969E-04  mag=    -0.0000
       N       E                     dE             d eps       ncg     rms          rms(c)
DAV:   1    -0.842455364697E+03   -0.14859E-04   -0.25803E-04  4380   0.274E-02    0.496E-03
DAV:   2    -0.842455364723E+03   -0.25982E-07   -0.40099E-06  3820   0.328E-03
 108 F= -.85020545E+03 E0= -.85020545E+03  d E =-.181825E-04  mag=    -0.0000
       N       E                     dE             d eps       ncg     rms          rms(c)
DAV:   1    -0.842455383445E+03   -0.18748E-04   -0.56245E-04  4300   0.395E-02    0.804E-03
DAV:   2    -0.842455383290E+03    0.15527E-06   -0.82719E-06  4440   0.457E-03
 109 F= -.85020547E+03 E0= -.85020547E+03  d E =-.239411E-04  mag=    -0.0000
       N       E                     dE             d eps       ncg     rms          rms(c)
DAV:   1    -0.842455404637E+03   -0.21191E-04   -0.97998E-04  4280   0.508E-02    0.110E-02
DAV:   2    -0.842455404035E+03    0.60118E-06   -0.13884E-05  4440   0.574E-03    0.890E-03
DAV:   3    -0.842455404824E+03   -0.78876E-06   -0.82984E-07  3190   0.194E-03
 110 F= -.85020550E+03 E0= -.85020550E+03  d E =-.293924E-04  mag=    -0.0000
       N       E                     dE             d eps       ncg     rms          rms(c)
DAV:   1    -0.842455429647E+03   -0.25611E-04   -0.15451E-03  4280   0.622E-02    0.988E-03
DAV:   2    -0.842455429934E+03   -0.28728E-06   -0.21952E-05  4500   0.691E-03    0.793E-03
DAV:   3    -0.842455430035E+03   -0.10067E-06   -0.45912E-07  3840   0.144E-03
 111 F= -.85020554E+03 E0= -.85020554E+03  d E =-.357208E-04  mag=    -0.0000
       N       E                     dE             d eps       ncg     rms          rms(c)
DAV:   1    -0.842455459760E+03   -0.29825E-04   -0.23059E-03  4260   0.747E-02    0.118E-02
DAV:   2    -0.842455460170E+03   -0.41044E-06   -0.33205E-05  4460   0.833E-03    0.953E-03
DAV:   3    -0.842455460165E+03    0.47658E-08   -0.70326E-07  3920   0.173E-03
 112 F= -.85020558E+03 E0= -.85020558E+03  d E =-.433672E-04  mag=     0.0000
       N       E                     dE             d eps       ncg     rms          rms(c)
DAV:   1    -0.842455496400E+03   -0.36231E-04   -0.40757E-03  4260   0.983E-02    0.156E-02
DAV:   2    -0.842455497153E+03   -0.75223E-06   -0.59434E-05  4440   0.110E-02    0.127E-02
DAV:   3    -0.842455497009E+03    0.14366E-06   -0.12623E-06  4060   0.228E-03
 113 F= -.85020563E+03 E0= -.85020563E+03  d E =-.547370E-04  mag=     0.0000
       N       E                     dE             d eps       ncg     rms          rms(c)
DAV:   1    -0.842455536080E+03   -0.38927E-04   -0.67750E-03  4280   0.127E-01    0.202E-02
DAV:   2    -0.842455536869E+03   -0.78863E-06   -0.97265E-05  4440   0.142E-02    0.164E-02
DAV:   3    -0.842455536829E+03    0.40178E-07   -0.21668E-06  4360   0.295E-03
 114 F= -.85020570E+03 E0= -.85020570E+03  d E =-.633008E-04  mag=    -0.0000
       N       E                     dE             d eps       ncg     rms          rms(c)
DAV:   1    -0.842455583083E+03   -0.46214E-04   -0.10930E-02  4260   0.161E-01    0.258E-02
DAV:   2    -0.842455584571E+03   -0.14880E-05   -0.15495E-04  4400   0.180E-02    0.210E-02
DAV:   3    -0.842455584338E+03    0.23285E-06   -0.36031E-06  4580   0.378E-03
 115 F= -.85020577E+03 E0= -.85020577E+03  d E =-.774590E-04  mag=     0.0000
       N       E                     dE             d eps       ncg     rms          rms(c)
DAV:   1    -0.842455642668E+03   -0.58097E-04   -0.17259E-02  4260   0.203E-01    0.327E-02
DAV:   2    -0.842455646944E+03   -0.42766E-05   -0.24119E-04  4380   0.226E-02    0.266E-02
DAV:   3    -0.842455646504E+03    0.44034E-06   -0.58533E-06  4820   0.481E-03
 116 F= -.85020587E+03 E0= -.85020587E+03  d E =-.998817E-04  mag=     0.0000
       N       E                     dE             d eps       ncg     rms          rms(c)
DAV:   1    -0.842455730285E+03   -0.83341E-04   -0.25677E-02  4260   0.248E-01    0.400E-02
DAV:   2    -0.842455739563E+03   -0.92774E-05   -0.35684E-04  4420   0.277E-02    0.324E-02
DAV:   3    -0.842455738968E+03    0.59445E-06   -0.89836E-06  5060   0.593E-03
 117 F= -.85020601E+03 E0= -.85020601E+03  d E =-.135968E-03  mag=    -0.0000
       N       E                     dE             d eps       ncg     rms          rms(c)
DAV:   1    -0.842455868859E+03   -0.12930E-03   -0.35025E-02  4260   0.291E-01    0.464E-02
DAV:   2    -0.842455884300E+03   -0.15442E-04   -0.47857E-04  4420   0.324E-02    0.375E-02
DAV:   3    -0.842455883848E+03    0.45222E-06   -0.12835E-05  5180   0.706E-03    0.254E-02
DAV:   4    -0.842455907923E+03   -0.24075E-04   -0.20632E-05  4130   0.801E-03    0.480E-03
DAV:   5    -0.842455908121E+03   -0.19830E-06   -0.44924E-06  4340   0.347E-03
 118 F= -.85020623E+03 E0= -.85020623E+03  d E =-.215327E-03  mag=    -0.0000
       N       E                     dE             d eps       ncg     rms          rms(c)
DAV:   1    -0.842456110222E+03   -0.20230E-03   -0.42291E-02  4280   0.323E-01    0.486E-02
DAV:   2    -0.842456137726E+03   -0.27505E-04   -0.59853E-04  4440   0.371E-02    0.396E-02
DAV:   3    -0.842456132064E+03    0.56629E-05   -0.17196E-05  5180   0.828E-03    0.275E-02
DAV:   4    -0.842456152746E+03   -0.20682E-04   -0.30314E-05  4170   0.990E-03    0.605E-03
DAV:   5    -0.842456152918E+03   -0.17199E-06   -0.67392E-06  4540   0.435E-03
 119 F= -.85020651E+03 E0= -.85020651E+03  d E =-.287190E-03  mag=     0.0000
       N       E                     dE             d eps       ncg     rms          rms(c)
DAV:   1    -0.842456487212E+03   -0.33447E-03   -0.47468E-02  4260   0.339E-01    0.505E-02
DAV:   2    -0.842456524176E+03   -0.36964E-04   -0.62833E-04  4560   0.383E-02    0.410E-02
DAV:   3    -0.842456519688E+03    0.44886E-05   -0.19369E-05  5240   0.882E-03    0.283E-02
DAV:   4    -0.842456535635E+03   -0.15947E-04   -0.30900E-05  4230   0.101E-02    0.640E-03
DAV:   5    -0.842456535529E+03    0.10545E-06   -0.70323E-06  4600   0.454E-03
 120 F= -.85020692E+03 E0= -.85020692E+03  d E =-.410675E-03  mag=     0.0000
       N       E                     dE             d eps       ncg     rms          rms(c)
DAV:   1    -0.842457017304E+03   -0.48167E-03   -0.58823E-02  4260   0.362E-01    0.551E-02
DAV:   2    -0.842457069644E+03   -0.52340E-04   -0.74156E-04  4640   0.402E-02    0.446E-02
DAV:   3    -0.842457065614E+03    0.40298E-05   -0.21778E-05  5260   0.924E-03    0.311E-02
DAV:   4    -0.842457079738E+03   -0.14124E-04   -0.35269E-05  4330   0.106E-02    0.666E-03
DAV:   5    -0.842457079579E+03    0.15870E-06   -0.75389E-06  4700   0.461E-03
 121 F= -.85020747E+03 E0= -.85020747E+03  d E =-.544627E-03  mag=    -0.0000
       N       E                     dE             d eps       ncg     rms          rms(c)
DAV:   1    -0.842457713142E+03   -0.63340E-03   -0.89429E-02  4240   0.413E-01    0.674E-02
DAV:   2    -0.842457793669E+03   -0.80528E-04   -0.11828E-03  4540   0.459E-02    0.548E-02
DAV:   3    -0.842457786807E+03    0.68623E-05   -0.28564E-05  5280   0.101E-02    0.399E-02
DAV:   4    -0.842457816838E+03   -0.30032E-04   -0.58123E-05  4300   0.125E-02    0.760E-03
DAV:   5    -0.842457816914E+03   -0.75306E-07   -0.11059E-05  4740   0.522E-03    0.557E-03
DAV:   6    -0.842457816721E+03    0.19321E-06   -0.20978E-06  3720   0.258E-03
 122 F= -.85020817E+03 E0= -.85020817E+03  d E =-.698313E-03  mag=    -0.0000
       N       E                     dE             d eps       ncg     rms          rms(c)
DAV:   1    -0.842458617161E+03   -0.80025E-03   -0.15237E-01  4240   0.509E-01    0.882E-02
DAV:   2    -0.842458761851E+03   -0.14469E-03   -0.20910E-03  4520   0.563E-02    0.730E-02
DAV:   3    -0.842458746245E+03    0.15606E-04   -0.43666E-05  5200   0.119E-02    0.541E-02
DAV:   4    -0.842458794958E+03   -0.48714E-04   -0.11281E-04  4270   0.159E-02    0.950E-03
DAV:   5    -0.842458794953E+03    0.58571E-08   -0.19609E-05  4760   0.642E-03    0.734E-03
DAV:   6    -0.842458795209E+03   -0.25674E-06   -0.31310E-06  3660   0.300E-03
 123 F= -.85020907E+03 E0= -.85020907E+03  d E =-.899977E-03  mag=    -0.0000
       N       E                     dE             d eps       ncg     rms          rms(c)
DAV:   1    -0.842459756549E+03   -0.96160E-03   -0.27419E-01  4240   0.661E-01    0.118E-01
DAV:   2    -0.842460044411E+03   -0.28786E-03   -0.39470E-03  4460   0.737E-02    0.984E-02
DAV:   3    -0.842460008974E+03    0.35436E-04   -0.72067E-05  5180   0.149E-02    0.738E-02
DAV:   4    -0.842460080636E+03   -0.71662E-04   -0.22899E-04  4330   0.215E-02    0.128E-02
DAV:   5    -0.842460080772E+03   -0.13588E-06   -0.37689E-05  4740   0.852E-03    0.100E-02
DAV:   6    -0.842460083418E+03   -0.26461E-05   -0.57251E-06  3970   0.391E-03    0.449E-03
DAV:   7    -0.842460083487E+03   -0.68248E-07   -0.23078E-06  4080   0.206E-03
 124 F= -.85021023E+03 E0= -.85021023E+03  d E =-.116407E-02  mag=    -0.0000
       N       E                     dE             d eps       ncg     rms          rms(c)
DAV:   1    -0.842461171056E+03   -0.10876E-02   -0.44579E-01  4240   0.839E-01    0.150E-01
DAV:   2    -0.842461668160E+03   -0.49710E-03   -0.65407E-03  4440   0.941E-02    0.125E-01
DAV:   3    -0.842461604949E+03    0.63211E-04   -0.11523E-04  5180   0.186E-02    0.944E-02
DAV:   4    -0.842461693274E+03   -0.88326E-04   -0.38915E-04  4370   0.278E-02    0.165E-02
DAV:   5    -0.842461693099E+03    0.17511E-06   -0.63514E-05  4800   0.108E-02    0.130E-02
DAV:   6    -0.842461698599E+03   -0.54999E-05   -0.94624E-06  3990   0.503E-03    0.566E-03
DAV:   7    -0.842461698846E+03   -0.24728E-06   -0.35735E-06  4060   0.257E-03
 125 F= -.85021167E+03 E0= -.85021167E+03  d E =-.143679E-02  mag=    -0.0000
       N       E                     dE             d eps       ncg     rms          rms(c)
DAV:   1    -0.842462662226E+03   -0.96363E-03   -0.53968E-01  4240   0.993E-01    0.166E-01
DAV:   2    -0.842463236523E+03   -0.57430E-03   -0.75415E-03  4630   0.113E-01    0.140E-01
DAV:   3    -0.842463162096E+03    0.74426E-04   -0.16920E-04  5200   0.236E-02    0.104E-01
DAV:   4    -0.842463257251E+03   -0.95155E-04   -0.45093E-04  4380   0.344E-02    0.199E-02
DAV:   5    -0.842463256768E+03    0.48352E-06   -0.79236E-05  4760   0.140E-02    0.146E-02
DAV:   6    -0.842463261232E+03   -0.44641E-05   -0.14045E-05  4280   0.651E-03    0.653E-03
DAV:   7    -0.842463261275E+03   -0.43365E-07   -0.26579E-06  4040   0.270E-03
 126 F= -.85021307E+03 E0= -.85021307E+03  d E =-.140525E-02  mag=    -0.0000
       N       E                     dE             d eps       ncg     rms          rms(c)
DAV:   1    -0.842462437162E+03    0.82407E-03   -0.93151E-01  4240   0.147E+00    0.207E-01
DAV:   2    -0.842463705120E+03   -0.12680E-02   -0.16313E-02  4700   0.186E-01    0.175E-01
DAV:   3    -0.842463505295E+03    0.19982E-03   -0.42273E-04  5320   0.384E-02    0.136E-01
DAV:   4    -0.842463496254E+03    0.90410E-05   -0.82179E-04  4440   0.532E-02    0.363E-02
DAV:   5    -0.842463528175E+03   -0.31921E-04   -0.16811E-04  4820   0.210E-02    0.220E-02
DAV:   6    -0.842463538839E+03   -0.10665E-04   -0.25113E-05  4440   0.893E-03    0.101E-02
DAV:   7    -0.842463539883E+03   -0.10439E-05   -0.37029E-06  4460   0.372E-03    0.608E-03
[...]
DAV:   2    -0.842468990871E+03   -0.80443E-07   -0.13784E-05  4340   0.620E-03    0.597E-03
DAV:   3    -0.842468990712E+03    0.15856E-06   -0.38069E-07  3240   0.134E-03
 162 F= -.85021899E+03 E0= -.85021899E+03  d E =0.323038E-04  mag=     0.0000
       N       E                     dE             d eps       ncg     rms          rms(c)
DAV:   1    -0.842468949377E+03    0.41494E-04   -0.97624E-04  4260   0.497E-02    0.765E-03
DAV:   2    -0.842468948978E+03    0.39928E-06   -0.14942E-05  4260   0.579E-03    0.638E-03
DAV:   3    -0.842468948919E+03    0.59088E-07   -0.30806E-07  3300   0.118E-03
 163 F= -.85021896E+03 E0= -.85021896E+03  d E =0.310283E-04  mag=     0.0000
       N       E                     dE             d eps       ncg     rms          rms(c)
DAV:   1    -0.842468916911E+03    0.32066E-04   -0.14322E-03  4300   0.565E-02    0.908E-03
DAV:   2    -0.842468916093E+03    0.81857E-06   -0.21130E-05  4300   0.637E-03    0.751E-03
DAV:   3    -0.842468915993E+03    0.99462E-07   -0.36382E-07  3520   0.122E-03
 164 F= -.85021894E+03 E0= -.85021894E+03  d E =0.195126E-04  mag=     0.0000
       N       E                     dE             d eps       ncg     rms          rms(c)
DAV:   1    -0.842468892730E+03    0.23363E-04   -0.24314E-03  4280   0.759E-02    0.117E-02
DAV:   2    -0.842468891764E+03    0.96592E-06   -0.37866E-05  4300   0.883E-03    0.975E-03
DAV:   3    -0.842468891419E+03    0.34475E-06   -0.73144E-07  3800   0.174E-03
 165 F= -.85021894E+03 E0= -.85021893E+03  d E =0.765044E-05  mag=     0.0000
       N       E                     dE             d eps       ncg     rms          rms(c)
DAV:   1    -0.842468856407E+03    0.35356E-04   -0.42745E-03  4260   0.103E-01    0.155E-02
DAV:   2    -0.842468855791E+03    0.61579E-06   -0.69333E-05  4340   0.123E-02    0.130E-02
DAV:   3    -0.842468855061E+03    0.73068E-06   -0.14484E-06  3960   0.244E-03
 166 F= -.85021892E+03 E0= -.85021892E+03  d E =0.147285E-04  mag=     0.0000
       N       E                     dE             d eps       ncg     rms          rms(c)
DAV:   1    -0.842468778349E+03    0.77443E-04   -0.70939E-03  4280   0.131E-01    0.201E-02
DAV:   2    -0.842468778577E+03   -0.22836E-06   -0.11272E-04  4320   0.155E-02    0.169E-02
DAV:   3    -0.842468777550E+03    0.10270E-05   -0.24139E-06  4240   0.308E-03    0.122E-02
DAV:   4    -0.842468786626E+03   -0.90756E-05   -0.64720E-06  3870   0.455E-03    0.237E-03
DAV:   5    -0.842468786689E+03   -0.63737E-07   -0.11605E-06  3280   0.181E-03
 167 F= -.85021888E+03 E0= -.85021888E+03  d E =0.402830E-04  mag=    -0.0000
       N       E                     dE             d eps       ncg     rms          rms(c)
DAV:   1    -0.842468655022E+03    0.13160E-03   -0.11184E-02  4300   0.158E-01    0.246E-02
DAV:   2    -0.842468658566E+03   -0.35438E-05   -0.18533E-04  4280   0.189E-02    0.207E-02
DAV:   3    -0.842468655550E+03    0.30158E-05   -0.36218E-06  4420   0.371E-03    0.151E-02
DAV:   4    -0.842468666858E+03   -0.11307E-04   -0.11357E-05  3930   0.567E-03    0.304E-03
DAV:   5    -0.842468666988E+03   -0.13077E-06   -0.20440E-06  3600   0.230E-03
 168 F= -.85021880E+03 E0= -.85021880E+03  d E =0.835699E-04  mag=     0.0000
       N       E                     dE             d eps       ncg     rms          rms(c)
DAV:   1    -0.842468524980E+03    0.14188E-03   -0.15998E-02  4320   0.184E-01    0.299E-02
DAV:   2    -0.842468530090E+03   -0.51095E-05   -0.25244E-04  4290   0.215E-02    0.249E-02
DAV:   3    -0.842468526544E+03    0.35461E-05   -0.46469E-06  4520   0.418E-03    0.179E-02
DAV:   4    -0.842468541603E+03   -0.15059E-04   -0.15142E-05  3930   0.626E-03    0.337E-03
DAV:   5    -0.842468541576E+03    0.26877E-07   -0.28797E-06  4080   0.266E-03
 169 F= -.85021872E+03 E0= -.85021872E+03  d E =0.807524E-04  mag=    -0.0000
       N       E                     dE             d eps       ncg     rms          rms(c)
DAV:   1    -0.842468394474E+03    0.14713E-03   -0.23130E-02  4320   0.226E-01    0.361E-02
DAV:   2    -0.842468405043E+03   -0.10569E-04   -0.36798E-04  4290   0.267E-02    0.301E-02
DAV:   3    -0.842468399859E+03    0.51836E-05   -0.73814E-06  4840   0.529E-03    0.216E-02
DAV:   4    -0.842468418129E+03   -0.18270E-04   -0.21288E-05  4050   0.767E-03    0.418E-03
DAV:   5    -0.842468418289E+03   -0.15990E-06   -0.41311E-06  4280   0.323E-03
 170 F= -.85021865E+03 E0= -.85021865E+03  d E =0.699714E-04  mag=     0.0000
       N       E                     dE             d eps       ncg     rms          rms(c)
DAV:   1    -0.842468216869E+03    0.20126E-03   -0.32916E-02  4320   0.273E-01    0.430E-02
DAV:   2    -0.842468234899E+03   -0.18029E-04   -0.53197E-04  4330   0.326E-02    0.359E-02
DAV:   3    -0.842468227345E+03    0.75536E-05   -0.11090E-05  5000   0.650E-03    0.259E-02
DAV:   4    -0.842468250693E+03   -0.23347E-04   -0.30311E-05  4110   0.929E-03    0.517E-03
DAV:   5    -0.842468251109E+03   -0.41662E-06   -0.59470E-06  4480   0.392E-03
 171 F= -.85021854E+03 E0= -.85021854E+03  d E =0.104342E-03  mag=    -0.0000
       N       E                     dE             d eps       ncg     rms          rms(c)
DAV:   1    -0.842468044342E+03    0.20635E-03   -0.41285E-02  4300   0.298E-01    0.479E-02
DAV:   2    -0.842468067470E+03   -0.23128E-04   -0.65960E-04  4330   0.350E-02    0.398E-02
DAV:   3    -0.842468058675E+03    0.87952E-05   -0.12409E-05  4980   0.681E-03    0.286E-02
DAV:   4    -0.842468088046E+03   -0.29371E-04   -0.38121E-05  4210   0.994E-03    0.542E-03
DAV:   5    -0.842468088095E+03   -0.49084E-07   -0.72158E-06  4580   0.424E-03
 172 F= -.85021845E+03 E0= -.85021845E+03  d E =0.932293E-04  mag=     0.0000
       N       E                     dE             d eps       ncg     rms          rms(c)
DAV:   1    -0.842467897780E+03    0.19027E-03   -0.47000E-02  4300   0.330E-01    0.508E-02
DAV:   2    -0.842467927775E+03   -0.29994E-04   -0.77538E-04  4310   0.395E-02    0.421E-02
DAV:   3    -0.842467917116E+03    0.10659E-04   -0.15947E-05  5160   0.779E-03    0.305E-02
DAV:   4    -0.842467948335E+03   -0.31220E-04   -0.43376E-05  4290   0.112E-02    0.606E-03
DAV:   5    -0.842467948761E+03   -0.42603E-06   -0.82586E-06  4580   0.464E-03
 173 F= -.85021838E+03 E0= -.85021838E+03  d E =0.693802E-04  mag=    -0.0000
       N       E                     dE             d eps       ncg     rms          rms(c)
DAV:   1    -0.842467958666E+03   -0.10331E-04   -0.24292E-05  4160   0.815E-03    0.207E-03
DAV:   2    -0.842467958728E+03   -0.61766E-07   -0.46481E-07  3460   0.123E-03
 174 F= -.85021839E+03 E0= -.85021839E+03  d E =-.881206E-05  mag=    -0.0000
       N       E                     dE             d eps       ncg     rms          rms(c)
DAV:   1    -0.842467974045E+03   -0.15379E-04   -0.82498E-05  4310   0.145E-02    0.231E-03
DAV:   2    -0.842467974033E+03    0.12100E-07   -0.14370E-06  3080   0.187E-03
 175 F= -.85021840E+03 E0= -.85021840E+03  d E =-.132049E-04  mag=    -0.0000
       N       E                     dE             d eps       ncg     rms          rms(c)
DAV:   1    -0.842467993877E+03   -0.19832E-04   -0.15127E-04  4260   0.192E-02    0.398E-03
DAV:   2    -0.842467993691E+03    0.18555E-06   -0.27548E-06  3260   0.248E-03
 176 F= -.85021842E+03 E0= -.85021842E+03  d E =-.169838E-04  mag=    -0.0000
       N       E                     dE             d eps       ncg     rms          rms(c)
DAV:   1    -0.842468016279E+03   -0.22402E-04   -0.18868E-04  4250   0.210E-02    0.500E-03
DAV:   2    -0.842468015964E+03    0.31528E-06   -0.30784E-06  3420   0.256E-03
 177 F= -.85021844E+03 E0= -.85021844E+03  d E =-.193431E-04  mag=    -0.0000
       N       E                     dE             d eps       ncg     rms          rms(c)
DAV:   1    -0.842468041267E+03   -0.24988E-04   -0.19484E-04  4260   0.213E-02    0.532E-03
DAV:   2    -0.842468040977E+03    0.28998E-06   -0.27733E-06  3460   0.244E-03
 178 F= -.85021846E+03 E0= -.85021846E+03  d E =-.222846E-04  mag=    -0.0000
       N       E                     dE             d eps       ncg     rms          rms(c)
DAV:   1    -0.842468068035E+03   -0.26768E-04   -0.19761E-04  4240   0.222E-02    0.535E-03
DAV:   2    -0.842468067885E+03    0.14917E-06   -0.26396E-06  3620   0.249E-03
 179 F= -.85021848E+03 E0= -.85021848E+03  d E =-.248629E-04  mag=    -0.0000
       N       E                     dE             d eps       ncg     rms          rms(c)
DAV:   1    -0.842468097383E+03   -0.29349E-04   -0.27247E-04  4260   0.276E-02    0.596E-03
DAV:   2    -0.842468097437E+03   -0.53544E-07   -0.37799E-06  4080   0.316E-03
 180 F= -.85021851E+03 E0= -.85021851E+03  d E =-.285877E-04  mag=    -0.0000
       N       E                     dE             d eps       ncg     rms          rms(c)
DAV:   1    -0.842468125876E+03   -0.28493E-04   -0.44187E-04  4260   0.362E-02    0.737E-03
DAV:   2    -0.842468126192E+03   -0.31567E-06   -0.65802E-06  4460   0.425E-03
 181 F= -.85021854E+03 E0= -.85021854E+03  d E =-.295707E-04  mag=     0.0000
       N       E                     dE             d eps       ncg     rms          rms(c)
DAV:   1    -0.842468152199E+03   -0.26323E-04   -0.75104E-04  4260   0.472E-02    0.955E-03
DAV:   2    -0.842468152680E+03   -0.48092E-06   -0.11382E-05  4590   0.556E-03    0.763E-03
DAV:   3    -0.842468152895E+03   -0.21541E-06   -0.68546E-07  2930   0.183E-03
 182 F= -.85021857E+03 E0= -.85021857E+03  d E =-.295827E-04  mag=    -0.0000
       N       E                     dE             d eps       ncg     rms          rms(c)
DAV:   1    -0.842468177939E+03   -0.25259E-04   -0.12515E-03  4260   0.602E-02    0.906E-03
DAV:   2    -0.842468179084E+03   -0.11453E-05   -0.18830E-05  4520   0.701E-03    0.707E-03
DAV:   3    -0.842468179132E+03   -0.48356E-07   -0.50106E-07  3580   0.155E-03
 183 F= -.85021860E+03 E0= -.85021860E+03  d E =-.310003E-04  mag=    -0.0000
       N       E                     dE             d eps       ncg     rms          rms(c)
DAV:   1    -0.842468204806E+03   -0.25722E-04   -0.20657E-03  4280   0.774E-02    0.116E-02
DAV:   2    -0.842468206470E+03   -0.16637E-05   -0.30674E-05  4420   0.895E-03    0.905E-03
DAV:   3    -0.842468206505E+03   -0.34735E-07   -0.88566E-07  3710   0.204E-03
 184 F= -.85021864E+03 E0= -.85021864E+03  d E =-.344558E-04  mag=    -0.0000
       N       E                     dE             d eps       ncg     rms          rms(c)
DAV:   1    -0.842468231588E+03   -0.25118E-04   -0.33550E-03  4260   0.989E-02    0.148E-02
DAV:   2    -0.842468234108E+03   -0.25197E-05   -0.49628E-05  4380   0.114E-02    0.117E-02
DAV:   3    -0.842468234203E+03   -0.95490E-07   -0.14765E-06  3900   0.261E-03
 185 F= -.85021868E+03 E0= -.85021867E+03  d E =-.375962E-04  mag=    -0.0000
       N       E                     dE             d eps       ncg     rms          rms(c)
DAV:   1    -0.842468260042E+03   -0.25934E-04   -0.53509E-03  4280   0.124E-01    0.186E-02
DAV:   2    -0.842468263614E+03   -0.35725E-05   -0.77758E-05  4340   0.143E-02    0.147E-02
DAV:   3    -0.842468263778E+03   -0.16375E-06   -0.23408E-06  4300   0.323E-03
 186 F= -.85021872E+03 E0= -.85021872E+03  d E =-.434283E-04  mag=    -0.0000
       N       E                     dE             d eps       ncg     rms          rms(c)
DAV:   1    -0.842468294296E+03   -0.30682E-04   -0.85167E-03  4260   0.156E-01    0.232E-02
DAV:   2    -0.842468299834E+03   -0.55377E-05   -0.12531E-04  4340   0.180E-02    0.184E-02
DAV:   3    -0.842468299976E+03   -0.14176E-06   -0.37229E-06  4700   0.402E-03
 187 F= -.85021877E+03 E0= -.85021877E+03  d E =-.532829E-04  mag=    -0.0000
       N       E                     dE             d eps       ncg     rms          rms(c)
DAV:   1    -0.842468341986E+03   -0.42153E-04   -0.12530E-02  4260   0.191E-01    0.282E-02
DAV:   2    -0.842468350092E+03   -0.81060E-05   -0.17992E-04  4340   0.219E-02    0.225E-02
DAV:   3    -0.842468350537E+03   -0.44499E-06   -0.57275E-06  4700   0.505E-03
 188 F= -.85021884E+03 E0= -.85021884E+03  d E =-.701422E-04  mag=    -0.0000
       N       E                     dE             d eps       ncg     rms          rms(c)
DAV:   1    -0.842468414260E+03   -0.64168E-04   -0.18347E-02  4260   0.232E-01    0.343E-02
DAV:   2    -0.842468427417E+03   -0.13157E-04   -0.26196E-04  4360   0.266E-02    0.271E-02
DAV:   3    -0.842468427933E+03   -0.51632E-06   -0.87477E-06  4860   0.629E-03
 189 F= -.85021894E+03 E0= -.85021894E+03  d E =-.977990E-04  mag=    -0.0000
       N       E                     dE             d eps       ncg     rms          rms(c)
DAV:   1    -0.842468527327E+03   -0.99910E-04   -0.26479E-02  4260   0.280E-01    0.409E-02
DAV:   2    -0.842468547404E+03   -0.20077E-04   -0.37111E-04  4410   0.319E-02    0.324E-02
DAV:   3    -0.842468547759E+03   -0.35508E-06   -0.13091E-05  4920   0.768E-03    0.204E-02
DAV:   4    -0.842468556929E+03   -0.91700E-05   -0.13577E-05  4400   0.723E-03    0.468E-03
DAV:   5    -0.842468556769E+03    0.16020E-06   -0.40715E-06  4580   0.359E-03
 190 F= -.85021909E+03 E0= -.85021909E+03  d E =-.147225E-03  mag=    -0.0000
       N       E                     dE             d eps       ncg     rms          rms(c)
DAV:   1    -0.842468705855E+03   -0.14893E-03   -0.36943E-02  4300   0.329E-01    0.463E-02
DAV:   2    -0.842468735819E+03   -0.29965E-04   -0.53601E-04  4420   0.387E-02    0.371E-02
DAV:   3    -0.842468731236E+03    0.45831E-05   -0.19993E-05  5000   0.949E-03    0.236E-02
DAV:   4    -0.842468741129E+03   -0.98926E-05   -0.22709E-05  4340   0.926E-03    0.608E-03
DAV:   5    -0.842468740861E+03    0.26711E-06   -0.73569E-06  4720   0.480E-03
 191 F= -.85021929E+03 E0= -.85021928E+03  d E =-.198477E-03  mag=    -0.0000
       N       E                     dE             d eps       ncg     rms          rms(c)
DAV:   1    -0.842468953681E+03   -0.21255E-03   -0.53781E-02  4280   0.394E-01    0.554E-02
DAV:   2    -0.842468999192E+03   -0.45511E-04   -0.78675E-04  4430   0.464E-02    0.448E-02
DAV:   3    -0.842468991924E+03    0.72685E-05   -0.28189E-05  5000   0.112E-02    0.290E-02
DAV:   4    -0.842469006250E+03   -0.14326E-04   -0.35300E-05  4370   0.115E-02    0.737E-03
DAV:   5    -0.842469005846E+03    0.40432E-06   -0.11027E-05  4820   0.587E-03    0.386E-03
DAV:   6    -0.842469006077E+03   -0.23146E-06   -0.12098E-06  3400   0.199E-03
 192 F= -.85021955E+03 E0= -.85021955E+03  d E =-.269175E-03  mag=    -0.0000
       N       E                     dE             d eps       ncg     rms          rms(c)
DAV:   1    -0.842469264568E+03   -0.25872E-03   -0.79286E-02  4300   0.479E-01    0.666E-02
DAV:   2    -0.842469328544E+03   -0.63976E-04   -0.11434E-03  4470   0.560E-02    0.543E-02
DAV:   3    -0.842469315956E+03    0.12588E-04   -0.42299E-05  5020   0.136E-02    0.352E-02
DAV:   4    -0.842469336516E+03   -0.20561E-04   -0.52490E-05  4350   0.140E-02    0.906E-03
DAV:   5    -0.842469336284E+03    0.23276E-06   -0.16241E-05  4740   0.710E-03    0.470E-03
DAV:   6    -0.842469336710E+03   -0.42660E-06   -0.16448E-06  3420   0.234E-03
 193 F= -.85021989E+03 E0= -.85021989E+03  d E =-.338085E-03  mag=    -0.0000
       N       E                     dE             d eps       ncg     rms          rms(c)
DAV:   1    -0.842469617677E+03   -0.28139E-03   -0.11553E-01  4300   0.584E-01    0.799E-02
DAV:   2    -0.842469715022E+03   -0.97345E-04   -0.17238E-03  4470   0.699E-02    0.660E-02
DAV:   3    -0.842469693292E+03    0.21730E-04   -0.68093E-05  5120   0.171E-02    0.436E-02
DAV:   4    -0.842469721402E+03   -0.28109E-04   -0.79873E-05  4370   0.176E-02    0.119E-02
DAV:   5    -0.842469722006E+03   -0.60444E-06   -0.23259E-05  4720   0.848E-03    0.613E-03
DAV:   6    -0.842469722795E+03   -0.78871E-06   -0.28629E-06  3740   0.303E-03
 194 F= -.85022027E+03 E0= -.85022027E+03  d E =-.374034E-03  mag=    -0.0000
       N       E                     dE             d eps       ncg     rms          rms(c)
DAV:   1    -0.842469770967E+03   -0.48961E-04   -0.19064E-01  4280   0.775E-01    0.100E-01
DAV:   2    -0.842469970019E+03   -0.19905E-03   -0.32321E-03  4490   0.969E-02    0.847E-02
DAV:   3    -0.842469919136E+03    0.50883E-04   -0.12579E-04  5300   0.226E-02    0.592E-02
DAV:   4    -0.842469946545E+03   -0.27409E-04   -0.15879E-04  4450   0.254E-02    0.181E-02
DAV:   5    -0.842469951966E+03   -0.54210E-05   -0.40261E-05  4700   0.113E-02    0.909E-03
DAV:   6    -0.842469954077E+03   -0.21109E-05   -0.54150E-06  4370   0.405E-03    0.456E-03
DAV:   7    -0.842469954013E+03    0.64523E-07   -0.50572E-07  3580   0.167E-03
 195 F= -.85022049E+03 E0= -.85022049E+03  d E =-.227049E-03  mag=     0.0000
       N       E                     dE             d eps       ncg     rms          rms(c)
DAV:   1    -0.842470270388E+03   -0.31631E-03   -0.14826E-02  4280   0.248E-01    0.287E-02
DAV:   2    -0.842470294410E+03   -0.24022E-04   -0.37829E-04  5060   0.367E-02    0.256E-02
DAV:   3    -0.842470285600E+03    0.88099E-05   -0.21811E-05  5620   0.880E-03    0.187E-02
DAV:   4    -0.842470279964E+03    0.56366E-05   -0.14505E-05  4400   0.810E-03    0.870E-03
DAV:   5    -0.842470279701E+03    0.26225E-06   -0.43183E-06  3680   0.395E-03
 196 F= -.85022082E+03 E0= -.85022082E+03  d E =-.325022E-03  mag=    -0.0000
       N       E                     dE             d eps       ncg     rms          rms(c)
DAV:   1    -0.842470049081E+03    0.23088E-03   -0.14643E-02  4290   0.246E-01    0.284E-02
DAV:   2    -0.842470073233E+03   -0.24152E-04   -0.36379E-04  5100   0.358E-02    0.249E-02
DAV:   3    -0.842470065413E+03    0.78195E-05   -0.19732E-05  5600   0.847E-03    0.184E-02
DAV:   4    -0.842470061112E+03    0.43009E-05   -0.15030E-05  4380   0.821E-03    0.827E-03
DAV:   5    -0.842470061165E+03   -0.52700E-07   -0.38904E-06  3520   0.371E-03
 197 F= -.85022060E+03 E0= -.85022060E+03  d E =0.215941E-03  mag=    -0.0000
       N       E                     dE             d eps       ncg     rms          rms(c)
DAV:   1    -0.842470162220E+03   -0.10111E-03   -0.73123E-04  4300   0.551E-02    0.659E-03
DAV:   2    -0.842470163282E+03   -0.10621E-05   -0.19853E-05  5040   0.836E-03    0.609E-03
DAV:   3    -0.842470162705E+03    0.57655E-06   -0.96935E-07  2430   0.206E-03
 198 F= -.85022071E+03 E0= -.85022070E+03  d E =-.102831E-03  mag=    -0.0000
       N       E                     dE             d eps       ncg     rms          rms(c)
DAV:   1    -0.842470269141E+03   -0.10586E-03   -0.21966E-03  4280   0.954E-02    0.122E-02
DAV:   2    -0.842470272360E+03   -0.32185E-05   -0.53015E-05  5340   0.137E-02    0.108E-02
DAV:   3    -0.842470270787E+03    0.15732E-05   -0.30318E-06  4100   0.347E-03    0.765E-03
DAV:   4    -0.842470269959E+03    0.82759E-06   -0.31970E-06  3760   0.374E-03
 199 F= -.85022082E+03 E0= -.85022082E+03  d E =-.110014E-03  mag=     0.0000
       N       E                     dE             d eps       ncg     rms          rms(c)
DAV:   1    -0.842470281650E+03   -0.10864E-04   -0.31402E-03  4290   0.114E-01    0.139E-02
DAV:   2    -0.842470286835E+03   -0.51852E-05   -0.78891E-05  5120   0.167E-02    0.123E-02
DAV:   3    -0.842470284900E+03    0.19354E-05   -0.43637E-06  5000   0.403E-03    0.895E-03
DAV:   4    -0.842470283784E+03    0.11164E-05   -0.38178E-06  4040   0.411E-03    0.392E-03
DAV:   5    -0.842470283719E+03    0.64225E-07   -0.88055E-07  2760   0.181E-03
 200 F= -.85022083E+03 E0= -.85022083E+03  d E =-.180179E-04  mag=     0.0000
       N       E                     dE             d eps       ncg     rms          rms(c)
DAV:   1    -0.842470284204E+03   -0.42005E-06   -0.30783E-06  3800   0.344E-03    0.891E-04
DAV:   2    -0.842470284200E+03    0.38781E-08   -0.12264E-07  2240   0.698E-04
 201 F= -.85022083E+03 E0= -.85022083E+03  d E =-.766771E-06  mag=     0.0000
