<?xml version="1.0" encoding="ISO-8859-1"?>
<modeling>
 <generator>
  <i name="program" type="string">vasp </i>
  <i name="version" type="string">6.4.2  </i>
  <i name="subversion" type="string">20Jul23 (build Aug 26 2025 15:10:52) complex                          parallel </i>
  <i name="platform" type="string">LinuxIFC </i>
  <i name="date" type="string">2025 12 07 </i>
  <i name="time" type="string">12:50:49 </i>
 </generator>
 <incar>
  <i type="int" name="ISTART">     0</i>
  <i type="string" name="ALGO">Normal</i>
  <i type="logical" name="ADDGRID"> T  </i>
  <i type="int" name="ISPIN">     2</i>
  <i type="int" name="IMIX">     4</i>
  <i name="AMIX">      0.20000000</i>
  <i name="BMIX">      0.00010000</i>
  <i name="AMIX_MAG">      0.80000000</i>
  <i name="BMIX_MAG">      0.00010000</i>
  <i type="int" name="ICHARG">     2</i>
  <i type="int" name="NELM">   200</i>
  <i type="int" name="IBRION">     3</i>
  <i name="EDIFF">      0.00000100</i>
  <i name="EDIFFG">     -0.03000000</i>
  <i type="int" name="NSW">  1000</i>
  <i type="int" name="ISIF">     2</i>
  <i type="int" name="ISYM">     0</i>
  <i name="ENCUT">    520.00000000</i>
  <i name="POTIM">      0.00000000</i>
  <v name="MAGMOM">      0.60000000      0.60000000      0.60000000      0.60000000      0.60000000      0.60000000      0.60000000      0.60000000      0.60000000      0.60000000      0.60000000      0.60000000      0.60000000      0.60000000      0.60000000      0.60000000      0.60000000      0.60000000      0.60000000      0.60000000
      0.60000000      0.60000000      0.60000000      0.60000000      0.60000000      0.60000000      0.60000000      0.60000000      0.60000000      0.60000000      0.60000000      0.60000000      0.60000000      0.60000000      0.60000000      0.60000000      0.60000000      0.60000000      0.60000000      0.60000000
      0.60000000      0.60000000      0.60000000      0.60000000      0.60000000      0.60000000      0.60000000      0.60000000      0.60000000      0.60000000      0.60000000      0.60000000      0.60000000      0.60000000      0.60000000      0.60000000      0.60000000      0.60000000      0.60000000      0.60000000
      0.60000000      0.60000000      0.60000000      0.60000000      0.60000000      0.60000000      0.60000000      0.60000000      0.60000000      0.60000000      0.60000000      0.60000000      0.60000000      0.60000000      0.60000000      0.60000000      0.60000000      0.60000000      0.60000000      0.60000000
      0.60000000      0.60000000      0.60000000      0.60000000      0.60000000      0.60000000      0.60000000      0.60000000      0.60000000      0.60000000      0.60000000      0.60000000      0.60000000      0.60000000      0.60000000      0.60000000      0.60000000</v>
  <i type="string" name="LREAL">Auto</i>
  <i type="int" name="ISMEAR">     0</i>
  <i name="SIGMA">      0.05000000</i>
  <i type="logical" name="LWAVE"> F  </i>
  <i type="logical" name="LCHARG"> F  </i>
  <i type="logical" name="LASPH"> T  </i>
  <i type="int" name="IVDW">    12</i>
  <i name="SPRING">     -5.00000000</i>
 </incar>
 <primitive_cell>
  <structure name="primitive_cell" >
   <crystal>
    <varray name="basis" >
     <v>      17.27103806       0.00000000       0.00000000 </v>
     <v>      -8.63551903      14.95715771       0.00000000 </v>
     <v>       0.00000000       0.00000000      15.00000000 </v>
    </varray>
    <i name="volume">   3874.88459904 </i>
    <varray name="rec_basis" >
     <v>       0.05790040       0.03342881       0.00000000 </v>
     <v>       0.00000000       0.06685762       0.00000000 </v>
     <v>       0.00000000       0.00000000       0.06666667 </v>
    </varray>
   </crystal>
   <varray name="positions" >
    <v>       0.99968345       0.99933430       0.49564377 </v>
    <v>       0.99936067       0.14193669       0.49601483 </v>
    <v>       0.99951420       0.28497506       0.49683111 </v>
    <v>       0.99955906       0.42791205       0.49784278 </v>
    <v>       0.99969199       0.57074349       0.49782970 </v>
    <v>       0.00004955       0.71358903       0.49707159 </v>
    <v>       0.00021138       0.85681731       0.49598457 </v>
    <v>       0.14323026       0.00039871       0.49601663 </v>
    <v>       0.14285365       0.14294694       0.49490403 </v>
    <v>       0.14217932       0.28528490       0.49388797 </v>
    <v>       0.14240606       0.42871409       0.49465706 </v>
    <v>       0.14269622       0.57113683       0.49663625 </v>
    <v>       0.14281834       0.71397905       0.49747611 </v>
    <v>       0.14286444       0.85719086       0.49723127 </v>
    <v>       0.28606412       0.00049735       0.49631733 </v>
    <v>       0.28665589       0.14369042       0.49436785 </v>
    <v>       0.28615665       0.28741874       0.49073378 </v>
    <v>       0.28423834       0.42855862       0.48757507 </v>
    <v>       0.28697985       0.57195783       0.49104576 </v>
    <v>       0.28566718       0.71488530       0.49515442 </v>
    <v>       0.28516858       0.85753663       0.49673621 </v>
    <v>       0.42855136       0.99993815       0.49592817 </v>
    <v>       0.42975353       0.14374312       0.49532927 </v>
    <v>       0.42899950       0.28426225       0.49407663 </v>
    <v>       0.42727286       0.85648006       0.49488059 </v>
    <v>       0.57062819       0.99903256       0.49555855 </v>
    <v>       0.57144565       0.14213981       0.49644053 </v>
    <v>       0.57535745       0.28832233       0.49531398 </v>
    <v>       0.56946998       0.85481598       0.49326847 </v>
    <v>       0.71276760       0.99787817       0.49498538 </v>
    <v>       0.71393364       0.14140588       0.49695116 </v>
    <v>       0.71457188       0.28423359       0.49725115 </v>
    <v>       0.71072137       0.42354635       0.49493943 </v>
    <v>       0.71597154       0.57024002       0.48968435 </v>
    <v>       0.71764706       0.71427099       0.48619887 </v>
    <v>       0.71176461       0.85499240       0.49154763 </v>
    <v>       0.85616474       0.99857242       0.49491620 </v>
    <v>       0.85628056       0.14143125       0.49659742 </v>
    <v>       0.85685140       0.28449060       0.49784143 </v>
    <v>       0.85682523       0.42739354       0.49755892 </v>
    <v>       0.85636727       0.56969254       0.49558465 </v>
    <v>       0.85781827       0.71331996       0.49345333 </v>
    <v>       0.85695766       0.85598321       0.49360303 </v>
    <v>       0.04746372       0.09475910       0.49573591 </v>
    <v>       0.04676586       0.23713291       0.49584188 </v>
    <v>       0.04694902       0.38042983       0.49684455 </v>
    <v>       0.04741881       0.52328122       0.49777423 </v>
    <v>       0.04748856       0.66612647       0.49771830 </v>
    <v>       0.04750007       0.80901671       0.49691208 </v>
    <v>       0.04770331       0.95205771       0.49598548 </v>
    <v>       0.19096922       0.09554085       0.49499156 </v>
    <v>       0.19025010       0.23816999       0.49330947 </v>
    <v>       0.18890045       0.38043914       0.49228727 </v>
    <v>       0.19072133       0.52423642       0.49448863 </v>
    <v>       0.19031382       0.66657796       0.49653224 </v>
    <v>       0.19023343       0.80951825       0.49734473 </v>
    <v>       0.19082005       0.95261660       0.49660366 </v>
    <v>       0.33431753       0.09620341       0.49536388 </v>
    <v>       0.33544844       0.23926442       0.49291367 </v>
    <v>       0.33001624       0.38016735       0.48621660 </v>
    <v>       0.33074852       0.52317309       0.48592087 </v>
    <v>       0.33643950       0.67023271       0.49279238 </v>
    <v>       0.33250821       0.80972233       0.49572354 </v>
    <v>       0.33314606       0.95261622       0.49644246 </v>
    <v>       0.47643163       0.09510853       0.49593371 </v>
    <v>       0.47758240       0.23944056       0.49486073 </v>
    <v>       0.47172290       0.80572067       0.49355446 </v>
    <v>       0.47562828       0.95191585       0.49546141 </v>
    <v>       0.61854844       0.09416601       0.49645230 </v>
    <v>       0.61983236       0.23756205       0.49655973 </v>
    <v>       0.61829104       0.81028455       0.49156523 </v>
    <v>       0.61733764       0.95046197       0.49465505 </v>
    <v>       0.76106265       0.09356402       0.49627203 </v>
    <v>       0.76194804       0.23645453       0.49760908 </v>
    <v>       0.76150542       0.37905034       0.49686719 </v>
    <v>       0.76014030       0.52181414       0.49345827 </v>
    <v>       0.76223432       0.66484268       0.48945665 </v>
    <v>       0.76114001       0.80693445       0.49025736 </v>
    <v>       0.76052521       0.95050111       0.49386830 </v>
    <v>       0.90387359       0.09365945       0.49598754 </v>
    <v>       0.90419991       0.23682996       0.49734398 </v>
    <v>       0.90427602       0.38002254       0.49808861 </v>
    <v>       0.90440637       0.52282823       0.49725882 </v>
    <v>       0.90451759       0.66520789       0.49551308 </v>
    <v>       0.90472094       0.80856940       0.49437964 </v>
    <v>       0.90429749       0.95118754       0.49494715 </v>
    <v>       0.46772912       0.35693494       0.49512118 </v>
    <v>       0.40241929       0.41892740       0.48423777 </v>
    <v>       0.40325708       0.55862664       0.48199386 </v>
    <v>       0.64533616       0.67844288       0.48016851 </v>
    <v>       0.64326110       0.53196547       0.48915457 </v>
    <v>       0.57884426       0.73766312       0.49025653 </v>
    <v>       0.52300252       0.58431969       0.57861951 </v>
    <v>       0.55785656       0.57054425       0.48885158 </v>
    <v>       0.42653573       0.71524128       0.49245919 </v>
    <v>       0.62072853       0.37874325       0.49409624 </v>
    <v>       0.51368684       0.53886081       0.53488800 </v>
   </varray>
  </structure>
  <varray name="primitive_index" >
   <v type="int" >        1 </v>
   <v type="int" >        2 </v>
   <v type="int" >        3 </v>
   <v type="int" >        4 </v>
   <v type="int" >        5 </v>
   <v type="int" >        6 </v>
   <v type="int" >        7 </v>
   <v type="int" >        8 </v>
   <v type="int" >        9 </v>
   <v type="int" >       10 </v>
   <v type="int" >       11 </v>
   <v type="int" >       12 </v>
   <v type="int" >       13 </v>
   <v type="int" >       14 </v>
   <v type="int" >       15 </v>
   <v type="int" >       16 </v>
   <v type="int" >       17 </v>
   <v type="int" >       18 </v>
   <v type="int" >       19 </v>
   <v type="int" >       20 </v>
   <v type="int" >       21 </v>
   <v type="int" >       22 </v>
   <v type="int" >       23 </v>
   <v type="int" >       24 </v>
   <v type="int" >       25 </v>
   <v type="int" >       26 </v>
   <v type="int" >       27 </v>
   <v type="int" >       28 </v>
   <v type="int" >       29 </v>
   <v type="int" >       30 </v>
   <v type="int" >       31 </v>
   <v type="int" >       32 </v>
   <v type="int" >       33 </v>
   <v type="int" >       34 </v>
   <v type="int" >       35 </v>
   <v type="int" >       36 </v>
   <v type="int" >       37 </v>
   <v type="int" >       38 </v>
   <v type="int" >       39 </v>
   <v type="int" >       40 </v>
   <v type="int" >       41 </v>
   <v type="int" >       42 </v>
   <v type="int" >       43 </v>
   <v type="int" >       44 </v>
   <v type="int" >       45 </v>
   <v type="int" >       46 </v>
   <v type="int" >       47 </v>
   <v type="int" >       48 </v>
   <v type="int" >       49 </v>
   <v type="int" >       50 </v>
   <v type="int" >       51 </v>
   <v type="int" >       52 </v>
   <v type="int" >       53 </v>
   <v type="int" >       54 </v>
   <v type="int" >       55 </v>
   <v type="int" >       56 </v>
   <v type="int" >       57 </v>
   <v type="int" >       58 </v>
   <v type="int" >       59 </v>
   <v type="int" >       60 </v>
   <v type="int" >       61 </v>
   <v type="int" >       62 </v>
   <v type="int" >       63 </v>
   <v type="int" >       64 </v>
   <v type="int" >       65 </v>
   <v type="int" >       66 </v>
   <v type="int" >       67 </v>
   <v type="int" >       68 </v>
   <v type="int" >       69 </v>
   <v type="int" >       70 </v>
   <v type="int" >       71 </v>
   <v type="int" >       72 </v>
   <v type="int" >       73 </v>
   <v type="int" >       74 </v>
   <v type="int" >       75 </v>
   <v type="int" >       76 </v>
   <v type="int" >       77 </v>
   <v type="int" >       78 </v>
   <v type="int" >       79 </v>
   <v type="int" >       80 </v>
   <v type="int" >       81 </v>
   <v type="int" >       82 </v>
   <v type="int" >       83 </v>
   <v type="int" >       84 </v>
   <v type="int" >       85 </v>
   <v type="int" >       86 </v>
   <v type="int" >       87 </v>
   <v type="int" >       88 </v>
   <v type="int" >       89 </v>
   <v type="int" >       90 </v>
   <v type="int" >       91 </v>
   <v type="int" >       92 </v>
   <v type="int" >       93 </v>
   <v type="int" >       94 </v>
   <v type="int" >       95 </v>
   <v type="int" >       96 </v>
   <v type="int" >       97 </v>
  </varray>
 </primitive_cell>
 <kpoints>
  <generation param="Gamma">
   <v type="int" name="divisions">       2        2        1 </v>
   <v name="usershift">      0.00000000       0.00000000       0.00000000 </v>
   <v name="genvec1">      0.50000000       0.00000000       0.00000000 </v>
   <v name="genvec2">      0.00000000       0.50000000       0.00000000 </v>
   <v name="genvec3">      0.00000000       0.00000000       1.00000000 </v>
   <v name="shift">      0.00000000       0.00000000       0.00000000 </v>
  </generation>
  <varray name="kpointlist" >
   <v>       0.00000000       0.00000000       0.00000000 </v>
   <v>       0.50000000       0.00000000       0.00000000 </v>
   <v>       0.00000000       0.50000000       0.00000000 </v>
   <v>       0.50000000       0.50000000       0.00000000 </v>
  </varray>
  <varray name="weights" >
   <v>       0.25000000 </v>
   <v>       0.25000000 </v>
   <v>       0.25000000 </v>
   <v>       0.25000000 </v>
  </varray>
 </kpoints>
 <parameters>
  <separator name="general" >
   <i type="string" name="SYSTEM">unknown system</i>
   <i type="logical" name="LCOMPAT"> F  </i>
  </separator>
  <separator name="electronic" >
   <i type="string" name="PREC">normal</i>
   <i name="ENMAX">    520.00000000</i>
   <i name="ENAUG">    644.87300000</i>
   <i name="EDIFF">      0.00000100</i>
   <i type="int" name="IALGO">    38</i>
   <i type="int" name="IWAVPR">    11</i>
   <i type="int" name="NBANDS">   265</i>
   <i type="int" name="NBANDSLOW">    -1</i>
   <i type="int" name="NBANDSHIGH">    -1</i>
   <i name="NELECT">    368.00000000</i>
   <i type="int" name="TURBO">     0</i>
   <i type="int" name="IRESTART">     0</i>
   <i type="int" name="NREBOOT">     0</i>
   <i type="int" name="NMIN">     0</i>
   <i name="EREF">      0.00000000</i>
   <separator name="electronic smearing" >
    <i type="int" name="ISMEAR">     0</i>
    <i name="SIGMA">      0.05000000</i>
    <i name="KSPACING">      0.50000000</i>
    <i type="logical" name="KGAMMA"> T  </i>
    <i type="logical" name="KBLOWUP"> T  </i>
   </separator>
   <separator name="electronic projectors" >
    <i type="logical" name="LREAL"> T  </i>
    <v name="ROPT">     -0.00050000     -0.00050000     -0.00050000     -0.00050000</v>
    <i type="int" name="LMAXPAW">  -100</i>
    <i type="int" name="LMAXMIX">     2</i>
    <i type="logical" name="NLSPLINE"> F  </i>
   </separator>
   <separator name="electronic startup" >
    <i type="int" name="ISTART">     0</i>
    <i type="int" name="ICHARG">     2</i>
    <i type="int" name="INIWAV">     1</i>
   </separator>
   <separator name="electronic spin" >
    <i type="int" name="ISPIN">     2</i>
    <i type="logical" name="LNONCOLLINEAR"> F  </i>
    <v name="MAGMOM">      0.60000000      0.60000000      0.60000000      0.60000000      0.60000000      0.60000000      0.60000000      0.60000000      0.60000000      0.60000000      0.60000000      0.60000000      0.60000000      0.60000000      0.60000000      0.60000000      0.60000000      0.60000000      0.60000000      0.60000000
      0.60000000      0.60000000      0.60000000      0.60000000      0.60000000      0.60000000      0.60000000      0.60000000      0.60000000      0.60000000      0.60000000      0.60000000      0.60000000      0.60000000      0.60000000      0.60000000      0.60000000      0.60000000      0.60000000      0.60000000
      0.60000000      0.60000000      0.60000000      0.60000000      0.60000000      0.60000000      0.60000000      0.60000000      0.60000000      0.60000000      0.60000000      0.60000000      0.60000000      0.60000000      0.60000000      0.60000000      0.60000000      0.60000000      0.60000000      0.60000000
      0.60000000      0.60000000      0.60000000      0.60000000      0.60000000      0.60000000      0.60000000      0.60000000      0.60000000      0.60000000      0.60000000      0.60000000      0.60000000      0.60000000      0.60000000      0.60000000      0.60000000      0.60000000      0.60000000      0.60000000
      0.60000000      0.60000000      0.60000000      0.60000000      0.60000000      0.60000000      0.60000000      0.60000000      0.60000000      0.60000000      0.60000000      0.60000000      0.60000000      0.60000000      0.60000000      0.60000000      0.60000000</v>
    <i name="NUPDOWN">     -1.00000000</i>
    <i type="logical" name="LSORBIT"> F  </i>
    <v name="SAXIS">      0.00000000      0.00000000      1.00000000</v>
    <i type="logical" name="LSPIRAL"> F  </i>
    <v name="QSPIRAL">      0.00000000      0.00000000      0.00000000</v>
    <i type="logical" name="LZEROZ"> F  </i>
   </separator>
   <separator name="electronic exchange-correlation" >
    <i type="logical" name="LASPH"> T  </i>
    <i type="logical" name="LMETAGGA"> F  </i>
   </separator>
   <separator name="electronic convergence" >
    <i type="int" name="NELM">   200</i>
    <i type="int" name="NELMDL">    -5</i>
    <i type="int" name="NELMIN">     2</i>
    <i name="ENINI">    520.00000000</i>
    <separator name="electronic convergence detail" >
     <i type="logical" name="LDIAG"> T  </i>
     <i type="logical" name="LSUBROT"> F  </i>
     <i name="WEIMIN">      0.00100000</i>
     <i name="EBREAK">      0.00000000</i>
     <i name="DEPER">      0.30000000</i>
     <i type="int" name="NRMM">     4</i>
     <i name="TIME">      0.40000000</i>
    </separator>
   </separator>
   <separator name="electronic mixer" >
    <i name="AMIX">      0.20000000</i>
    <i name="BMIX">      0.00010000</i>
    <i name="AMIN">      0.10000000</i>
    <i name="AMIX_MAG">      0.80000000</i>
    <i name="BMIX_MAG">      0.00010000</i>
    <separator name="electronic mixer details" >
     <i type="int" name="IMIX">     4</i>
     <i type="logical" name="MIXFIRST"> F  </i>
     <i type="int" name="MAXMIX">   -45</i>
     <i name="WC">    100.00000000</i>
     <i type="int" name="INIMIX">     1</i>
     <i type="int" name="MIXPRE">     1</i>
     <i type="int" name="MREMOVE">     5</i>
    </separator>
   </separator>
   <separator name="electronic dipolcorrection" >
    <i type="logical" name="LDIPOL"> F  </i>
    <i type="logical" name="LMONO"> F  </i>
    <i type="int" name="IDIPOL">     0</i>
    <i name="EPSILON">      1.00000000</i>
    <v name="DIPOL">   -100.00000000   -100.00000000   -100.00000000</v>
    <i name="EFIELD">      0.00000000</i>
   </separator>
  </separator>
  <separator name="grids" >
   <i type="int" name="NGX">    96</i>
   <i type="int" name="NGY">    96</i>
   <i type="int" name="NGZ">    84</i>
   <i type="int" name="NGXF">   192</i>
   <i type="int" name="NGYF">   192</i>
   <i type="int" name="NGZF">   168</i>
   <i type="logical" name="ADDGRID"> T  </i>
  </separator>
  <separator name="ionic" >
   <i type="int" name="NSW">  1000</i>
   <i type="int" name="IBRION">     3</i>
   <i type="int" name="MDALGO">     0</i>
   <i type="int" name="ISIF">     2</i>
   <i name="PSTRESS">      0.00000000</i>
   <i name="EDIFFG">     -0.03000000</i>
   <i type="int" name="NFREE">     0</i>
   <i name="POTIM">      0.00000000</i>
   <i name="SMASS">     -3.00000000</i>
   <i name="SCALEE">      1.00000000</i>
  </separator>
  <separator name="ionic md" >
   <i name="TEBEG">      0.00010000</i>
   <i name="TEEND">      0.00010000</i>
   <i type="int" name="NBLOCK">     1</i>
   <i type="int" name="KBLOCK">  1000</i>
   <i type="int" name="NPACO">   256</i>
   <i name="APACO">     10.00000000</i>
  </separator>
  <separator name="symmetry" >
   <i type="int" name="ISYM">     0</i>
   <i name="SYMPREC">      0.00001000</i>
  </separator>
  <separator name="dos" >
   <i type="int" name="LORBIT">     0</i>
   <v name="RWIGS">     -1.00000000     -1.00000000     -1.00000000     -1.00000000</v>
   <i type="int" name="NEDOS">   301</i>
   <i name="EMIN">     10.00000000</i>
   <i name="EMAX">    -10.00000000</i>
   <i name="EFERMI">      0.00000000</i>
  </separator>
  <separator name="writing" >
   <i type="int" name="NWRITE">     2</i>
   <i type="logical" name="LWAVE"> F  </i>
   <i type="logical" name="LDOWNSAMPLE"> F  </i>
   <i type="logical" name="LCHARG"> F  </i>
   <i type="logical" name="LPARD"> F  </i>
   <i type="logical" name="LVTOT"> F  </i>
   <i type="logical" name="LVHAR"> F  </i>
   <i type="logical" name="LELF"> F  </i>
   <i type="logical" name="LOPTICS"> F  </i>
   <v name="STM">      0.00000000      0.00000000      0.00000000      0.00000000      0.00000000      0.00000000      0.00000000</v>
  </separator>
  <separator name="performance" >
   <i type="int" name="NPAR">     5</i>
   <i type="int" name="NSIM">     4</i>
   <i type="int" name="NBLK">    -1</i>
   <i type="logical" name="LPLANE"> T  </i>
   <i type="logical" name="LSCALAPACK"> T  </i>
   <i type="logical" name="LSCAAWARE"> F  </i>
   <i type="logical" name="LSCALU"> F  </i>
   <i type="logical" name="LASYNC"> F  </i>
   <i type="logical" name="LORBITALREAL"> F  </i>
  </separator>
  <separator name="miscellaneous" >
   <i type="int" name="IDIOT">     3</i>
   <i type="int" name="PHON_NSTRUCT">    -1</i>
   <i type="logical" name="LMUSIC"> F  </i>
   <v name="POMASS">     12.01100000      1.00000000     14.00100000     16.00000000</v>
   <v name="DARWINR">      0.00000000      0.00000000      0.00000000      0.00000000</v>
   <v name="DARWINV">      1.00000000      1.00000000      1.00000000      1.00000000</v>
   <i type="logical" name="LCORR"> T  </i>
  </separator>
  <i type="logical" name="GGA_COMPAT"> T  </i>
  <i type="logical" name="LBERRY"> F  </i>
  <i type="int" name="ICORELEVEL">     0</i>
  <i type="logical" name="LDAU"> F  </i>
  <i type="int" name="I_CONSTRAINED_M">     0</i>
  <separator name="electronic exchange-correlation" >
   <i type="string" name="GGA">--</i>
   <i type="int" name="VOSKOWN">     0</i>
   <i type="logical" name="LHFCALC"> F  </i>
   <i type="string" name="PRECFOCK"></i>
   <i type="logical" name="LSYMGRAD"> F  </i>
   <i type="logical" name="LHFONE"> F  </i>
   <i type="logical" name="LRHFCALC"> F  </i>
   <i type="logical" name="LTHOMAS"> F  </i>
   <i type="logical" name="LMODELHF"> F  </i>
   <i type="logical" name="LFOCKACE"> F  </i>
   <i name="ENCUT4O">     -1.00000000</i>
   <i type="int" name="EXXOEP">     0</i>
   <i type="int" name="FOURORBIT">     0</i>
   <i name="AEXX">      0.00000000</i>
   <i name="HFALPHA">      0.00000000</i>
   <i name="MCALPHA">      0.00000000</i>
   <i name="ALDAX">      1.00000000</i>
   <i name="AGGAX">      1.00000000</i>
   <i name="ALDAC">      1.00000000</i>
   <i name="AGGAC">      1.00000000</i>
   <i type="int" name="NKREDX">     1</i>
   <i type="int" name="NKREDY">     1</i>
   <i type="int" name="NKREDZ">     1</i>
   <i type="logical" name="SHIFTRED"> F  </i>
   <i type="logical" name="ODDONLY"> F  </i>
   <i type="logical" name="EVENONLY"> F  </i>
   <i type="int" name="LMAXFOCK">     0</i>
   <i type="int" name="NMAXFOCKAE">     0</i>
   <i type="logical" name="LFOCKAEDFT"> F  </i>
   <i name="HFSCREEN">      0.00000000</i>
   <i name="HFSCREENC">      0.00000000</i>
   <i type="int" name="NBANDSGWLOW">     0</i>
  </separator>
  <separator name="vdW DFT" >
   <i type="logical" name="LUSE_VDW"> F  </i>
   <i type="int" name="IVDW_NL">     1</i>
   <i type="logical" name="LSPIN_VDW"> F  </i>
   <i name="Zab_VDW">     -0.84910000</i>
   <i name="PARAM1">      0.12340000</i>
   <i name="PARAM2">      1.00000000</i>
   <i name="PARAM3">      0.00000000</i>
  </separator>
  <separator name="model GW" >
   <i type="int" name="MODEL_GW">     0</i>
   <i name="MODEL_EPS0">     23.96835834</i>
   <i name="MODEL_ALPHA">      1.00000000</i>
  </separator>
  <separator name="linear response parameters" >
   <i type="logical" name="LEPSILON"> F  </i>
   <i type="logical" name="LRPA"> F  </i>
   <i type="logical" name="LNABLA"> F  </i>
   <i type="logical" name="LVEL"> F  </i>
   <i name="CSHIFT">      0.10000000</i>
   <i name="OMEGAMAX">     -1.00000000</i>
   <i name="DEG_THRESHOLD">      0.00200000</i>
   <i name="RTIME">     -0.10000000</i>
   <i name="WPLASMAI">      0.00000000</i>
   <v name="DFIELD">      0.00000000      0.00000000      0.00000000</v>
   <v name="WPLASMA">      0.00000000      0.00000000      0.00000000      0.00000000      0.00000000      0.00000000      0.00000000      0.00000000      0.00000000</v>
  </separator>
  <separator name="orbital magnetization" >
   <i type="logical" name="NUCIND"> F  </i>
   <v name="MAGPOS">      0.00000000      0.00000000      0.00000000</v>
   <i type="logical" name="LNICSALL"> T  </i>
   <i type="logical" name="ORBITALMAG"> F  </i>
   <i type="logical" name="LMAGBLOCH"> F  </i>
   <i type="logical" name="LCHIMAG"> F  </i>
   <i type="logical" name="LGAUGE"> T  </i>
   <i type="int" name="MAGATOM">     0</i>
   <v name="MAGDIPOL">      0.00000000      0.00000000      0.00000000</v>
   <v name="AVECCONST">      0.00000000      0.00000000      0.00000000</v>
  </separator>
  <separator name="response functions" >
   <i type="logical" name="LALL_IN_ONE"> F  </i>
   <i type="int" name="IALL_IN_ONE">    -1</i>
   <i type="int" name="NBANDS_WAVE">    -1</i>
   <i type="logical" name="LFINITE_TEMPERATURE"> F  </i>
   <i type="logical" name="LADDER"> F  </i>
   <i type="logical" name="LRPAFORCE"> F  </i>
   <i type="logical" name="LFXC"> F  </i>
   <i type="logical" name="LHARTREE"> T  </i>
   <i type="int" name="IBSE">     0</i>
   <v type="int" name="KPOINT">    -1     0     0     0</v>
   <i type="logical" name="LTCTC"> F  </i>
   <i type="logical" name="LTCTE"> F  </i>
   <i type="logical" name="LTETE"> F  </i>
   <i type="logical" name="LTRIPLET"> F  </i>
   <i type="logical" name="LFXCEPS"> F  </i>
   <i type="logical" name="LFXHEG"> F  </i>
   <i type="int" name="NATURALO">     2</i>
   <i type="logical" name="LHOLEGF"> F  </i>
   <i type="logical" name="L2ORDER"> F  </i>
   <i type="logical" name="LDMP1"> F  </i>
   <i type="logical" name="LMP2LT"> F  </i>
   <i type="logical" name="LSMP2LT"> F  </i>
   <i type="logical" name="LGWLF"> F  </i>
   <i name="ENCUTGW">     -1.60000002</i>
   <i name="ENCUTGWSOFT">     -1.60000002</i>
   <i name="ENCUTLF">     -1.00000000</i>
   <i type="logical" name="LESF_SPLINES"> F  </i>
   <i type="int" name="LMAXMP2">    -1</i>
   <i name="SCISSOR">      0.00000000</i>
   <i type="int" name="NOMEGA">     0</i>
   <i type="int" name="NOMEGAR">     0</i>
   <i type="int" name="NBANDSGW">    -1</i>
   <i type="int" name="NBANDSO">    -1</i>
   <i type="int" name="NBANDSV">    -1</i>
   <i type="int" name="NELMGW">     1</i>
   <i type="int" name="NELMHF">     1</i>
   <i type="int" name="DIM">     3</i>
   <i type="int" name="IESPILON">     4</i>
   <i type="int" name="ANTIRES">     0</i>
   <i name="OMEGAMAX">    -30.00000000</i>
   <i name="OMEGAMIN">    -30.00000000</i>
   <i name="OMEGATL">   -200.00000000</i>
   <i type="int" name="OMEGAGRID">     0</i>
   <i name="CSHIFT">     -0.10000000</i>
   <i type="logical" name="LSELFENERGY"> F  </i>
   <i type="logical" name="LSPECTRAL"> F  </i>
   <i type="logical" name="LSPECTRALGW"> F  </i>
   <i type="logical" name="LSINGLES"> F  </i>
   <i type="logical" name="LFERMIGW"> F  </i>
   <i type="logical" name="ODDONLYGW"> F  </i>
   <i type="logical" name="EVENONLYGW"> F  </i>
   <i type="int" name="NKREDLFX">     1</i>
   <i type="int" name="NKREDLFY">     1</i>
   <i type="int" name="NKREDLFZ">     1</i>
   <i type="int" name="MAXMEM">  2800</i>
   <i type="int" name="TELESCOPE">     0</i>
   <i type="int" name="NTAUPAR">    -1</i>
   <i type="int" name="NOMEGAPAR">    -1</i>
   <i name="DAMP_NEWTON">      0.80000001</i>
   <i name="LAMBDA">      1.00000000</i>
  </separator>
  <separator name="External order field" >
   <i name="OFIELD_KAPPA">      0.00000000</i>
   <v name="OFIELD_K">      0.00000000      0.00000000      0.00000000</v>
   <i name="OFIELD_Q6_NEAR">      0.00000000</i>
   <i name="OFIELD_Q6_FAR">      0.00000000</i>
   <i name="OFIELD_A">      0.00000000</i>
  </separator>
  <separator name="optional k-points parameters" >
   <i type="int" name="KPOINTS_OPT_MODE">     1</i>
   <i type="logical" name="LKPOINTS_OPT"> F  </i>
  </separator>
 </parameters>
 <atominfo>
  <atoms>      97 </atoms>
  <types>       4 </types>
  <array name="atoms" >
   <dimension dim="1">ion</dimension>
   <field type="string">element</field>
   <field type="int">atomtype</field>
   <set>
    <rc><c>C </c><c>   1</c></rc>
    <rc><c>C </c><c>   1</c></rc>
    <rc><c>C </c><c>   1</c></rc>
    <rc><c>C </c><c>   1</c></rc>
    <rc><c>C </c><c>   1</c></rc>
    <rc><c>C </c><c>   1</c></rc>
    <rc><c>C </c><c>   1</c></rc>
    <rc><c>C </c><c>   1</c></rc>
    <rc><c>C </c><c>   1</c></rc>
    <rc><c>C </c><c>   1</c></rc>
    <rc><c>C </c><c>   1</c></rc>
    <rc><c>C </c><c>   1</c></rc>
    <rc><c>C </c><c>   1</c></rc>
    <rc><c>C </c><c>   1</c></rc>
    <rc><c>C </c><c>   1</c></rc>
    <rc><c>C </c><c>   1</c></rc>
    <rc><c>C </c><c>   1</c></rc>
    <rc><c>C </c><c>   1</c></rc>
    <rc><c>C </c><c>   1</c></rc>
    <rc><c>C </c><c>   1</c></rc>
    <rc><c>C </c><c>   1</c></rc>
    <rc><c>C </c><c>   1</c></rc>
    <rc><c>C </c><c>   1</c></rc>
    <rc><c>C </c><c>   1</c></rc>
    <rc><c>C </c><c>   1</c></rc>
    <rc><c>C </c><c>   1</c></rc>
    <rc><c>C </c><c>   1</c></rc>
    <rc><c>C </c><c>   1</c></rc>
    <rc><c>C </c><c>   1</c></rc>
    <rc><c>C </c><c>   1</c></rc>
    <rc><c>C </c><c>   1</c></rc>
    <rc><c>C </c><c>   1</c></rc>
    <rc><c>C </c><c>   1</c></rc>
    <rc><c>C </c><c>   1</c></rc>
    <rc><c>C </c><c>   1</c></rc>
    <rc><c>C </c><c>   1</c></rc>
    <rc><c>C </c><c>   1</c></rc>
    <rc><c>C </c><c>   1</c></rc>
    <rc><c>C </c><c>   1</c></rc>
    <rc><c>C </c><c>   1</c></rc>
    <rc><c>C </c><c>   1</c></rc>
    <rc><c>C </c><c>   1</c></rc>
    <rc><c>C </c><c>   1</c></rc>
    <rc><c>C </c><c>   1</c></rc>
    <rc><c>C </c><c>   1</c></rc>
    <rc><c>C </c><c>   1</c></rc>
    <rc><c>C </c><c>   1</c></rc>
    <rc><c>C </c><c>   1</c></rc>
    <rc><c>C </c><c>   1</c></rc>
    <rc><c>C </c><c>   1</c></rc>
    <rc><c>C </c><c>   1</c></rc>
    <rc><c>C </c><c>   1</c></rc>
    <rc><c>C </c><c>   1</c></rc>
    <rc><c>C </c><c>   1</c></rc>
    <rc><c>C </c><c>   1</c></rc>
    <rc><c>C </c><c>   1</c></rc>
    <rc><c>C </c><c>   1</c></rc>
    <rc><c>C </c><c>   1</c></rc>
    <rc><c>C </c><c>   1</c></rc>
    <rc><c>C </c><c>   1</c></rc>
    <rc><c>C </c><c>   1</c></rc>
    <rc><c>C </c><c>   1</c></rc>
    <rc><c>C </c><c>   1</c></rc>
    <rc><c>C </c><c>   1</c></rc>
    <rc><c>C </c><c>   1</c></rc>
    <rc><c>C </c><c>   1</c></rc>
    <rc><c>C </c><c>   1</c></rc>
    <rc><c>C </c><c>   1</c></rc>
    <rc><c>C </c><c>   1</c></rc>
    <rc><c>C </c><c>   1</c></rc>
    <rc><c>C </c><c>   1</c></rc>
    <rc><c>C </c><c>   1</c></rc>
    <rc><c>C </c><c>   1</c></rc>
    <rc><c>C </c><c>   1</c></rc>
    <rc><c>C </c><c>   1</c></rc>
    <rc><c>C </c><c>   1</c></rc>
    <rc><c>C </c><c>   1</c></rc>
    <rc><c>C </c><c>   1</c></rc>
    <rc><c>C </c><c>   1</c></rc>
    <rc><c>C </c><c>   1</c></rc>
    <rc><c>C </c><c>   1</c></rc>
    <rc><c>C </c><c>   1</c></rc>
    <rc><c>C </c><c>   1</c></rc>
    <rc><c>C </c><c>   1</c></rc>
    <rc><c>C </c><c>   1</c></rc>
    <rc><c>C </c><c>   1</c></rc>
    <rc><c>H </c><c>   2</c></rc>
    <rc><c>H </c><c>   2</c></rc>
    <rc><c>H </c><c>   2</c></rc>
    <rc><c>H </c><c>   2</c></rc>
    <rc><c>H </c><c>   2</c></rc>
    <rc><c>H </c><c>   2</c></rc>
    <rc><c>H </c><c>   2</c></rc>
    <rc><c>H </c><c>   2</c></rc>
    <rc><c>N </c><c>   3</c></rc>
    <rc><c>N </c><c>   3</c></rc>
    <rc><c>O </c><c>   4</c></rc>
   </set>
  </array>
  <array name="atomtypes" >
   <dimension dim="1">type</dimension>
   <field type="int">atomspertype</field>
   <field type="string">element</field>
   <field>mass</field>
   <field>valence</field>
   <field type="string">pseudopotential</field>
   <set>
    <rc><c>  86</c><c>C </c><c>     12.01100000</c><c>      4.00000000</c><c>  PAW_PBE C 08Apr2002                   </c></rc>
    <rc><c>   8</c><c>H </c><c>      1.00000000</c><c>      1.00000000</c><c>  PAW_PBE H 15Jun2001                   </c></rc>
    <rc><c>   2</c><c>N </c><c>     14.00100000</c><c>      5.00000000</c><c>  PAW_PBE N 08Apr2002                   </c></rc>
    <rc><c>   1</c><c>O </c><c>     16.00000000</c><c>      6.00000000</c><c>  PAW_PBE O 08Apr2002                   </c></rc>
   </set>
  </array>
 </atominfo>
 <structure name="initialpos" >
  <crystal>
   <varray name="basis" >
    <v>      17.27103806       0.00000000       0.00000000 </v>
    <v>      -8.63551903      14.95715771       0.00000000 </v>
    <v>       0.00000000       0.00000000      15.00000000 </v>
   </varray>
   <i name="volume">   3874.88459904 </i>
   <varray name="rec_basis" >
    <v>       0.05790040       0.03342881       0.00000000 </v>
    <v>       0.00000000       0.06685762       0.00000000 </v>
    <v>       0.00000000       0.00000000       0.06666667 </v>
   </varray>
  </crystal>
  <varray name="positions" >
   <v>       0.99968345       0.99933430       0.49564377 </v>
   <v>       0.99936067       0.14193669       0.49601483 </v>
   <v>       0.99951420       0.28497506       0.49683111 </v>
   <v>       0.99955906       0.42791205       0.49784278 </v>
   <v>       0.99969199       0.57074349       0.49782970 </v>
   <v>       0.00004955       0.71358903       0.49707159 </v>
   <v>       0.00021138       0.85681731       0.49598457 </v>
   <v>       0.14323026       0.00039871       0.49601663 </v>
   <v>       0.14285365       0.14294694       0.49490403 </v>
   <v>       0.14217932       0.28528490       0.49388797 </v>
   <v>       0.14240606       0.42871409       0.49465706 </v>
   <v>       0.14269622       0.57113683       0.49663625 </v>
   <v>       0.14281834       0.71397905       0.49747611 </v>
   <v>       0.14286444       0.85719086       0.49723127 </v>
   <v>       0.28606412       0.00049735       0.49631733 </v>
   <v>       0.28665589       0.14369042       0.49436785 </v>
   <v>       0.28615665       0.28741874       0.49073378 </v>
   <v>       0.28423834       0.42855862       0.48757507 </v>
   <v>       0.28697985       0.57195783       0.49104576 </v>
   <v>       0.28566718       0.71488530       0.49515442 </v>
   <v>       0.28516858       0.85753663       0.49673621 </v>
   <v>       0.42855136       0.99993815       0.49592817 </v>
   <v>       0.42975353       0.14374312       0.49532927 </v>
   <v>       0.42899950       0.28426225       0.49407663 </v>
   <v>       0.42727286       0.85648006       0.49488059 </v>
   <v>       0.57062819       0.99903256       0.49555855 </v>
   <v>       0.57144565       0.14213981       0.49644053 </v>
   <v>       0.57535745       0.28832233       0.49531398 </v>
   <v>       0.56946998       0.85481598       0.49326847 </v>
   <v>       0.71276760       0.99787817       0.49498538 </v>
   <v>       0.71393364       0.14140588       0.49695116 </v>
   <v>       0.71457188       0.28423359       0.49725115 </v>
   <v>       0.71072137       0.42354635       0.49493943 </v>
   <v>       0.71597154       0.57024002       0.48968435 </v>
   <v>       0.71764706       0.71427099       0.48619887 </v>
   <v>       0.71176461       0.85499240       0.49154763 </v>
   <v>       0.85616474       0.99857242       0.49491620 </v>
   <v>       0.85628056       0.14143125       0.49659742 </v>
   <v>       0.85685140       0.28449060       0.49784143 </v>
   <v>       0.85682523       0.42739354       0.49755892 </v>
   <v>       0.85636727       0.56969254       0.49558465 </v>
   <v>       0.85781827       0.71331996       0.49345333 </v>
   <v>       0.85695766       0.85598321       0.49360303 </v>
   <v>       0.04746372       0.09475910       0.49573591 </v>
   <v>       0.04676586       0.23713291       0.49584188 </v>
   <v>       0.04694902       0.38042983       0.49684455 </v>
   <v>       0.04741881       0.52328122       0.49777423 </v>
   <v>       0.04748856       0.66612647       0.49771830 </v>
   <v>       0.04750007       0.80901671       0.49691208 </v>
   <v>       0.04770331       0.95205771       0.49598548 </v>
   <v>       0.19096922       0.09554085       0.49499156 </v>
   <v>       0.19025010       0.23816999       0.49330947 </v>
   <v>       0.18890045       0.38043914       0.49228727 </v>
   <v>       0.19072133       0.52423642       0.49448863 </v>
   <v>       0.19031382       0.66657796       0.49653224 </v>
   <v>       0.19023343       0.80951825       0.49734473 </v>
   <v>       0.19082005       0.95261660       0.49660366 </v>
   <v>       0.33431753       0.09620341       0.49536388 </v>
   <v>       0.33544844       0.23926442       0.49291367 </v>
   <v>       0.33001624       0.38016735       0.48621660 </v>
   <v>       0.33074852       0.52317309       0.48592087 </v>
   <v>       0.33643950       0.67023271       0.49279238 </v>
   <v>       0.33250821       0.80972233       0.49572354 </v>
   <v>       0.33314606       0.95261622       0.49644246 </v>
   <v>       0.47643163       0.09510853       0.49593371 </v>
   <v>       0.47758240       0.23944056       0.49486073 </v>
   <v>       0.47172290       0.80572067       0.49355446 </v>
   <v>       0.47562828       0.95191585       0.49546141 </v>
   <v>       0.61854844       0.09416601       0.49645230 </v>
   <v>       0.61983236       0.23756205       0.49655973 </v>
   <v>       0.61829104       0.81028455       0.49156523 </v>
   <v>       0.61733764       0.95046197       0.49465505 </v>
   <v>       0.76106265       0.09356402       0.49627203 </v>
   <v>       0.76194804       0.23645453       0.49760908 </v>
   <v>       0.76150542       0.37905034       0.49686719 </v>
   <v>       0.76014030       0.52181414       0.49345827 </v>
   <v>       0.76223432       0.66484268       0.48945665 </v>
   <v>       0.76114001       0.80693445       0.49025736 </v>
   <v>       0.76052521       0.95050111       0.49386830 </v>
   <v>       0.90387359       0.09365945       0.49598754 </v>
   <v>       0.90419991       0.23682996       0.49734398 </v>
   <v>       0.90427602       0.38002254       0.49808861 </v>
   <v>       0.90440637       0.52282823       0.49725882 </v>
   <v>       0.90451759       0.66520789       0.49551308 </v>
   <v>       0.90472094       0.80856940       0.49437964 </v>
   <v>       0.90429749       0.95118754       0.49494715 </v>
   <v>       0.46772912       0.35693494       0.49512118 </v>
   <v>       0.40241929       0.41892740       0.48423777 </v>
   <v>       0.40325708       0.55862664       0.48199386 </v>
   <v>       0.64533616       0.67844288       0.48016851 </v>
   <v>       0.64326110       0.53196547       0.48915457 </v>
   <v>       0.57884426       0.73766312       0.49025653 </v>
   <v>       0.52300252       0.58431969       0.57861951 </v>
   <v>       0.55785656       0.57054425       0.48885158 </v>
   <v>       0.42653573       0.71524128       0.49245919 </v>
   <v>       0.62072853       0.37874325       0.49409624 </v>
   <v>       0.51368684       0.53886081       0.53488800 </v>
  </varray>
  <varray name="selective"  type="logical" >
   <v type="logical" >  T  T  T </v>
   <v type="logical" >  T  T  T </v>
   <v type="logical" >  T  T  T </v>
   <v type="logical" >  T  T  T </v>
   <v type="logical" >  T  T  T </v>
   <v type="logical" >  T  T  T </v>
   <v type="logical" >  T  T  T </v>
   <v type="logical" >  T  T  T </v>
   <v type="logical" >  T  T  T </v>
   <v type="logical" >  T  T  T </v>
   <v type="logical" >  T  T  T </v>
   <v type="logical" >  T  T  T </v>
   <v type="logical" >  T  T  T </v>
   <v type="logical" >  T  T  T </v>
   <v type="logical" >  T  T  T </v>
   <v type="logical" >  T  T  T </v>
   <v type="logical" >  T  T  T </v>
   <v type="logical" >  T  T  T </v>
   <v type="logical" >  T  T  T </v>
   <v type="logical" >  T  T  T </v>
   <v type="logical" >  T  T  T </v>
   <v type="logical" >  T  T  T </v>
   <v type="logical" >  T  T  T </v>
   <v type="logical" >  T  T  T </v>
   <v type="logical" >  T  T  T </v>
   <v type="logical" >  T  T  T </v>
   <v type="logical" >  T  T  T </v>
   <v type="logical" >  T  T  T </v>
   <v type="logical" >  T  T  T </v>
   <v type="logical" >  T  T  T </v>
   <v type="logical" >  T  T  T </v>
   <v type="logical" >  T  T  T </v>
   <v type="logical" >  T  T  T </v>
   <v type="logical" >  T  T  T </v>
   <v type="logical" >  T  T  T </v>
   <v type="logical" >  T  T  T </v>
   <v type="logical" >  T  T  T </v>
   <v type="logical" >  T  T  T </v>
   <v type="logical" >  T  T  T </v>
   <v type="logical" >  T  T  T </v>
   <v type="logical" >  T  T  T </v>
   <v type="logical" >  T  T  T </v>
   <v type="logical" >  T  T  T </v>
   <v type="logical" >  T  T  T </v>
   <v type="logical" >  T  T  T </v>
   <v type="logical" >  T  T  T </v>
   <v type="logical" >  T  T  T </v>
   <v type="logical" >  T  T  T </v>
   <v type="logical" >  T  T  T </v>
   <v type="logical" >  T  T  T </v>
   <v type="logical" >  T  T  T </v>
   <v type="logical" >  T  T  T </v>
   <v type="logical" >  T  T  T </v>
   <v type="logical" >  T  T  T </v>
   <v type="logical" >  T  T  T </v>
   <v type="logical" >  T  T  T </v>
   <v type="logical" >  T  T  T </v>
   <v type="logical" >  T  T  T </v>
   <v type="logical" >  T  T  T </v>
   <v type="logical" >  T  T  T </v>
   <v type="logical" >  T  T  T </v>
   <v type="logical" >  T  T  T </v>
   <v type="logical" >  T  T  T </v>
   <v type="logical" >  T  T  T </v>
   <v type="logical" >  T  T  T </v>
   <v type="logical" >  T  T  T </v>
   <v type="logical" >  T  T  T </v>
   <v type="logical" >  T  T  T </v>
   <v type="logical" >  T  T  T </v>
   <v type="logical" >  T  T  T </v>
   <v type="logical" >  T  T  T </v>
   <v type="logical" >  T  T  T </v>
   <v type="logical" >  T  T  T </v>
   <v type="logical" >  T  T  T </v>
   <v type="logical" >  T  T  T </v>
   <v type="logical" >  T  T  T </v>
   <v type="logical" >  T  T  T </v>
   <v type="logical" >  T  T  T </v>
   <v type="logical" >  T  T  T </v>
   <v type="logical" >  T  T  T </v>
   <v type="logical" >  T  T  T </v>
   <v type="logical" >  T  T  T </v>
   <v type="logical" >  T  T  T </v>
   <v type="logical" >  T  T  T </v>
   <v type="logical" >  T  T  T </v>
   <v type="logical" >  T  T  T </v>
   <v type="logical" >  T  T  T </v>
   <v type="logical" >  T  T  T </v>
   <v type="logical" >  T  T  T </v>
   <v type="logical" >  T  T  T </v>
   <v type="logical" >  T  T  T </v>
   <v type="logical" >  T  T  T </v>
   <v type="logical" >  T  T  T </v>
   <v type="logical" >  T  T  T </v>
   <v type="logical" >  T  T  T </v>
   <v type="logical" >  T  T  T </v>
   <v type="logical" >  T  T  T </v>
  </varray>
  <nose>
   <v>      -3.00000000       0.00000000       0.00010000       0.00010000 </v>
  </nose>
 </structure>
 <calculation>
  <scstep>
   <time name="dav">   79.72   80.26</time>
   <time name="total">   85.34   85.92</time>
   <energy>
    <i name="alphaZ">    175.87611319 </i>
    <i name="ewald">  36599.89086806 </i>
    <i name="hartreedc"> -46796.88760570 </i>
    <i name="XCdc">   1224.21253142 </i>
    <i name="pawpsdc">  10101.41315093 </i>
    <i name="pawaedc"> -10154.35997595 </i>
    <i name="eentropy">     -0.05268194 </i>
    <i name="bandstr">  -1606.04633370 </i>
    <i name="atom">  13716.13071916 </i>
    <i name="e_fr_energy">   3260.17678547 </i>
    <i name="e_wo_entrp">   3260.22946741 </i>
    <i name="e_0_energy">   3260.20312644 </i>
   </energy>
  </scstep>
  <scstep>
   <time name="dav">  103.60  104.34</time>
   <time name="total">  103.60  104.34</time>
   <energy>
    <i name="e_fr_energy">   -252.79762565 </i>
    <i name="e_wo_entrp">   -252.79762517 </i>
    <i name="e_0_energy">   -252.79762541 </i>
   </energy>
  </scstep>
  <scstep>
   <time name="dav">   88.90   89.52</time>
   <time name="total">   88.90   89.54</time>
   <energy>
    <i name="e_fr_energy">   -864.41156759 </i>
    <i name="e_wo_entrp">   -864.41154374 </i>
    <i name="e_0_energy">   -864.41155567 </i>
   </energy>
  </scstep>
  <scstep>
   <time name="dav">   89.84   90.55</time>
   <time name="total">   89.84   90.56</time>
   <energy>
    <i name="e_fr_energy">   -886.40038645 </i>
    <i name="e_wo_entrp">   -886.40034666 </i>
    <i name="e_0_energy">   -886.40036655 </i>
   </energy>
  </scstep>
  <scstep>
   <time name="dav">   98.74   99.49</time>
   <time name="total">  103.81  104.59</time>
   <energy>
    <i name="e_fr_energy">   -887.02681507 </i>
    <i name="e_wo_entrp">   -887.02677283 </i>
    <i name="e_0_energy">   -887.02679395 </i>
   </energy>
  </scstep>
  <scstep>
   <time name="dav">   84.82   85.40</time>
   <time name="total">   95.46   96.10</time>
   <energy>
    <i name="e_fr_energy">   -869.67321472 </i>
    <i name="e_wo_entrp">   -869.66811677 </i>
    <i name="e_0_energy">   -869.67066574 </i>
   </energy>
  </scstep>
  <scstep>
   <time name="dav">   83.05   83.75</time>
   <time name="total">   94.39   95.17</time>
   <energy>
    <i name="e_fr_energy">   -847.43788619 </i>
    <i name="e_wo_entrp">   -847.43782644 </i>
    <i name="e_0_energy">   -847.43785631 </i>
   </energy>
  </scstep>
  <scstep>
   <time name="dav">   83.95   84.54</time>
   <time name="total">   95.42   96.17</time>
   <energy>
    <i name="e_fr_energy">   -842.59839597 </i>
    <i name="e_wo_entrp">   -842.59839425 </i>
    <i name="e_0_energy">   -842.59839511 </i>
   </energy>
  </scstep>
  <scstep>
   <time name="dav">   82.37   82.96</time>
   <time name="total">   93.57   94.25</time>
   <energy>
    <i name="e_fr_energy">   -842.47121403 </i>
    <i name="e_wo_entrp">   -842.47121263 </i>
    <i name="e_0_energy">   -842.47121333 </i>
   </energy>
  </scstep>
  <scstep>
   <time name="dav">   80.87   81.50</time>
   <time name="total">   92.74   93.45</time>
   <energy>
    <i name="e_fr_energy">   -842.38805085 </i>
    <i name="e_wo_entrp">   -842.38804940 </i>
    <i name="e_0_energy">   -842.38805013 </i>
   </energy>
  </scstep>
  <scstep>
   <time name="dav">   79.95   80.66</time>
   <time name="total">   91.94   92.72</time>
   <energy>
    <i name="e_fr_energy">   -842.37573829 </i>
    <i name="e_wo_entrp">   -842.37573703 </i>
    <i name="e_0_energy">   -842.37573766 </i>
   </energy>
  </scstep>
  <scstep>
   <time name="dav">   85.54   86.17</time>
   <time name="total">   97.53   98.24</time>
   <energy>
    <i name="e_fr_energy">   -842.37497706 </i>
    <i name="e_wo_entrp">   -842.37497584 </i>
    <i name="e_0_energy">   -842.37497645 </i>
   </energy>
  </scstep>
  <scstep>
   <time name="dav">   84.00   84.60</time>
   <time name="total">   96.03   96.72</time>
   <energy>
    <i name="e_fr_energy">   -842.37473810 </i>
    <i name="e_wo_entrp">   -842.37473685 </i>
    <i name="e_0_energy">   -842.37473748 </i>
   </energy>
  </scstep>
  <scstep>
   <time name="dav">   79.99   80.61</time>
   <time name="total">   92.13   92.85</time>
   <energy>
    <i name="e_fr_energy">   -842.37483024 </i>
    <i name="e_wo_entrp">   -842.37482899 </i>
    <i name="e_0_energy">   -842.37482961 </i>
   </energy>
  </scstep>
  <scstep>
   <time name="dav">   86.43   87.05</time>
   <time name="total">   98.57   99.28</time>
   <energy>
    <i name="e_fr_energy">   -842.37487603 </i>
    <i name="e_wo_entrp">   -842.37487478 </i>
    <i name="e_0_energy">   -842.37487541 </i>
   </energy>
  </scstep>
  <scstep>
   <time name="dav">   81.18   81.72</time>
   <time name="total">   93.32   93.95</time>
   <energy>
    <i name="e_fr_energy">   -842.37487955 </i>
    <i name="e_wo_entrp">   -842.37487829 </i>
    <i name="e_0_energy">   -842.37487892 </i>
   </energy>
  </scstep>
  <scstep>
   <time name="dav">   86.34   86.93</time>
   <time name="total">   98.52   99.20</time>
   <energy>
    <i name="e_fr_energy">   -842.37487983 </i>
    <i name="e_wo_entrp">   -842.37487858 </i>
    <i name="e_0_energy">   -842.37487921 </i>
   </energy>
  </scstep>
  <scstep>
   <time name="dav">   48.73   49.04</time>
   <time name="total">   54.93   55.28</time>
   <energy>
    <i name="alphaZ">    175.87611319 </i>
    <i name="ewald">  36599.89086806 </i>
    <i name="hartreedc"> -48314.22906533 </i>
    <i name="XCdc">   1274.21843136 </i>
    <i name="pawpsdc">  37302.27719502 </i>
    <i name="pawaedc"> -37366.11049909 </i>
    <i name="eentropy">     -0.00000125 </i>
    <i name="bandstr">  -4230.42864041 </i>
    <i name="atom">  13716.13071916 </i>
    <i name="e_fr_energy">   -842.37487930 </i>
    <i name="e_wo_entrp">   -842.37487805 </i>
    <i name="e_0_energy">   -842.37487867 </i>
   </energy>
  </scstep>
  <structure>
   <crystal>
    <varray name="basis" >
     <v>      17.27103806       0.00000000       0.00000000 </v>
     <v>      -8.63551903      14.95715771       0.00000000 </v>
     <v>       0.00000000       0.00000000      15.00000000 </v>
    </varray>
    <i name="volume">   3874.88459904 </i>
    <varray name="rec_basis" >
     <v>       0.05790040       0.03342881       0.00000000 </v>
     <v>       0.00000000       0.06685762       0.00000000 </v>
     <v>       0.00000000       0.00000000       0.06666667 </v>
    </varray>
   </crystal>
   <varray name="positions" >
    <v>       0.99968345       0.99933430       0.49564377 </v>
    <v>       0.99936067       0.14193669       0.49601483 </v>
    <v>       0.99951420       0.28497506       0.49683111 </v>
    <v>       0.99955906       0.42791205       0.49784278 </v>
    <v>       0.99969199       0.57074349       0.49782970 </v>
    <v>       0.00004955       0.71358903       0.49707159 </v>
    <v>       0.00021138       0.85681731       0.49598457 </v>
    <v>       0.14323026       0.00039871       0.49601663 </v>
    <v>       0.14285365       0.14294694       0.49490403 </v>
    <v>       0.14217932       0.28528490       0.49388797 </v>
    <v>       0.14240606       0.42871409       0.49465706 </v>
    <v>       0.14269622       0.57113683       0.49663625 </v>
    <v>       0.14281834       0.71397905       0.49747611 </v>
    <v>       0.14286444       0.85719086       0.49723127 </v>
    <v>       0.28606412       0.00049735       0.49631733 </v>
    <v>       0.28665589       0.14369042       0.49436785 </v>
    <v>       0.28615665       0.28741874       0.49073378 </v>
    <v>       0.28423834       0.42855862       0.48757507 </v>
    <v>       0.28697985       0.57195783       0.49104576 </v>
    <v>       0.28566718       0.71488530       0.49515442 </v>
    <v>       0.28516858       0.85753663       0.49673621 </v>
    <v>       0.42855136       0.99993815       0.49592817 </v>
    <v>       0.42975353       0.14374312       0.49532927 </v>
    <v>       0.42899950       0.28426225       0.49407663 </v>
    <v>       0.42727286       0.85648006       0.49488059 </v>
    <v>       0.57062819       0.99903256       0.49555855 </v>
    <v>       0.57144565       0.14213981       0.49644053 </v>
    <v>       0.57535745       0.28832233       0.49531398 </v>
    <v>       0.56946998       0.85481598       0.49326847 </v>
    <v>       0.71276760       0.99787817       0.49498538 </v>
    <v>       0.71393364       0.14140588       0.49695116 </v>
    <v>       0.71457188       0.28423359       0.49725115 </v>
    <v>       0.71072137       0.42354635       0.49493943 </v>
    <v>       0.71597154       0.57024002       0.48968435 </v>
    <v>       0.71764706       0.71427099       0.48619887 </v>
    <v>       0.71176461       0.85499240       0.49154763 </v>
    <v>       0.85616474       0.99857242       0.49491620 </v>
    <v>       0.85628056       0.14143125       0.49659742 </v>
    <v>       0.85685140       0.28449060       0.49784143 </v>
    <v>       0.85682523       0.42739354       0.49755892 </v>
    <v>       0.85636727       0.56969254       0.49558465 </v>
    <v>       0.85781827       0.71331996       0.49345333 </v>
    <v>       0.85695766       0.85598321       0.49360303 </v>
    <v>       0.04746372       0.09475910       0.49573591 </v>
    <v>       0.04676586       0.23713291       0.49584188 </v>
    <v>       0.04694902       0.38042983       0.49684455 </v>
    <v>       0.04741881       0.52328122       0.49777423 </v>
    <v>       0.04748856       0.66612647       0.49771830 </v>
    <v>       0.04750007       0.80901671       0.49691208 </v>
    <v>       0.04770331       0.95205771       0.49598548 </v>
    <v>       0.19096922       0.09554085       0.49499156 </v>
    <v>       0.19025010       0.23816999       0.49330947 </v>
    <v>       0.18890045       0.38043914       0.49228727 </v>
    <v>       0.19072133       0.52423642       0.49448863 </v>
    <v>       0.19031382       0.66657796       0.49653224 </v>
    <v>       0.19023343       0.80951825       0.49734473 </v>
    <v>       0.19082005       0.95261660       0.49660366 </v>
    <v>       0.33431753       0.09620341       0.49536388 </v>
    <v>       0.33544844       0.23926442       0.49291367 </v>
    <v>       0.33001624       0.38016735       0.48621660 </v>
    <v>       0.33074852       0.52317309       0.48592087 </v>
    <v>       0.33643950       0.67023271       0.49279238 </v>
    <v>       0.33250821       0.80972233       0.49572354 </v>
    <v>       0.33314606       0.95261622       0.49644246 </v>
    <v>       0.47643163       0.09510853       0.49593371 </v>
    <v>       0.47758240       0.23944056       0.49486073 </v>
    <v>       0.47172290       0.80572067       0.49355446 </v>
    <v>       0.47562828       0.95191585       0.49546141 </v>
    <v>       0.61854844       0.09416601       0.49645230 </v>
    <v>       0.61983236       0.23756205       0.49655973 </v>
    <v>       0.61829104       0.81028455       0.49156523 </v>
    <v>       0.61733764       0.95046197       0.49465505 </v>
    <v>       0.76106265       0.09356402       0.49627203 </v>
    <v>       0.76194804       0.23645453       0.49760908 </v>
    <v>       0.76150542       0.37905034       0.49686719 </v>
    <v>       0.76014030       0.52181414       0.49345827 </v>
    <v>       0.76223432       0.66484268       0.48945665 </v>
    <v>       0.76114001       0.80693445       0.49025736 </v>
    <v>       0.76052521       0.95050111       0.49386830 </v>
    <v>       0.90387359       0.09365945       0.49598754 </v>
    <v>       0.90419991       0.23682996       0.49734398 </v>
    <v>       0.90427602       0.38002254       0.49808861 </v>
    <v>       0.90440637       0.52282823       0.49725882 </v>
    <v>       0.90451759       0.66520789       0.49551308 </v>
    <v>       0.90472094       0.80856940       0.49437964 </v>
    <v>       0.90429749       0.95118754       0.49494715 </v>
    <v>       0.46772912       0.35693494       0.49512118 </v>
    <v>       0.40241929       0.41892740       0.48423777 </v>
    <v>       0.40325708       0.55862664       0.48199386 </v>
    <v>       0.64533616       0.67844288       0.48016851 </v>
    <v>       0.64326110       0.53196547       0.48915457 </v>
    <v>       0.57884426       0.73766312       0.49025653 </v>
    <v>       0.52300252       0.58431969       0.57861951 </v>
    <v>       0.55785656       0.57054425       0.48885158 </v>
    <v>       0.42653573       0.71524128       0.49245919 </v>
    <v>       0.62072853       0.37874325       0.49409624 </v>
    <v>       0.51368684       0.53886081       0.53488800 </v>
   </varray>
  </structure>
  <varray name="forces" >
   <v>      -0.00009247      -0.00166189      -0.00444485 </v>
   <v>      -0.00235509      -0.00028831      -0.00083590 </v>
   <v>      -0.00465948       0.00714690      -0.00340355 </v>
   <v>       0.00010127       0.00376533      -0.00618093 </v>
   <v>       0.00023211      -0.00204689      -0.00335349 </v>
   <v>       0.00177589      -0.00429953       0.00022948 </v>
   <v>      -0.00008478      -0.00124345      -0.00151009 </v>
   <v>      -0.00068108      -0.00197839       0.00062311 </v>
   <v>       0.00002916       0.00153587      -0.00242459 </v>
   <v>      -0.00617233      -0.00213186      -0.00414526 </v>
   <v>      -0.00252741       0.00508168      -0.00249952 </v>
   <v>       0.00130657      -0.00135523      -0.00456921 </v>
   <v>      -0.00216204       0.00141239       0.00123481 </v>
   <v>      -0.00020613      -0.00263404      -0.00181225 </v>
   <v>      -0.00275555      -0.00195319      -0.00020279 </v>
   <v>       0.00075181       0.00137544      -0.00073351 </v>
   <v>      -0.00059051       0.00318007      -0.00358370 </v>
   <v>      -0.00022680       0.00782256      -0.00188721 </v>
   <v>      -0.00039866       0.00114139      -0.00247619 </v>
   <v>      -0.00169776      -0.00419626       0.00047732 </v>
   <v>      -0.00062035      -0.00370322      -0.00081746 </v>
   <v>      -0.00136286       0.00027610       0.00020155 </v>
   <v>       0.00130991      -0.00019322      -0.00184059 </v>
   <v>      -0.00333550       0.00226906      -0.00007155 </v>
   <v>      -0.00010124      -0.00261113      -0.00108175 </v>
   <v>       0.00262713      -0.00138696      -0.00266002 </v>
   <v>      -0.00030410       0.00037127      -0.00110327 </v>
   <v>       0.00069867       0.00266407      -0.00081808 </v>
   <v>       0.00064318      -0.00222444      -0.00084307 </v>
   <v>       0.00264018      -0.00221158      -0.00052308 </v>
   <v>       0.00004917       0.00396228      -0.00288176 </v>
   <v>       0.00072215       0.00475146      -0.00465399 </v>
   <v>       0.00240714       0.00199183      -0.00379347 </v>
   <v>       0.00216464      -0.00101829       0.00010736 </v>
   <v>       0.00149607       0.00196616      -0.00187935 </v>
   <v>       0.00032939      -0.00049193      -0.00198388 </v>
   <v>      -0.00228742      -0.00080661      -0.00345880 </v>
   <v>      -0.00177022      -0.00072378      -0.00191069 </v>
   <v>       0.00097507       0.00365541      -0.00201966 </v>
   <v>       0.00051660       0.00188975      -0.00689759 </v>
   <v>       0.00058417      -0.00229618      -0.00424406 </v>
   <v>       0.00404813      -0.00161220      -0.00206852 </v>
   <v>      -0.00024939       0.00009979      -0.00144910 </v>
   <v>      -0.00232884      -0.00065518      -0.00394919 </v>
   <v>       0.00301319      -0.00036195      -0.00237420 </v>
   <v>      -0.00064440      -0.00595161      -0.00292341 </v>
   <v>       0.00071314       0.00044095      -0.00327127 </v>
   <v>      -0.00300697       0.00159327      -0.00010508 </v>
   <v>       0.00339463       0.00270671      -0.00160888 </v>
   <v>      -0.00070997       0.00203486      -0.00279450 </v>
   <v>       0.00051597       0.00003924      -0.00226056 </v>
   <v>      -0.00158660       0.00059378      -0.00368153 </v>
   <v>       0.00069332      -0.00460150      -0.00070022 </v>
   <v>       0.00079751      -0.00145280      -0.00499970 </v>
   <v>       0.00287346       0.00208655      -0.00267715 </v>
   <v>       0.00011312       0.00033850      -0.00227855 </v>
   <v>       0.00001440       0.00260878       0.00029759 </v>
   <v>      -0.00111317      -0.00012605      -0.00020475 </v>
   <v>      -0.00037101       0.00032950       0.00104889 </v>
   <v>       0.00098946      -0.00535442      -0.00172163 </v>
   <v>       0.00288871      -0.00234540      -0.00089853 </v>
   <v>       0.00139918       0.00117451      -0.00090402 </v>
   <v>       0.00145110       0.00455560       0.00031455 </v>
   <v>       0.00021907       0.00255936       0.00004334 </v>
   <v>       0.00100372      -0.00041220      -0.00077501 </v>
   <v>       0.00384399       0.00027839       0.00128398 </v>
   <v>       0.00016658       0.00218894      -0.00152117 </v>
   <v>      -0.00198280      -0.00059507       0.00028060 </v>
   <v>      -0.00031163      -0.00018440       0.00024899 </v>
   <v>      -0.00125134      -0.00086109      -0.00029250 </v>
   <v>      -0.00217907      -0.00011193      -0.00131556 </v>
   <v>      -0.00185336       0.00099847      -0.00304792 </v>
   <v>      -0.00027942       0.00000011       0.00188683 </v>
   <v>      -0.00220275      -0.00177529      -0.00376690 </v>
   <v>      -0.00317155      -0.00429933      -0.00463312 </v>
   <v>      -0.00252572       0.00142527      -0.00344120 </v>
   <v>      -0.00270191       0.00090230      -0.00029685 </v>
   <v>      -0.00062907      -0.00213035      -0.00204716 </v>
   <v>       0.00000250      -0.00003547      -0.00010732 </v>
   <v>       0.00233411      -0.00008803      -0.00186716 </v>
   <v>      -0.00027944      -0.00115308      -0.00469204 </v>
   <v>      -0.00032329      -0.00385051      -0.00634609 </v>
   <v>      -0.00324363       0.00100702      -0.00455986 </v>
   <v>      -0.00286421       0.00200725      -0.00326691 </v>
   <v>      -0.00159672       0.00113455      -0.00079281 </v>
   <v>      -0.00087205       0.00223810      -0.00194147 </v>
   <v>       0.00024758      -0.00077322      -0.00131319 </v>
   <v>       0.00050762       0.00114921       0.00030849 </v>
   <v>      -0.00084844      -0.00078144       0.00368385 </v>
   <v>       0.00081976       0.00018552      -0.00126460 </v>
   <v>      -0.00103522       0.00072282       0.00011772 </v>
   <v>       0.00023237       0.00032206      -0.00162448 </v>
   <v>       0.02407475      -0.00859334       0.01845187 </v>
   <v>      -0.00591059       0.00688179       0.00249471 </v>
   <v>      -0.00115887      -0.00212838      -0.00178970 </v>
   <v>      -0.00082866      -0.00215511      -0.00086557 </v>
   <v>       0.00473418      -0.00501647       0.14664947 </v>
  </varray>
  <varray name="stress" >
   <v>       2.45407704      -2.78046930       0.02555857 </v>
   <v>      -2.78046933      -4.36957398      -0.00706648 </v>
   <v>       0.02555757      -0.00706645      -0.22470336 </v>
  </varray>
  <energy>
   <i name="e_fr_energy">   -850.13013523 </i>
   <i name="e_wo_entrp">   -850.13013398 </i>
   <i name="e_0_energy">   -850.13013460 </i>
  </energy>
  <time name="totalsc"> 1801.51 1814.78</time>
 </calculation>
 <calculation>
  <scstep>
   <time name="dav">   77.81   78.33</time>
   <time name="total">   89.29   89.90</time>
   <energy>
    <i name="alphaZ">    175.87611319 </i>
    <i name="ewald">  36599.80180783 </i>
    <i name="hartreedc"> -48314.11357400 </i>
    <i name="XCdc">   1274.21893030 </i>
    <i name="pawpsdc">  37302.21451806 </i>
    <i name="pawaedc"> -37366.04773248 </i>
    <i name="eentropy">     -0.00000125 </i>
    <i name="bandstr">  -4230.45577567 </i>
    <i name="atom">  13716.13071916 </i>
    <i name="e_fr_energy">   -842.37499487 </i>
    <i name="e_wo_entrp">   -842.37499362 </i>
    <i name="e_0_energy">   -842.37499425 </i>
   </energy>
  </scstep>
  <scstep>
   <time name="dav">   79.99   80.57</time>
   <time name="total">   91.14   91.80</time>
   <energy>
    <i name="e_fr_energy">   -842.37500497 </i>
    <i name="e_wo_entrp">   -842.37500372 </i>
    <i name="e_0_energy">   -842.37500434 </i>
   </energy>
  </scstep>
  <scstep>
   <time name="dav">   70.98   71.43</time>
   <time name="total">   80.19   80.69</time>
   <energy>
    <i name="e_fr_energy">   -842.37500204 </i>
    <i name="e_wo_entrp">   -842.37500079 </i>
    <i name="e_0_energy">   -842.37500142 </i>
   </energy>
  </scstep>
  <scstep>
   <time name="dav">   42.83   43.02</time>
   <time name="total">   50.08   50.32</time>
   <energy>
    <i name="e_fr_energy">   -842.37500422 </i>
    <i name="e_wo_entrp">   -842.37500297 </i>
    <i name="e_0_energy">   -842.37500359 </i>
   </energy>
  </scstep>
  <scstep>
   <time name="dav">   37.11   37.29</time>
   <time name="total">   41.18   41.37</time>
   <energy>
    <i name="alphaZ">    175.87611319 </i>
    <i name="ewald">  36599.80180783 </i>
    <i name="hartreedc"> -48314.10485292 </i>
    <i name="XCdc">   1274.21943378 </i>
    <i name="pawpsdc">  37301.79885889 </i>
    <i name="pawaedc"> -37365.63246558 </i>
    <i name="eentropy">     -0.00000125 </i>
    <i name="bandstr">  -4230.46461778 </i>
    <i name="atom">  13716.13071916 </i>
    <i name="e_fr_energy">   -842.37500470 </i>
    <i name="e_wo_entrp">   -842.37500345 </i>
    <i name="e_0_energy">   -842.37500407 </i>
   </energy>
  </scstep>
  <structure>
   <crystal>
    <varray name="basis" >
     <v>      17.27103806       0.00000000       0.00000000 </v>
     <v>      -8.63551903      14.95715771       0.00000000 </v>
     <v>       0.00000000       0.00000000      15.00000000 </v>
    </varray>
    <i name="volume">   3874.88459904 </i>
    <varray name="rec_basis" >
     <v>       0.05790040       0.03342881       0.00000000 </v>
     <v>       0.00000000       0.06685762       0.00000000 </v>
     <v>       0.00000000       0.00000000       0.06666667 </v>
    </varray>
   </crystal>
   <varray name="positions" >
    <v>       0.99968339       0.99933336       0.49564101 </v>
    <v>       0.99935968       0.14193662       0.49601416 </v>
    <v>       0.99951427       0.28497992       0.49682833 </v>
    <v>       0.99956070       0.42791465       0.49783774 </v>
    <v>       0.99969178       0.57074224       0.49782688 </v>
    <v>       0.00004970       0.71358634       0.49707196 </v>
    <v>       0.00021156       0.85681674       0.49598421 </v>
    <v>       0.14322977       0.00039759       0.49601692 </v>
    <v>       0.14285468       0.14294812       0.49490268 </v>
    <v>       0.14217546       0.28528360       0.49388598 </v>
    <v>       0.14240660       0.42871756       0.49465588 </v>
    <v>       0.14269674       0.57113607       0.49663289 </v>
    <v>       0.14281801       0.71398016       0.49747632 </v>
    <v>       0.14286399       0.85718929       0.49722963 </v>
    <v>       0.28606239       0.00049621       0.49631722 </v>
    <v>       0.28665731       0.14369153       0.49436806 </v>
    <v>       0.28615783       0.28742101       0.49073329 </v>
    <v>       0.28424135       0.42856400       0.48757654 </v>
    <v>       0.28697992       0.57195874       0.49104576 </v>
    <v>       0.28566516       0.71488264       0.49515509 </v>
    <v>       0.28516748       0.85753430       0.49673544 </v>
    <v>       0.42855115       0.99993841       0.49592849 </v>
    <v>       0.42975472       0.14374311       0.49532881 </v>
    <v>       0.42899886       0.28426396       0.49407804 </v>
    <v>       0.42727240       0.85647833       0.49488048 </v>
    <v>       0.57062969       0.99903165       0.49555708 </v>
    <v>       0.57144604       0.14214015       0.49643997 </v>
    <v>       0.57535920       0.28832426       0.49531526 </v>
    <v>       0.56947012       0.85481445       0.49327022 </v>
    <v>       0.71276886       0.99787678       0.49498609 </v>
    <v>       0.71393540       0.14140862       0.49694882 </v>
    <v>       0.71457429       0.28423692       0.49724827 </v>
    <v>       0.71072380       0.42354796       0.49494030 </v>
    <v>       0.71597293       0.57023977       0.48969529 </v>
    <v>       0.71764901       0.71427233       0.48621113 </v>
    <v>       0.71176525       0.85499218       0.49155156 </v>
    <v>       0.85616368       0.99857201       0.49491521 </v>
    <v>       0.85627972       0.14143088       0.49659579 </v>
    <v>       0.85685355       0.28449314       0.49783930 </v>
    <v>       0.85682650       0.42739494       0.49755446 </v>
    <v>       0.85636724       0.56969120       0.49558428 </v>
    <v>       0.85782089       0.71331922       0.49345655 </v>
    <v>       0.85695815       0.85598345       0.49360546 </v>
    <v>       0.04746265       0.09475882       0.49573324 </v>
    <v>       0.04676790       0.23713279       0.49584024 </v>
    <v>       0.04694696       0.38042590       0.49684210 </v>
    <v>       0.04741964       0.52328161       0.49777123 </v>
    <v>       0.04748782       0.66612766       0.49771769 </v>
    <v>       0.04750352       0.80901872       0.49691102 </v>
    <v>       0.04770417       0.95205929       0.49598368 </v>
    <v>       0.19097008       0.09554107       0.49499030 </v>
    <v>       0.19024983       0.23817053       0.49330798 </v>
    <v>       0.18889972       0.38043619       0.49228819 </v>
    <v>       0.19072137       0.52423553       0.49448589 </v>
    <v>       0.19031654       0.66657950       0.49653019 </v>
    <v>       0.19023411       0.80951864       0.49734268 </v>
    <v>       0.19082148       0.95261853       0.49660365 </v>
    <v>       0.33431735       0.09620349       0.49536422 </v>
    <v>       0.33544886       0.23926482       0.49291574 </v>
    <v>       0.33001556       0.38016394       0.48621864 </v>
    <v>       0.33074909       0.52317158       0.48592317 </v>
    <v>       0.33644094       0.67023362       0.49279300 </v>
    <v>       0.33251104       0.80972550       0.49572393 </v>
    <v>       0.33314754       0.95261807       0.49644245 </v>
    <v>       0.47643254       0.09510833       0.49593357 </v>
    <v>       0.47758520       0.23944086       0.49486292 </v>
    <v>       0.47172422       0.80572211       0.49355490 </v>
    <v>       0.47562740       0.95191549       0.49546193 </v>
    <v>       0.61854861       0.09416592       0.49645237 </v>
    <v>       0.61983174       0.23756156       0.49656015 </v>
    <v>       0.61829034       0.81028452       0.49156890 </v>
    <v>       0.61733737       0.95046265       0.49465420 </v>
    <v>       0.76106291       0.09356411       0.49627318 </v>
    <v>       0.76194654       0.23645345       0.49760604 </v>
    <v>       0.76150248       0.37904763       0.49686515 </v>
    <v>       0.76013969       0.52181541       0.49346152 </v>
    <v>       0.76223402       0.66484378       0.48946664 </v>
    <v>       0.76113951       0.80693309       0.49026356 </v>
    <v>       0.76052572       0.95050119       0.49387067 </v>
    <v>       0.90387537       0.09365952       0.49598638 </v>
    <v>       0.90419975       0.23682929       0.49734008 </v>
    <v>       0.90427487       0.38002007       0.49808363 </v>
    <v>       0.90440519       0.52282906       0.49725613 </v>
    <v>       0.90451722       0.66520943       0.49551316 </v>
    <v>       0.90472110       0.80857043       0.49438192 </v>
    <v>       0.90429830       0.95118920       0.49494717 </v>
    <v>       0.46772977       0.35693463       0.49512155 </v>
    <v>       0.40242063       0.41892787       0.48424133 </v>
    <v>       0.40325579       0.55862810       0.48199900 </v>
    <v>       0.64533714       0.67844092       0.48018849 </v>
    <v>       0.64326129       0.53196822       0.48916832 </v>
    <v>       0.57884572       0.73766338       0.49026112 </v>
    <v>       0.52299645       0.58429789       0.57860519 </v>
    <v>       0.55782038       0.57054587       0.48881164 </v>
    <v>       0.42653462       0.71523976       0.49245965 </v>
    <v>       0.62072769       0.37874196       0.49409932 </v>
    <v>       0.51369758       0.53886234       0.53495624 </v>
   </varray>
  </structure>
  <varray name="forces" >
   <v>      -0.00059913       0.00002737      -0.00431476 </v>
   <v>      -0.00078390       0.00009149      -0.00111383 </v>
   <v>      -0.00143837       0.00099174      -0.00345959 </v>
   <v>      -0.00009732       0.00046704      -0.00599430 </v>
   <v>      -0.00047999      -0.00036119      -0.00324686 </v>
   <v>      -0.00015491      -0.00057142      -0.00001820 </v>
   <v>       0.00022355       0.00029073      -0.00153795 </v>
   <v>      -0.00040065       0.00003732       0.00033198 </v>
   <v>      -0.00050113       0.00095935      -0.00260928 </v>
   <v>       0.00050063      -0.00191559      -0.00470967 </v>
   <v>      -0.00079469      -0.00226395      -0.00198261 </v>
   <v>       0.00108823       0.00029443      -0.00449892 </v>
   <v>      -0.00097592       0.00095020       0.00085685 </v>
   <v>       0.00049866       0.00037647      -0.00176352 </v>
   <v>      -0.00124141      -0.00006834      -0.00016363 </v>
   <v>       0.00025010       0.00061945      -0.00061315 </v>
   <v>      -0.00097979      -0.00012435      -0.00317130 </v>
   <v>      -0.00042751      -0.00166250      -0.00271917 </v>
   <v>       0.00103214       0.00027772      -0.00258983 </v>
   <v>      -0.00003449       0.00024813       0.00030856 </v>
   <v>       0.00037139       0.00004174      -0.00081348 </v>
   <v>      -0.00056588       0.00024119       0.00022129 </v>
   <v>       0.00097788       0.00002925      -0.00153354 </v>
   <v>      -0.00039627       0.00008975       0.00009477 </v>
   <v>       0.00026713       0.00015788      -0.00089789 </v>
   <v>       0.00016629      -0.00044831      -0.00239432 </v>
   <v>       0.00008295       0.00013612      -0.00091010 </v>
   <v>       0.00071952       0.00071145      -0.00058454 </v>
   <v>      -0.00074310      -0.00043196      -0.00098405 </v>
   <v>       0.00042034      -0.00076436      -0.00036730 </v>
   <v>      -0.00061170       0.00132561      -0.00253058 </v>
   <v>      -0.00092184       0.00013604      -0.00445558 </v>
   <v>      -0.00046018       0.00047535      -0.00366987 </v>
   <v>      -0.00098739       0.00066008      -0.00016553 </v>
   <v>       0.00068557       0.00030831      -0.00192469 </v>
   <v>      -0.00125535      -0.00053251      -0.00332120 </v>
   <v>      -0.00081727       0.00030577      -0.00310142 </v>
   <v>      -0.00033580      -0.00063675      -0.00182409 </v>
   <v>      -0.00016343      -0.00016551      -0.00249804 </v>
   <v>      -0.00083923      -0.00044676      -0.00679426 </v>
   <v>      -0.00132241       0.00008017      -0.00423786 </v>
   <v>       0.00022935       0.00014826      -0.00195940 </v>
   <v>      -0.00063906       0.00074701      -0.00132628 </v>
   <v>      -0.00126549      -0.00029505      -0.00378398 </v>
   <v>      -0.00209330       0.00049458      -0.00234502 </v>
   <v>      -0.00144420       0.00175289      -0.00181674 </v>
   <v>       0.00053511       0.00075603      -0.00356104 </v>
   <v>      -0.00084088      -0.00074363      -0.00006632 </v>
   <v>       0.00157690      -0.00026442      -0.00147943 </v>
   <v>      -0.00047029      -0.00017075      -0.00268215 </v>
   <v>       0.00031130       0.00006252      -0.00203705 </v>
   <v>      -0.00171592       0.00065138      -0.00368982 </v>
   <v>      -0.00105396       0.00048908      -0.00100826 </v>
   <v>       0.00033641       0.00008525      -0.00329127 </v>
   <v>       0.00021005       0.00021408      -0.00237566 </v>
   <v>      -0.00028671      -0.00077345      -0.00199908 </v>
   <v>      -0.00079337      -0.00024913       0.00025757 </v>
   <v>      -0.00038348       0.00006521      -0.00027995 </v>
   <v>      -0.00014060      -0.00164532      -0.00057285 </v>
   <v>       0.00010698       0.00052182      -0.00205884 </v>
   <v>       0.00060526       0.00073686      -0.00079292 </v>
   <v>      -0.00001165      -0.00039363      -0.00092375 </v>
   <v>       0.00007321      -0.00020201       0.00028672 </v>
   <v>      -0.00195183      -0.00099040      -0.00118874 </v>
   <v>       0.00046658      -0.00001236      -0.00079312 </v>
   <v>      -0.00012220       0.00186402      -0.00032230 </v>
   <v>       0.00040807      -0.00025243      -0.00146945 </v>
   <v>      -0.00065022      -0.00074005       0.00009267 </v>
   <v>       0.00039797       0.00026816      -0.00012161 </v>
   <v>       0.00026828       0.00053191      -0.00053722 </v>
   <v>      -0.00031700      -0.00023848      -0.00129681 </v>
   <v>       0.00046563      -0.00038016      -0.00286483 </v>
   <v>      -0.00018837      -0.00016934       0.00142243 </v>
   <v>      -0.00054992       0.00163555      -0.00372968 </v>
   <v>      -0.00041780       0.00039138      -0.00478692 </v>
   <v>       0.00028706       0.00000465      -0.00323609 </v>
   <v>       0.00002545       0.00003067      -0.00019594 </v>
   <v>      -0.00053058       0.00029549      -0.00192349 </v>
   <v>       0.00023480      -0.00087304      -0.00032017 </v>
   <v>      -0.00037282      -0.00031442      -0.00189728 </v>
   <v>      -0.00091027       0.00041364      -0.00436888 </v>
   <v>      -0.00026197       0.00162728      -0.00475275 </v>
   <v>      -0.00095141       0.00008619      -0.00467179 </v>
   <v>       0.00001225      -0.00055740      -0.00303543 </v>
   <v>      -0.00022632       0.00028582      -0.00084383 </v>
   <v>      -0.00107136       0.00052663      -0.00215982 </v>
   <v>       0.00012253       0.00025228      -0.00120760 </v>
   <v>       0.00004352       0.00054277       0.00052010 </v>
   <v>       0.00022521      -0.00037116       0.00374113 </v>
   <v>       0.00076851       0.00012387      -0.00110048 </v>
   <v>      -0.00076686       0.00097274       0.00035740 </v>
   <v>       0.00011203       0.00016747      -0.00157720 </v>
   <v>       0.01187661       0.02906921       0.05351172 </v>
   <v>      -0.02525148      -0.01071877       0.02979566 </v>
   <v>       0.00034091       0.00003624      -0.00181485 </v>
   <v>       0.00044760       0.00087237      -0.00109783 </v>
   <v>       0.03623638      -0.02630451       0.08508001 </v>
  </varray>
  <varray name="stress" >
   <v>       2.44801047      -2.78781915       0.02838827 </v>
   <v>      -2.78781919      -4.36329826       0.00719388 </v>
   <v>       0.02838725       0.00719392      -0.21969453 </v>
  </varray>
  <energy>
   <i name="e_fr_energy">   -850.13025405 </i>
   <i name="e_wo_entrp">   -850.13025280 </i>
   <i name="e_0_energy">   -850.13025343 </i>
  </energy>
  <time name="totalsc">  487.20  490.33</time>
 </calculation>
 <calculation>
  <scstep>
   <time name="dav">   76.87   77.38</time>
   <time name="total">   88.38   88.97</time>
   <energy>
    <i name="alphaZ">    175.87611319 </i>
    <i name="ewald">  36599.65842469 </i>
    <i name="hartreedc"> -48313.94703505 </i>
    <i name="XCdc">   1274.21969960 </i>
    <i name="pawpsdc">  37301.74227285 </i>
    <i name="pawaedc"> -37365.57588956 </i>
    <i name="eentropy">     -0.00000125 </i>
    <i name="bandstr">  -4230.47943278 </i>
    <i name="atom">  13716.13071916 </i>
    <i name="e_fr_energy">   -842.37512916 </i>
    <i name="e_wo_entrp">   -842.37512791 </i>
    <i name="e_0_energy">   -842.37512853 </i>
   </energy>
  </scstep>
  <scstep>
   <time name="dav">   77.13   77.65</time>
   <time name="total">   88.49   89.11</time>
   <energy>
    <i name="e_fr_energy">   -842.37514563 </i>
[...]
       <r>   -14.1637     8.1965    56.6034 </r>
       <r>   -14.0593     8.9434    57.5372 </r>
       <r>   -13.9549     7.1718    58.2860 </r>
       <r>   -13.8505     4.0442    58.7082 </r>
       <r>   -13.7461     3.7788    59.1028 </r>
       <r>   -13.6417     7.6981    59.9065 </r>
       <r>   -13.5373     7.0372    60.6413 </r>
       <r>   -13.4329    10.5574    61.7435 </r>
       <r>   -13.3285     8.7811    62.6604 </r>
       <r>   -13.2240     5.7150    63.2571 </r>
       <r>   -13.1196     7.6706    64.0579 </r>
       <r>   -13.0152     3.9466    64.4700 </r>
       <r>   -12.9108     0.5983    64.5325 </r>
       <r>   -12.8064     7.1456    65.2785 </r>
       <r>   -12.7020     7.3706    66.0481 </r>
       <r>   -12.5976     6.9404    66.7727 </r>
       <r>   -12.4932    15.1696    68.3566 </r>
       <r>   -12.3888    13.5467    69.7710 </r>
       <r>   -12.2844    10.0183    70.8170 </r>
       <r>   -12.1800     7.8921    71.6410 </r>
       <r>   -12.0755     1.2740    71.7740 </r>
       <r>   -11.9711     7.2684    72.5329 </r>
       <r>   -11.8667    12.8643    73.8760 </r>
       <r>   -11.7623     9.4840    74.8663 </r>
       <r>   -11.6579     9.6958    75.8786 </r>
       <r>   -11.5535     6.8380    76.5925 </r>
       <r>   -11.4491    12.0385    77.8495 </r>
       <r>   -11.3447    10.8656    78.9839 </r>
       <r>   -11.2403    11.2151    80.1549 </r>
       <r>   -11.1359    10.5868    81.2602 </r>
       <r>   -11.0315     8.7374    82.1725 </r>
       <r>   -10.9270    10.6492    83.2844 </r>
       <r>   -10.8226     9.4385    84.2698 </r>
       <r>   -10.7182    12.0590    85.5289 </r>
       <r>   -10.6138     7.8249    86.3459 </r>
       <r>   -10.5094     5.3319    86.9026 </r>
       <r>   -10.4050     3.3090    87.2481 </r>
       <r>   -10.3006     1.5196    87.4067 </r>
       <r>   -10.1962    14.4747    88.9180 </r>
       <r>   -10.0918    14.8195    90.4653 </r>
       <r>    -9.9874    17.6549    92.3086 </r>
       <r>    -9.8830    16.4268    94.0238 </r>
       <r>    -9.7785    21.2789    96.2455 </r>
       <r>    -9.6741    17.7589    98.0997 </r>
       <r>    -9.5697    12.9642    99.4532 </r>
       <r>    -9.4653    15.0072   101.0201 </r>
       <r>    -9.3609    18.7807   102.9810 </r>
       <r>    -9.2565    17.8648   104.8463 </r>
       <r>    -9.1521    12.8746   106.1905 </r>
       <r>    -9.0477    17.2920   107.9959 </r>
       <r>    -8.9433    30.9306   111.2254 </r>
       <r>    -8.8389    25.8731   113.9267 </r>
       <r>    -8.7345    23.9941   116.4319 </r>
       <r>    -8.6301    18.1312   118.3250 </r>
       <r>    -8.5256    20.1576   120.4296 </r>
       <r>    -8.4212    16.2708   122.1285 </r>
       <r>    -8.3168    17.0357   123.9071 </r>
       <r>    -8.2124    25.5717   126.5770 </r>
       <r>    -8.1080    20.9222   128.7615 </r>
       <r>    -8.0036    21.0408   130.9584 </r>
       <r>    -7.8992    15.3455   132.5606 </r>
       <r>    -7.7948    15.9245   134.2232 </r>
       <r>    -7.6904    14.7868   135.7671 </r>
       <r>    -7.5860    15.4544   137.3807 </r>
       <r>    -7.4816    10.2240   138.4482 </r>
       <r>    -7.3771     8.3100   139.3158 </r>
       <r>    -7.2727    20.0125   141.4053 </r>
       <r>    -7.1683    24.0079   143.9119 </r>
       <r>    -7.0639    21.9022   146.1987 </r>
       <r>    -6.9595    11.0830   147.3559 </r>
       <r>    -6.8551    11.1467   148.5197 </r>
       <r>    -6.7507    14.3375   150.0167 </r>
       <r>    -6.6463     7.3267   150.7817 </r>
       <r>    -6.5419    10.8348   151.9129 </r>
       <r>    -6.4375    10.6464   153.0245 </r>
       <r>    -6.3331    14.5781   154.5466 </r>
       <r>    -6.2286    14.6678   156.0780 </r>
       <r>    -6.1242    21.8930   158.3639 </r>
       <r>    -6.0198    13.0861   159.7302 </r>
       <r>    -5.9154    14.3772   161.2313 </r>
       <r>    -5.8110    10.9371   162.3732 </r>
       <r>    -5.7066    16.4928   164.0952 </r>
       <r>    -5.6022    14.5520   165.6146 </r>
       <r>    -5.4978     6.1466   166.2563 </r>
       <r>    -5.3934     4.1770   166.6924 </r>
       <r>    -5.2890     2.5357   166.9572 </r>
       <r>    -5.1846     2.0763   167.1740 </r>
       <r>    -5.0801    13.0711   168.5387 </r>
       <r>    -4.9757    20.9980   170.7311 </r>
       <r>    -4.8713    17.4747   172.5556 </r>
       <r>    -4.7669    18.1306   174.4486 </r>
       <r>    -4.6625     5.2760   174.9995 </r>
       <r>    -4.5581     9.2904   175.9695 </r>
       <r>    -4.4537     4.7705   176.4676 </r>
       <r>    -4.3493     8.9360   177.4006 </r>
       <r>    -4.2449     8.4372   178.2815 </r>
       <r>    -4.1405     7.7240   179.0879 </r>
       <r>    -4.0361     9.5549   180.0856 </r>
       <r>    -3.9316     9.4164   181.0687 </r>
       <r>    -3.8272     6.1863   181.7146 </r>
       <r>    -3.7228     2.0802   181.9318 </r>
       <r>    -3.6184     0.6527   182.0000 </r>
       <r>    -3.5140     0.0531   182.0055 </r>
       <r>    -3.4096     1.9858   182.2128 </r>
       <r>    -3.3052     4.7379   182.7075 </r>
       <r>    -3.2008     4.2687   183.1532 </r>
       <r>    -3.0964     2.9393   183.4601 </r>
       <r>    -2.9920     0.3822   183.5000 </r>
       <r>    -2.8876     0.0001   183.5000 </r>
       <r>    -2.7831     0.0530   183.5055 </r>
       <r>    -2.6787     1.9611   183.7103 </r>
       <r>    -2.5743     2.2432   183.9445 </r>
       <r>    -2.4699     0.5313   184.0000 </r>
       <r>    -2.3655     0.0766   184.0080 </r>
       <r>    -2.2611     3.1464   184.3365 </r>
       <r>    -2.1567     1.5618   184.4996 </r>
       <r>    -2.0523     0.0044   184.5000 </r>
       <r>    -1.9479     0.4710   184.5492 </r>
       <r>    -1.8435     2.1074   184.7692 </r>
       <r>    -1.7391     3.1820   185.1015 </r>
       <r>    -1.6346     4.5327   185.5747 </r>
       <r>    -1.5302     4.0225   185.9947 </r>
       <r>    -1.4258     0.1718   186.0126 </r>
       <r>    -1.3214     5.0952   186.5446 </r>
       <r>    -1.2170     6.9548   187.2708 </r>
       <r>    -1.1126     2.1598   187.4963 </r>
       <r>    -1.0082     0.9977   187.6004 </r>
       <r>    -0.9038    10.1907   188.6644 </r>
       <r>    -0.7994    17.0885   190.4486 </r>
       <r>    -0.6950     6.9922   191.1787 </r>
       <r>    -0.5906     8.1600   192.0307 </r>
       <r>    -0.4861    10.9875   193.1778 </r>
       <r>    -0.3817     6.1055   193.8153 </r>
       <r>    -0.2773     4.2154   194.2554 </r>
       <r>    -0.1729     6.1062   194.8930 </r>
       <r>    -0.0685    11.1031   196.0522 </r>
       <r>     0.0359    10.2803   197.1256 </r>
       <r>     0.1403    10.3763   198.2090 </r>
       <r>     0.2447    10.8433   199.3411 </r>
       <r>     0.3491     4.1934   199.7789 </r>
       <r>     0.4535     2.3493   200.0242 </r>
       <r>     0.5579     3.4456   200.3840 </r>
       <r>     0.6624     6.7978   201.0937 </r>
       <r>     0.7668    13.7779   202.5323 </r>
       <r>     0.8712    10.5195   203.6306 </r>
       <r>     0.9756     4.9231   204.1446 </r>
       <r>     1.0800    12.1003   205.4080 </r>
       <r>     1.1844     6.4357   206.0799 </r>
       <r>     1.2888     7.2242   206.8342 </r>
       <r>     1.3932    10.7903   207.9608 </r>
       <r>     1.4976    14.3530   209.4594 </r>
       <r>     1.6020    20.9804   211.6500 </r>
       <r>     1.7064    13.0838   213.0160 </r>
       <r>     1.8109     8.8212   213.9370 </r>
       <r>     1.9153     8.4994   214.8245 </r>
       <r>     2.0197    15.7927   216.4734 </r>
       <r>     2.1241    21.4081   218.7086 </r>
       <r>     2.2285    16.3111   220.4116 </r>
       <r>     2.3329    16.4408   222.1282 </r>
       <r>     2.4373    26.5812   224.9035 </r>
       <r>     2.5417    12.3058   226.1883 </r>
       <r>     2.6461     8.0905   227.0330 </r>
       <r>     2.7505    11.5006   228.2338 </r>
       <r>     2.8549    29.0663   231.2686 </r>
       <r>     2.9593    39.4202   235.3844 </r>
       <r>     3.0638    29.4515   238.4594 </r>
       <r>     3.1682    17.5938   240.2964 </r>
       <r>     3.2726    21.1963   242.5094 </r>
       <r>     3.3770    11.3559   243.6951 </r>
       <r>     3.4814    22.3040   246.0238 </r>
       <r>     3.5858    23.3078   248.4574 </r>
       <r>     3.6902    13.2511   249.8409 </r>
       <r>     3.7946    24.6037   252.4098 </r>
       <r>     3.8990    23.4772   254.8610 </r>
       <r>     4.0034    23.9250   257.3590 </r>
       <r>     4.1078    19.2184   259.3656 </r>
       <r>     4.2123    11.5034   260.5666 </r>
       <r>     4.3167    27.2682   263.4137 </r>
       <r>     4.4211    14.9878   264.9785 </r>
       <r>     4.5255     0.2058   265.0000 </r>
       <r>     4.6299     0.0000   265.0000 </r>
       <r>     4.7343     0.0000   265.0000 </r>
       <r>     4.8387     0.0000   265.0000 </r>
       <r>     4.9431     0.0000   265.0000 </r>
       <r>     5.0475     0.0000   265.0000 </r>
       <r>     5.1519     0.0000   265.0000 </r>
       <r>     5.2563     0.0000   265.0000 </r>
       <r>     5.3608     0.0000   265.0000 </r>
       <r>     5.4652     0.0000   265.0000 </r>
       <r>     5.5696     0.0000   265.0000 </r>
       <r>     5.6740     0.0000   265.0000 </r>
       <r>     5.7784     0.0000   265.0000 </r>
      </set>
     </set>
    </array>
   </total>
  </dos>
 </calculation>
 <structure name="finalpos" >
  <crystal>
   <varray name="basis" >
    <v>      17.27103806       0.00000000       0.00000000 </v>
    <v>      -8.63551903      14.95715771       0.00000000 </v>
    <v>       0.00000000       0.00000000      15.00000000 </v>
   </varray>
   <i name="volume">   3874.88459904 </i>
   <varray name="rec_basis" >
    <v>       0.05790040       0.03342881       0.00000000 </v>
    <v>       0.00000000       0.06685762       0.00000000 </v>
    <v>       0.00000000       0.00000000       0.06666667 </v>
   </varray>
  </crystal>
  <varray name="positions" >
   <v>       1.00034025       0.99955593       0.49439408 </v>
   <v>       1.00012562       0.14219974       0.49441889 </v>
   <v>       1.00025268       0.28520195       0.49468381 </v>
   <v>       1.00018567       0.42808421       0.49504468 </v>
   <v>       1.00018668       0.57093471       0.49543340 </v>
   <v>       0.00066587       0.71378677       0.49539439 </v>
   <v>       0.00088272       0.85706130       0.49483038 </v>
   <v>       0.14390918       0.00062101       0.49496289 </v>
   <v>       0.14365780       0.14323140       0.49394214 </v>
   <v>       0.14305756       0.28562044       0.49301453 </v>
   <v>       0.14316951       0.42897018       0.49317767 </v>
   <v>       0.14323333       0.57139498       0.49449759 </v>
   <v>       0.14340099       0.71419317       0.49548333 </v>
   <v>       0.14350598       0.85739646       0.49572754 </v>
   <v>       0.28668623       0.00065688       0.49563979 </v>
   <v>       0.28737082       0.14388346       0.49424861 </v>
   <v>       0.28710920       0.28777669       0.49171827 </v>
   <v>       0.28544255       0.42904941       0.48914461 </v>
   <v>       0.28740727       0.57232240       0.49092819 </v>
   <v>       0.28620932       0.71511139       0.49397131 </v>
   <v>       0.28579124       0.85771680       0.49555170 </v>
   <v>       0.42917218       0.99999481       0.49542623 </v>
   <v>       0.43040960       0.14377470       0.49513319 </v>
   <v>       0.42977488       0.28433887       0.49447763 </v>
   <v>       0.42790583       0.85654829       0.49432595 </v>
   <v>       0.57126265       0.99904829       0.49497704 </v>
   <v>       0.57207900       0.14217820       0.49576595 </v>
   <v>       0.57599921       0.28835655       0.49528212 </v>
   <v>       0.57015606       0.85480705       0.49370218 </v>
   <v>       0.71344149       0.99801325       0.49457381 </v>
   <v>       0.71457712       0.14153187       0.49571801 </v>
   <v>       0.71518260       0.28438314       0.49598008 </v>
   <v>       0.71115997       0.42376862       0.49520489 </v>
   <v>       0.71619740       0.57061426       0.49489340 </v>
   <v>       0.71760664       0.71391419       0.49414803 </v>
   <v>       0.71239060       0.85503244       0.49365296 </v>
   <v>       0.85684672       0.99872731       0.49430321 </v>
   <v>       0.85698339       0.14164141       0.49507475 </v>
   <v>       0.85748630       0.28467408       0.49574055 </v>
   <v>       0.85734393       0.42757548       0.49573190 </v>
   <v>       0.85676313       0.56989421       0.49489205 </v>
   <v>       0.85853140       0.71360408       0.49427491 </v>
   <v>       0.85745405       0.85603351       0.49385631 </v>
   <v>       0.04821472       0.09501310       0.49431740 </v>
   <v>       0.04757969       0.23741509       0.49416810 </v>
   <v>       0.04764355       0.38063198       0.49444187 </v>
   <v>       0.04794850       0.52347940       0.49511774 </v>
   <v>       0.04807166       0.66631859       0.49558095 </v>
   <v>       0.04815743       0.80924538       0.49540604 </v>
   <v>       0.04837644       0.95228774       0.49477627 </v>
   <v>       0.19172228       0.09577295       0.49433401 </v>
   <v>       0.19112526       0.23849919       0.49286112 </v>
   <v>       0.18986066       0.38081474       0.49199877 </v>
   <v>       0.19121776       0.52447988       0.49313336 </v>
   <v>       0.19086662       0.66681207       0.49472231 </v>
   <v>       0.19086593       0.80972175       0.49569394 </v>
   <v>       0.19146825       0.95281249       0.49556529 </v>
   <v>       0.33498104       0.09635455       0.49506103 </v>
   <v>       0.33625830       0.23947213       0.49342869 </v>
   <v>       0.33115486       0.38060385       0.48902042 </v>
   <v>       0.33113453       0.52352301       0.48739465 </v>
   <v>       0.33696638       0.67054459       0.49229153 </v>
   <v>       0.33315189       0.80992345       0.49469350 </v>
   <v>       0.33377247       0.95277232       0.49569340 </v>
   <v>       0.47707956       0.09514703       0.49549172 </v>
   <v>       0.47828068       0.23944343       0.49490250 </v>
   <v>       0.47242965       0.80580960       0.49344284 </v>
   <v>       0.47625385       0.95196593       0.49497265 </v>
   <v>       0.61916764       0.09419356       0.49563523 </v>
   <v>       0.62044979       0.23760644       0.49584777 </v>
   <v>       0.61890710       0.81023304       0.49322487 </v>
   <v>       0.61798843       0.95049227       0.49444512 </v>
   <v>       0.76171804       0.09371955       0.49514870 </v>
   <v>       0.76256118       0.23661247       0.49598759 </v>
   <v>       0.76199194       0.37920900       0.49580273 </v>
   <v>       0.76039432       0.52205833       0.49474949 </v>
   <v>       0.76301758       0.66525827       0.49431053 </v>
   <v>       0.76152286       0.80674790       0.49366329 </v>
   <v>       0.76116748       0.95058713       0.49414641 </v>
   <v>       0.90459923       0.09386788       0.49462767 </v>
   <v>       0.90490046       0.23705330       0.49527189 </v>
   <v>       0.90485662       0.38020294       0.49567331 </v>
   <v>       0.90486469       0.52303042       0.49538231 </v>
   <v>       0.90514325       0.66543645       0.49478126 </v>
   <v>       0.90540243       0.80882249       0.49425002 </v>
   <v>       0.90492182       0.95130374       0.49412327 </v>
   <v>       0.46889536       0.35700066       0.49555087 </v>
   <v>       0.40377802       0.41857408       0.48923836 </v>
   <v>       0.40360696       0.56127042       0.48295954 </v>
   <v>       0.64520509       0.67545280       0.49672758 </v>
   <v>       0.64352302       0.53443040       0.49730661 </v>
   <v>       0.58016680       0.73762960       0.49266791 </v>
   <v>       0.49481720       0.56616356       0.59442663 </v>
   <v>       0.51231025       0.56153519       0.49492200 </v>
   <v>       0.42704722       0.71529436       0.49243315 </v>
   <v>       0.62117079       0.37876578       0.49474244 </v>
   <v>       0.52718044       0.54872808       0.55358496 </v>
  </varray>
  <varray name="selective"  type="logical" >
   <v type="logical" >  T  T  T </v>
   <v type="logical" >  T  T  T </v>
   <v type="logical" >  T  T  T </v>
   <v type="logical" >  T  T  T </v>
   <v type="logical" >  T  T  T </v>
   <v type="logical" >  T  T  T </v>
   <v type="logical" >  T  T  T </v>
   <v type="logical" >  T  T  T </v>
   <v type="logical" >  T  T  T </v>
   <v type="logical" >  T  T  T </v>
   <v type="logical" >  T  T  T </v>
   <v type="logical" >  T  T  T </v>
   <v type="logical" >  T  T  T </v>
   <v type="logical" >  T  T  T </v>
   <v type="logical" >  T  T  T </v>
   <v type="logical" >  T  T  T </v>
   <v type="logical" >  T  T  T </v>
   <v type="logical" >  T  T  T </v>
   <v type="logical" >  T  T  T </v>
   <v type="logical" >  T  T  T </v>
   <v type="logical" >  T  T  T </v>
   <v type="logical" >  T  T  T </v>
   <v type="logical" >  T  T  T </v>
   <v type="logical" >  T  T  T </v>
   <v type="logical" >  T  T  T </v>
   <v type="logical" >  T  T  T </v>
   <v type="logical" >  T  T  T </v>
   <v type="logical" >  T  T  T </v>
   <v type="logical" >  T  T  T </v>
   <v type="logical" >  T  T  T </v>
   <v type="logical" >  T  T  T </v>
   <v type="logical" >  T  T  T </v>
   <v type="logical" >  T  T  T </v>
   <v type="logical" >  T  T  T </v>
   <v type="logical" >  T  T  T </v>
   <v type="logical" >  T  T  T </v>
   <v type="logical" >  T  T  T </v>
   <v type="logical" >  T  T  T </v>
   <v type="logical" >  T  T  T </v>
   <v type="logical" >  T  T  T </v>
   <v type="logical" >  T  T  T </v>
   <v type="logical" >  T  T  T </v>
   <v type="logical" >  T  T  T </v>
   <v type="logical" >  T  T  T </v>
   <v type="logical" >  T  T  T </v>
   <v type="logical" >  T  T  T </v>
   <v type="logical" >  T  T  T </v>
   <v type="logical" >  T  T  T </v>
   <v type="logical" >  T  T  T </v>
   <v type="logical" >  T  T  T </v>
   <v type="logical" >  T  T  T </v>
   <v type="logical" >  T  T  T </v>
   <v type="logical" >  T  T  T </v>
   <v type="logical" >  T  T  T </v>
   <v type="logical" >  T  T  T </v>
   <v type="logical" >  T  T  T </v>
   <v type="logical" >  T  T  T </v>
   <v type="logical" >  T  T  T </v>
   <v type="logical" >  T  T  T </v>
   <v type="logical" >  T  T  T </v>
   <v type="logical" >  T  T  T </v>
   <v type="logical" >  T  T  T </v>
   <v type="logical" >  T  T  T </v>
   <v type="logical" >  T  T  T </v>
   <v type="logical" >  T  T  T </v>
   <v type="logical" >  T  T  T </v>
   <v type="logical" >  T  T  T </v>
   <v type="logical" >  T  T  T </v>
   <v type="logical" >  T  T  T </v>
   <v type="logical" >  T  T  T </v>
   <v type="logical" >  T  T  T </v>
   <v type="logical" >  T  T  T </v>
   <v type="logical" >  T  T  T </v>
   <v type="logical" >  T  T  T </v>
   <v type="logical" >  T  T  T </v>
   <v type="logical" >  T  T  T </v>
   <v type="logical" >  T  T  T </v>
   <v type="logical" >  T  T  T </v>
   <v type="logical" >  T  T  T </v>
   <v type="logical" >  T  T  T </v>
   <v type="logical" >  T  T  T </v>
   <v type="logical" >  T  T  T </v>
   <v type="logical" >  T  T  T </v>
   <v type="logical" >  T  T  T </v>
   <v type="logical" >  T  T  T </v>
   <v type="logical" >  T  T  T </v>
   <v type="logical" >  T  T  T </v>
   <v type="logical" >  T  T  T </v>
   <v type="logical" >  T  T  T </v>
   <v type="logical" >  T  T  T </v>
   <v type="logical" >  T  T  T </v>
   <v type="logical" >  T  T  T </v>
   <v type="logical" >  T  T  T </v>
   <v type="logical" >  T  T  T </v>
   <v type="logical" >  T  T  T </v>
   <v type="logical" >  T  T  T </v>
   <v type="logical" >  T  T  T </v>
  </varray>
  <nose>
   <v>      -3.00000000       0.00000000       0.00010000       0.00010000 </v>
  </nose>
 </structure>
</modeling>
