unknown system                          
           1
    17.271038    0.000000    0.000000
    -8.635519   14.957158    0.000000
     0.000000    0.000000   15.000000
   C    H    N    O 
    86     8     2     1
Direct configuration=     1
   0.99968339  0.99933336  0.49564101
   0.99935968  0.14193662  0.49601416
   0.99951427  0.28497992  0.49682833
   0.99956070  0.42791465  0.49783774
   0.99969178  0.57074224  0.49782688
   0.00004970  0.71358634  0.49707196
   0.00021156  0.85681674  0.49598421
   0.14322977  0.00039759  0.49601692
   0.14285468  0.14294812  0.49490268
   0.14217546  0.28528360  0.49388598
   0.14240660  0.42871756  0.49465588
   0.14269674  0.57113607  0.49663289
   0.14281801  0.71398016  0.49747632
   0.14286399  0.85718929  0.49722963
   0.28606239  0.00049621  0.49631722
   0.28665731  0.14369153  0.49436806
   0.28615783  0.28742101  0.49073329
   0.28424135  0.42856400  0.48757654
   0.28697992  0.57195874  0.49104576
   0.28566516  0.71488264  0.49515509
   0.28516748  0.85753430  0.49673544
   0.42855115  0.99993841  0.49592849
   0.42975472  0.14374311  0.49532881
   0.42899886  0.28426396  0.49407804
   0.42727240  0.85647833  0.49488048
   0.57062969  0.99903165  0.49555708
   0.57144604  0.14214015  0.49643997
   0.57535920  0.28832426  0.49531526
   0.56947012  0.85481445  0.49327022
   0.71276886  0.99787678  0.49498609
   0.71393540  0.14140862  0.49694882
   0.71457429  0.28423692  0.49724827
   0.71072380  0.42354796  0.49494030
   0.71597293  0.57023977  0.48969529
   0.71764901  0.71427233  0.48621113
   0.71176525  0.85499218  0.49155156
   0.85616368  0.99857201  0.49491521
   0.85627972  0.14143088  0.49659579
   0.85685355  0.28449314  0.49783930
   0.85682650  0.42739494  0.49755446
   0.85636724  0.56969120  0.49558428
   0.85782089  0.71331922  0.49345655
   0.85695815  0.85598345  0.49360546
   0.04746265  0.09475882  0.49573324
   0.04676790  0.23713279  0.49584024
   0.04694696  0.38042590  0.49684210
   0.04741964  0.52328161  0.49777123
   0.04748782  0.66612766  0.49771769
   0.04750352  0.80901872  0.49691102
   0.04770417  0.95205929  0.49598368
   0.19097008  0.09554107  0.49499030
   0.19024983  0.23817053  0.49330798
   0.18889972  0.38043619  0.49228819
   0.19072137  0.52423553  0.49448589
   0.19031654  0.66657950  0.49653019
   0.19023411  0.80951864  0.49734268
   0.19082148  0.95261853  0.49660365
   0.33431735  0.09620349  0.49536422
   0.33544886  0.23926482  0.49291574
   0.33001556  0.38016394  0.48621864
   0.33074909  0.52317158  0.48592317
   0.33644094  0.67023362  0.49279300
   0.33251104  0.80972550  0.49572393
   0.33314754  0.95261807  0.49644245
   0.47643254  0.09510833  0.49593357
   0.47758520  0.23944086  0.49486292
   0.47172422  0.80572211  0.49355490
   0.47562740  0.95191549  0.49546193
   0.61854861  0.09416592  0.49645237
   0.61983174  0.23756156  0.49656015
   0.61829034  0.81028452  0.49156890
   0.61733737  0.95046265  0.49465420
   0.76106291  0.09356411  0.49627318
   0.76194654  0.23645345  0.49760604
   0.76150248  0.37904763  0.49686515
   0.76013969  0.52181541  0.49346152
   0.76223402  0.66484378  0.48946664
   0.76113951  0.80693309  0.49026356
   0.76052572  0.95050119  0.49387067
   0.90387537  0.09365952  0.49598638
   0.90419975  0.23682929  0.49734008
   0.90427487  0.38002007  0.49808363
   0.90440519  0.52282906  0.49725613
   0.90451722  0.66520943  0.49551316
   0.90472110  0.80857043  0.49438192
   0.90429830  0.95118920  0.49494717
   0.46772977  0.35693463  0.49512155
   0.40242063  0.41892787  0.48424133
   0.40325579  0.55862810  0.48199900
   0.64533714  0.67844092  0.48018849
   0.64326129  0.53196822  0.48916832
   0.57884572  0.73766338  0.49026112
   0.52299645  0.58429789  0.57860519
   0.55782038  0.57054587  0.48881164
   0.42653462  0.71523976  0.49245965
   0.62072769  0.37874196  0.49409932
   0.51369758  0.53886234  0.53495624
Direct configuration=     2
   0.99968355  0.99933272  0.49563551
   0.99935881  0.14193678  0.49601259
   0.99951416  0.28498513  0.49682269
   0.99956263  0.42791743  0.49782771
   0.99969149  0.57074098  0.49782128
   0.00005014  0.71358369  0.49707251
   0.00021268  0.85681672  0.49598345
   0.14322970  0.00039685  0.49601728
   0.14285618  0.14295009  0.49489980
   0.14217205  0.28528112  0.49388148
   0.14240604  0.42871906  0.49465384
   0.14269827  0.57113576  0.49662616
   0.14281791  0.71398206  0.49747650
   0.14286465  0.85718837  0.49722637
   0.28606055  0.00049531  0.49631702
   0.28665955  0.14369318  0.49436854
   0.28615869  0.28742312  0.49073252
   0.28424370  0.42856776  0.48757874
   0.28698066  0.57195993  0.49104560
   0.28566378  0.71488059  0.49515631
   0.28516729  0.85753240  0.49673388
   0.42855121  0.99993891  0.49592914
   0.42975697  0.14374326  0.49532807
   0.42899863  0.28426578  0.49408094
   0.42727273  0.85647691  0.49488038
   0.57063147  0.99903051  0.49555430
   0.57144698  0.14214065  0.49643896
   0.57536201  0.28832668  0.49531794
   0.56947014  0.85481270  0.49327355
   0.71277050  0.99787506  0.49498760
   0.71393753  0.14141217  0.49694438
   0.71457633  0.28424017  0.49724257
   0.71072626  0.42355006  0.49494199
   0.71597429  0.57024052  0.48971669
   0.71765179  0.71427379  0.48623525
   0.71176547  0.85499169  0.49155826
   0.85616288  0.99857201  0.49491340
   0.85627895  0.14143017  0.49659258
   0.85685570  0.28449541  0.49783467
   0.85682730  0.42739601  0.49754551
   0.85636683  0.56969026  0.49558343
   0.85782433  0.71331903  0.49346294
   0.85695910  0.85598440  0.49361029
   0.04746128  0.09475850  0.49572796
   0.04676901  0.23713318  0.49583693
   0.04694516  0.38042375  0.49683800
   0.04742130  0.52328264  0.49776497
   0.04748683  0.66612832  0.49771652
   0.04750819  0.80902055  0.49690897
   0.04770521  0.95206083  0.49598011
   0.19097168  0.09554154  0.49498791
   0.19024920  0.23817166  0.49330490
   0.18889900  0.38043403  0.49228977
   0.19072171  0.52423487  0.49448160
   0.19031960  0.66658122  0.49652628
   0.19023480  0.80951859  0.49733876
   0.19082273  0.95262027  0.49660361
   0.33431752  0.09620379  0.49536482
   0.33544910  0.23926414  0.49291866
   0.33001580  0.38016144  0.48622236
   0.33074994  0.52317084  0.48592778
   0.33644235  0.67023429  0.49279419
   0.33251406  0.80972833  0.49572467
   0.33314778  0.95261914  0.49644152
   0.47643415  0.09510824  0.49593327
   0.47758885  0.23944267  0.49486610
   0.47172610  0.80572318  0.49355576
   0.47562639  0.95191464  0.49546283
   0.61854956  0.09416607  0.49645225
   0.61983199  0.23756162  0.49656078
   0.61829007  0.81028435  0.49157613
   0.61733779  0.95046299  0.49465257
   0.76106340  0.09356417  0.49627517
   0.76194583  0.23645383  0.49759994
   0.76150008  0.37904567  0.49686087
   0.76013974  0.52181689  0.49346797
   0.76223481  0.66484532  0.48948643
   0.76113944  0.80693216  0.49027585
   0.76052654  0.95050074  0.49387519
   0.90387711  0.09365948  0.49598400
   0.90419957  0.23682911  0.49733247
   0.90427464  0.38001916  0.49807479
   0.90440392  0.52283003  0.49725059
   0.90451736  0.66521061  0.49551338
   0.90472197  0.80857188  0.49438636
   0.90429915  0.95119127  0.49494697
   0.46773137  0.35693477  0.49512230
   0.40242277  0.41892838  0.48424852
   0.40325408  0.55863127  0.48200931
   0.64533905  0.67843701  0.48022803
   0.64326192  0.53197384  0.48919568
   0.57884849  0.73766378  0.49027017
   0.52299123  0.58428286  0.57860381
   0.55772964  0.57053606  0.48875331
   0.42653415  0.71523832  0.49246048
   0.62072794  0.37874160  0.49410520
   0.51373135  0.53884918  0.53504968
Direct configuration=     3
   0.99968405  0.99933340  0.49562759
   0.99935898  0.14193736  0.49600977
   0.99951368  0.28498628  0.49681435
   0.99956351  0.42791854  0.49781337
   0.99969131  0.57074074  0.49781317
   0.00005098  0.71358367  0.49707289
   0.00021531  0.85681791  0.49598223
   0.14323080  0.00039781  0.49601732
   0.14285720  0.14295160  0.49489520
   0.14217281  0.28528244  0.49387469
   0.14240476  0.42871636  0.49465102
   0.14270092  0.57113699  0.49661641
   0.14281841  0.71398346  0.49747613
   0.14286761  0.85718979  0.49722169
   0.28606024  0.00049590  0.49631675
   0.28666159  0.14369417  0.49436935
   0.28615824  0.28742279  0.49073180
   0.28424399  0.42856624  0.48758188
   0.28698225  0.57196057  0.49104523
   0.28566558  0.71488191  0.49515779
   0.28516928  0.85753303  0.49673156
   0.42855152  0.99993909  0.49593006
   0.42975701  0.14374316  0.49532808
   0.42900072  0.28426595  0.49408431
   0.42727469  0.85647721  0.49488048
   0.57063232  0.99902987  0.49555063
   0.57144863  0.14214098  0.49643777
   0.57536494  0.28832820  0.49532210
   0.56947015  0.85481195  0.49327807
   0.71277163  0.99787415  0.49499001
   0.71393795  0.14141270  0.49693823
   0.71457590  0.28424044  0.49723447
   0.71072681  0.42355155  0.49494451
   0.71597425  0.57024273  0.48974738
   0.71765419  0.71427427  0.48627025
   0.71176411  0.85499013  0.49156536
   0.85616356  0.99857283  0.49491126
   0.85627925  0.14142944  0.49658799
   0.85685600  0.28449540  0.49782709
   0.85682530  0.42739532  0.49753346
   0.85636609  0.56969118  0.49558207
   0.85782676  0.71332052  0.49347240
   0.85696037  0.85598619  0.49361746
   0.04746096  0.09475868  0.49572041
   0.04676681  0.23713437  0.49583198
   0.04694509  0.38042679  0.49683192
   0.04742353  0.52328428  0.49775520
   0.04748640  0.66612701  0.49771484
   0.04751121  0.80902011  0.49690614
   0.04770586  0.95206086  0.49597500
   0.19097307  0.09554211  0.49498592
   0.19024858  0.23817291  0.49330023
   0.18889876  0.38043497  0.49229139
   0.19072276  0.52423518  0.49447586
   0.19032052  0.66658185  0.49652098
   0.19023532  0.80951783  0.49733348
   0.19082244  0.95261994  0.49660347
   0.33431888  0.09620435  0.49536559
   0.33544923  0.23926306  0.49292098
   0.33001812  0.38016330  0.48622727
   0.33075026  0.52317193  0.48593460
   0.33644260  0.67023391  0.49279583
   0.33251495  0.80972765  0.49572572
   0.33314613  0.95261819  0.49643980
   0.47643614  0.09510841  0.49593281
   0.47759006  0.23944512  0.49486929
   0.47172759  0.80572221  0.49355706
   0.47562937  0.95191483  0.49546298
   0.61855157  0.09416656  0.49645143
   0.61983403  0.23756287  0.49656127
   0.61829109  0.81028397  0.49158658
   0.61733895  0.95046089  0.49465163
   0.76106392  0.09356402  0.49627731
   0.76194785  0.23645742  0.49759098
   0.76150249  0.37904894  0.49685487
   0.76014115  0.52181783  0.49347747
   0.76223806  0.66484666  0.48951524
   0.76114006  0.80693313  0.49029257
   0.76052729  0.95049924  0.49388131
   0.90387700  0.09365921  0.49598043
   0.90419944  0.23683006  0.49732178
   0.90427823  0.38002445  0.49806323
   0.90440361  0.52283026  0.49724212
   0.90451877  0.66520991  0.49551393
   0.90472404  0.80857305  0.49439268
   0.90429945  0.95119237  0.49494625
   0.46773394  0.35693586  0.49512353
   0.40242509  0.41892845  0.48425923
   0.40325314  0.55863629  0.48202445
   0.64534165  0.67843106  0.48028553
   0.64326321  0.53198234  0.48923571
   0.57885223  0.73766404  0.49028327
   0.52299269  0.58429784  0.57863648
   0.55757389  0.57050572  0.48869535
   0.42653557  0.71523825  0.49246164
   0.62073073  0.37874387  0.49411334
   0.51379516  0.53880966  0.53513085
Direct configuration=     4
   0.99968493  0.99933518  0.49561742
   0.99936044  0.14193910  0.49600632
   0.99951282  0.28498429  0.49680326
   0.99956434  0.42792055  0.49779643
   0.99969151  0.57074129  0.49780251
   0.00005265  0.71358592  0.49707264
   0.00021935  0.85681958  0.49598045
   0.14323272  0.00040024  0.49601655
   0.14285735  0.14295198  0.49488855
   0.14217207  0.28528322  0.49386721
   0.14240383  0.42871267  0.49464738
   0.14270406  0.57113955  0.49660374
   0.14281923  0.71398290  0.49747444
   0.14287164  0.85719152  0.49721694
   0.28606161  0.00049766  0.49631633
   0.28666275  0.14369403  0.49437052
   0.28615771  0.28742090  0.49073136
   0.28424335  0.42856181  0.48758636
   0.28698403  0.57196084  0.49104486
   0.28566977  0.71488542  0.49515915
   0.28517230  0.85753505  0.49672833
   0.42855241  0.99993855  0.49593097
   0.42975634  0.14374370  0.49532903
   0.42900424  0.28426550  0.49408815
   0.42727805  0.85647868  0.49488097
   0.57063366  0.99903018  0.49554642
   0.57145122  0.14214137  0.49643656
   0.57536754  0.28832926  0.49532787
   0.56947207  0.85481392  0.49328151
   0.71277235  0.99787406  0.49499358
   0.71393810  0.14141129  0.49693087
   0.71457461  0.28423906  0.49722555
   0.71072700  0.42355334  0.49494827
   0.71597334  0.57024540  0.48978779
   0.71765711  0.71427521  0.48631611
   0.71176274  0.85498837  0.49157403
   0.85616543  0.99857383  0.49490933
   0.85628073  0.14142958  0.49658201
   0.85685601  0.28449602  0.49781571
   0.85682328  0.42739509  0.49751840
   0.85636631  0.56969346  0.49558037
   0.85782679  0.71332430  0.49348473
   0.85696208  0.85598839  0.49362716
   0.04746265  0.09476005  0.49571072
   0.04676322  0.23713639  0.49582501
   0.04694664  0.38043269  0.49682306
   0.04742526  0.52328505  0.49774199
   0.04748731  0.66612488  0.49771248
   0.04751097  0.80901715  0.49690382
   0.04770670  0.95206029  0.49596843
   0.19097435  0.09554340  0.49498443
   0.19024864  0.23817416  0.49329380
   0.18889959  0.38043793  0.49229230
   0.19072430  0.52423554  0.49446859
   0.19031995  0.66658229  0.49651459
   0.19023701  0.80951773  0.49732719
   0.19082163  0.95261871  0.49660297
   0.33432135  0.09620501  0.49536647
   0.33545007  0.23926290  0.49292260
   0.33002162  0.38016793  0.48623340
   0.33074956  0.52317288  0.48594395
   0.33644271  0.67023342  0.49279780
   0.33251512  0.80972512  0.49572695
   0.33314573  0.95261740  0.49643842
   0.47643781  0.09510896  0.49593227
   0.47758861  0.23944528  0.49487137
   0.47172855  0.80571996  0.49355897
   0.47563153  0.95191472  0.49546309
   0.61855401  0.09416704  0.49644919
   0.61983692  0.23756463  0.49656116
   0.61829284  0.81028338  0.49160031
   0.61734075  0.95045752  0.49465162
   0.76106439  0.09356369  0.49627870
   0.76195192  0.23646304  0.49758032
   0.76150711  0.37905477  0.49684674
   0.76014290  0.52181917  0.49349040
   0.76224474  0.66484694  0.48955130
   0.76114178  0.80693538  0.49031414
   0.76052785  0.95049742  0.49388849
   0.90387263  0.09365828  0.49597646
   0.90419926  0.23683136  0.49730832
   0.90428184  0.38003035  0.49804963
   0.90440415  0.52282993  0.49723041
   0.90452149  0.66520877  0.49551514
   0.90472750  0.80857443  0.49440088
   0.90429996  0.95119273  0.49494468
   0.46773742  0.35693762  0.49512538
   0.40242798  0.41892843  0.48427374
   0.40325385  0.55864349  0.48204449
   0.64534464  0.67842259  0.48036206
   0.64326498  0.53199419  0.48928946
   0.57885689  0.73766403  0.49030062
   0.52299784  0.58432868  0.57868789
   0.55736237  0.57046355  0.48862476
   0.42653824  0.71523864  0.49246325
   0.62073476  0.37874754  0.49412353
   0.51388084  0.53874860  0.53522253
Direct configuration=     5
   0.99968630  0.99933679  0.49560539
   0.99936057  0.14194083  0.49600138
   0.99951160  0.28498436  0.49678948
   0.99956597  0.42792487  0.49777730
   0.99969227  0.57074145  0.49778929
   0.00005479  0.71358698  0.49707151
   0.00022345  0.85682022  0.49597826
   0.14323439  0.00040245  0.49601462
   0.14285763  0.14295202  0.49487972
   0.14216989  0.28528428  0.49385954
   0.14240591  0.42871509  0.49464233
   0.14270643  0.57114166  0.49658851
   0.14282004  0.71398063  0.49747077
   0.14287397  0.85719111  0.49721218
   0.28606365  0.00049893  0.49631581
   0.28666337  0.14369352  0.49437208
   0.28615923  0.28742090  0.49073134
   0.28424397  0.42856004  0.48759267
   0.28698504  0.57196134  0.49104495
   0.28567297  0.71488719  0.49516010
   0.28517452  0.85753587  0.49672425
   0.42855403  0.99993790  0.49593170
   0.42975671  0.14374457  0.49533092
   0.42900707  0.28426636  0.49409236
   0.42728096  0.85647891  0.49488213
   0.57063635  0.99903051  0.49554221
   0.57145399  0.14214200  0.49643539
   0.57536946  0.28833089  0.49533519
   0.56947516  0.85481510  0.49328442
   0.71277325  0.99787397  0.49499718
   0.71394148  0.14141320  0.49692312
   0.71457676  0.28424122  0.49721603
   0.71072964  0.42355696  0.49495383
   0.71597301  0.57024658  0.48983851
   0.71766152  0.71427701  0.48637295
   0.71176313  0.85498759  0.49158613
   0.85616639  0.99857357  0.49490827
   0.85628156  0.14143120  0.49657471
   0.85685836  0.28450076  0.49780006
   0.85682479  0.42739781  0.49750062
   0.85636865  0.56969545  0.49557873
   0.85782899  0.71332834  0.49350095
   0.85696475  0.85599037  0.49363959
   0.04746536  0.09476266  0.49569916
   0.04676120  0.23713770  0.49581585
   0.04694787  0.38043555  0.49681080
   0.04742696  0.52328623  0.49772475
   0.04748953  0.66612433  0.49770911
   0.04751069  0.80901553  0.49690201
   0.04770873  0.95206139  0.49596052
   0.19097566  0.09554543  0.49498335
   0.19024890  0.23817498  0.49328576
   0.18890051  0.38043851  0.49229202
   0.19072551  0.52423503  0.49445987
   0.19032092  0.66658393  0.49650734
   0.19024072  0.80951921  0.49732037
   0.19082251  0.95261908  0.49660188
   0.33432348  0.09620546  0.49536759
   0.33545200  0.23926359  0.49292377
   0.33002416  0.38017005  0.48624118
   0.33074847  0.52317107  0.48595628
   0.33644442  0.67023421  0.49280011
   0.33251779  0.80972522  0.49572826
   0.33314812  0.95261849  0.49643739
   0.47643902  0.09510980  0.49593195
   0.47758799  0.23944335  0.49487305
   0.47173025  0.80571915  0.49356165
   0.47563290  0.95191490  0.49546299
   0.61855602  0.09416688  0.49644503
   0.61983869  0.23756549  0.49656034
   0.61829422  0.81028307  0.49161726
   0.61734325  0.95045733  0.49465130
   0.76106482  0.09356338  0.49627852
   0.76195367  0.23646406  0.49756830
   0.76150701  0.37905578  0.49683694
   0.76014352  0.52182218  0.49350740
   0.76225127  0.66484802  0.48959562
   0.76114431  0.80693696  0.49034132
   0.76052829  0.95049648  0.49389625
   0.90387219  0.09365911  0.49597110
   0.90419906  0.23683197  0.49729245
   0.90428103  0.38002904  0.49803401
   0.90440500  0.52283032  0.49721540
   0.90452428  0.66521049  0.49551745
   0.90473108  0.80857706  0.49440971
   0.90430202  0.95119369  0.49494221
   0.46774147  0.35693910  0.49512812
   0.40243205  0.41892902  0.48429237
   0.40325573  0.55865259  0.48206958
   0.64534754  0.67841093  0.48045890
   0.64326652  0.53200977  0.48935817
   0.57886229  0.73766368  0.49032257
   0.52299828  0.58433943  0.57872161
   0.55711664  0.57042704  0.48851450
   0.42654037  0.71523759  0.49246562
   0.62073689  0.37874954  0.49413578
   0.51396943  0.53868264  0.53538159
Direct configuration=     6
   0.99968885  0.99933832  0.49559172
   0.99935944  0.14194211  0.49599383
   0.99951066  0.28498764  0.49677429
   0.99956749  0.42792863  0.49775596
   0.99969396  0.57074155  0.49777323
   0.00005707  0.71358560  0.49706935
   0.00022649  0.85682042  0.49597566
   0.14323579  0.00040383  0.49601124
   0.14285912  0.14295337  0.49486857
   0.14216999  0.28528507  0.49385091
   0.14240848  0.42871995  0.49463591
   0.14270778  0.57114250  0.49657087
   0.14282180  0.71397943  0.49746465
   0.14287398  0.85718892  0.49720741
   0.28606590  0.00049897  0.49631529
   0.28666431  0.14369379  0.49437394
   0.28616274  0.28742369  0.49073159
   0.28424658  0.42856192  0.48760101
   0.28698570  0.57196201  0.49104572
   0.28567217  0.71488621  0.49515924
   0.28517660  0.85753566  0.49671948
   0.42855670  0.99993846  0.49593210
   0.42975861  0.14374473  0.49533353
   0.42900829  0.28426833  0.49409659
   0.42728292  0.85647763  0.49488417
   0.57063956  0.99903052  0.49553823
   0.57145589  0.14214262  0.49643405
   0.57537049  0.28833252  0.49534353
   0.56947811  0.85481411  0.49328750
   0.71277496  0.99787400  0.49500091
   0.71394565  0.14141544  0.49691492
   0.71458162  0.28424577  0.49720728
   0.71073349  0.42356147  0.49496131
   0.71597257  0.57024729  0.48989712
   0.71766730  0.71427976  0.48643903
   0.71176542  0.85498923  0.49160203
   0.85616632  0.99857262  0.49490829
   0.85628103  0.14143340  0.49656600
   0.85686121  0.28450717  0.49778269
   0.85682843  0.42740120  0.49748008
   0.85637236  0.56969722  0.49557720
   0.85783596  0.71333147  0.49352010
   0.85696868  0.85599221  0.49365440
   0.04746712  0.09476542  0.49568580
   0.04676129  0.23713800  0.49580436
   0.04694822  0.38043495  0.49679453
   0.04743062  0.52329022  0.49770389
   0.04749213  0.66612555  0.49770415
   0.04751308  0.80901673  0.49690055
   0.04771196  0.95206436  0.49595127
   0.19097703  0.09554735  0.49498222
   0.19024955  0.23817587  0.49327766
   0.18890092  0.38043673  0.49229009
   0.19072657  0.52423554  0.49444958
   0.19032475  0.66658599  0.49649920
   0.19024482  0.80952054  0.49731341
   0.19082549  0.95262125  0.49660005
   0.33432409  0.09620564  0.49536908
   0.33545491  0.23926466  0.49292474
   0.33002568  0.38016837  0.48625066
   0.33074837  0.52316752  0.48597178
   0.33644769  0.67023587  0.49280260
   0.33252309  0.80972867  0.49572944
   0.33315261  0.95262091  0.49643662
   0.47644029  0.09511060  0.49593213
   0.47759010  0.23944163  0.49487519
   0.47173365  0.80572038  0.49356498
   0.47563463  0.95191542  0.49546252
   0.61855820  0.09416683  0.49643873
   0.61983955  0.23756580  0.49655883
   0.61829332  0.81028157  0.49163558
   0.61734588  0.95046050  0.49465071
   0.76106592  0.09356371  0.49627610
   0.76195358  0.23646194  0.49755444
   0.76150565  0.37905534  0.49682603
   0.76014404  0.52182604  0.49352739
   0.76225525  0.66485074  0.48964881
   0.76114762  0.80693758  0.49037443
   0.76052933  0.95049668  0.49390113
   0.90387604  0.09366137  0.49596439
   0.90419897  0.23683289  0.49727425
   0.90427818  0.38002515  0.49801508
   0.90440671  0.52283238  0.49719698
   0.90452694  0.66521538  0.49552106
   0.90473464  0.80858125  0.49441941
   0.90430561  0.95119585  0.49493884
   0.46774599  0.35693992  0.49513192
   0.40243680  0.41893028  0.48431521
   0.40325781  0.55866251  0.48209972
   0.64534985  0.67839575  0.48057513
   0.64326718  0.53202921  0.48944176
   0.57886823  0.73766326  0.49034884
   0.52299465  0.58433013  0.57873755
   0.55683264  0.57039261  0.48837353
   0.42654175  0.71523548  0.49246887
   0.62073662  0.37874953  0.49415000
   0.51406646  0.53861373  0.53560562
Direct configuration=     7
   0.99969370  0.99934162  0.49557469
   0.99935993  0.14194374  0.49598102
   0.99951140  0.28499153  0.49675682
   0.99956814  0.42792877  0.49772916
   0.99969765  0.57074289  0.49775326
   0.00006029  0.71358468  0.49706560
   0.00022928  0.85682329  0.49597205
   0.14323863  0.00040541  0.49600544
   0.14286394  0.14295643  0.49485699
   0.14216952  0.28528435  0.49384070
   0.14241055  0.42872239  0.49462592
   0.14270996  0.57114363  0.49654858
   0.14282637  0.71398224  0.49745465
   0.14287478  0.85718855  0.49720203
   0.28606897  0.00049866  0.49631463
   0.28666630  0.14369560  0.49437597
   0.28616651  0.28742645  0.49073181
   0.28425074  0.42856369  0.48761231
   0.28698810  0.57196278  0.49104717
   0.28567208  0.71488606  0.49515591
   0.28518139  0.85753734  0.49671362
   0.42856129  0.99994107  0.49593190
   0.42976151  0.14374382  0.49533668
   0.42900939  0.28426897  0.49409880
   0.42728243  0.85647529  0.49488906
   0.57064205  0.99903122  0.49553391
   0.57145709  0.14214323  0.49643176
   0.57537127  0.28833283  0.49535294
   0.56947989  0.85481278  0.49329147
   0.71277766  0.99787548  0.49500432
   0.71394776  0.14141563  0.49690496
   0.71458409  0.28424699  0.49719945
   0.71073445  0.42356459  0.49497130
   0.71597100  0.57025020  0.48997009
   0.71767281  0.71428123  0.48652276
   0.71176848  0.85499135  0.49162458
   0.85616804  0.99857361  0.49490883
   0.85628119  0.14143531  0.49655418
   0.85686073  0.28450776  0.49776065
   0.85683064  0.42740235  0.49745375
   0.85637597  0.56970088  0.49557514
   0.85784549  0.71333530  0.49354473
   0.85697420  0.85599517  0.49367244
   0.04746731  0.09476761  0.49566853
   0.04676285  0.23713922  0.49578861
   0.04694842  0.38043553  0.49677148
   0.04743486  0.52329535  0.49767593
   0.04749494  0.66612711  0.49769576
   0.04751799  0.80901882  0.49689880
   0.04771573  0.95206631  0.49594094
   0.19097876  0.09554868  0.49497989
   0.19025193  0.23817790  0.49326813
   0.18890180  0.38043700  0.49228545
   0.19072824  0.52423911  0.49443602
   0.19032948  0.66658625  0.49648854
   0.19024711  0.80951947  0.49730566
   0.19082921  0.95262289  0.49659688
   0.33432371  0.09620581  0.49537113
   0.33545852  0.23926640  0.49292562
   0.33002879  0.38016723  0.48626258
   0.33075063  0.52316578  0.48599256
   0.33645045  0.67023688  0.49280507
   0.33252766  0.80973165  0.49573004
   0.33315598  0.95262152  0.49643424
   0.47644277  0.09511115  0.49593304
   0.47759418  0.23944268  0.49487879
   0.47173882  0.80572185  0.49356897
   0.47563798  0.95191578  0.49546130
   0.61856160  0.09416811  0.49642931
   0.61984182  0.23756739  0.49655656
   0.61829437  0.81028071  0.49165642
   0.61734824  0.95046263  0.49465137
   0.76106845  0.09356492  0.49627015
   0.76195487  0.23646202  0.49753667
   0.76150848  0.37905842  0.49681223
   0.76014681  0.52183030  0.49355098
   0.76225891  0.66485500  0.48971747
   0.76115056  0.80693793  0.49041606
   0.76053118  0.95049813  0.49390322
   0.90387568  0.09366221  0.49595656
   0.90419895  0.23683661  0.49725155
   0.90427941  0.38002906  0.49799010
   0.90441098  0.52283636  0.49717238
   0.90453160  0.66522032  0.49552634
   0.90473959  0.80858536  0.49442930
   0.90431002  0.95119895  0.49493404
   0.46775162  0.35694057  0.49513726
   0.40244144  0.41893181  0.48434530
   0.40325969  0.55867320  0.48213887
   0.64535181  0.67837500  0.48072370
   0.64326640  0.53205529  0.48955052
   0.57887475  0.73766245  0.49038198
   0.52299615  0.58433886  0.57877627
   0.55644127  0.57033083  0.48822750
   0.42654432  0.71523470  0.49247319
   0.62073638  0.37874996  0.49416726
   0.51421346  0.53851805  0.53586129
Direct configuration=     8
   0.99969989  0.99934656  0.49555416
   0.99936199  0.14194555  0.49596080
   0.99951417  0.28499266  0.49673477
   0.99956956  0.42792885  0.49769445
   0.99970353  0.57074764  0.49772708
   0.00006652  0.71358878  0.49706015
   0.00023464  0.85682937  0.49596741
   0.14324431  0.00040726  0.49599678
   0.14286868  0.14296028  0.49484463
   0.14217083  0.28528368  0.49382780
   0.14241193  0.42872120  0.49460982
   0.14271590  0.57114846  0.49652280
   0.14283285  0.71398650  0.49744010
   0.14288042  0.85719234  0.49719604
   0.28607235  0.00049909  0.49631383
   0.28666928  0.14369842  0.49437808
   0.28616966  0.28742640  0.49073209
   0.28425595  0.42856180  0.48762726
   0.28699385  0.57196465  0.49104991
   0.28567808  0.71488914  0.49514994
   0.28518742  0.85754071  0.49670697
   0.42856658  0.99994292  0.49593089
   0.42976379  0.14374361  0.49534052
   0.42901352  0.28426816  0.49409891
   0.42729003  0.85647835  0.49489479
   0.57064404  0.99903303  0.49552914
   0.57146022  0.14214499  0.49642771
   0.57537217  0.28833043  0.49535878
   0.56948154  0.85481383  0.49329770
   0.71278065  0.99787849  0.49500607
   0.71394738  0.14141388  0.49689198
   0.71458358  0.28424524  0.49719097
   0.71073176  0.42356544  0.49498403
   0.71596717  0.57025524  0.49005707
   0.71767540  0.71428007  0.48662873
   0.71177092  0.85499129  0.49165587
   0.85617270  0.99857748  0.49490884
   0.85628423  0.14143773  0.49653817
   0.85685725  0.28450300  0.49773421
   0.85683145  0.42740462  0.49742005
   0.85637941  0.56970679  0.49557240
   0.85785194  0.71334099  0.49357707
   0.85697919  0.85599866  0.49369096
   0.04746989  0.09477056  0.49564638
   0.04676371  0.23714215  0.49576788
   0.04695017  0.38043990  0.49674069
   0.04743721  0.52329579  0.49763922
   0.04750022  0.66612900  0.49768202
   0.04751904  0.80901801  0.49689388
   0.04772365  0.95206969  0.49593341
   0.19098235  0.09554985  0.49497529
   0.19025684  0.23818120  0.49325704
   0.18890465  0.38044180  0.49227776
   0.19073157  0.52424304  0.49441832
   0.19033229  0.66658557  0.49647385
   0.19024939  0.80951903  0.49729700
   0.19083240  0.95262226  0.49659206
   0.33432579  0.09620662  0.49537419
   0.33546154  0.23926838  0.49292666
   0.33003518  0.38017169  0.48627790
   0.33075465  0.52316725  0.48602080
   0.33645185  0.67023683  0.49280732
   0.33252629  0.80972858  0.49572744
   0.33315956  0.95262100  0.49643010
   0.47644719  0.09511161  0.49593503
   0.47759703  0.23944497  0.49488507
   0.47174251  0.80572110  0.49357412
   0.47564147  0.95191517  0.49545979
   0.61856476  0.09417066  0.49641696
   0.61983920  0.23756553  0.49655527
   0.61829656  0.81028240  0.49167744
   0.61735072  0.95046112  0.49465359
   0.76107171  0.09356693  0.49625977
   0.76195728  0.23646524  0.49751461
   0.76151526  0.37906186  0.49679925
   0.76015121  0.52183521  0.49358020
   0.76226543  0.66486223  0.48980293
   0.76115680  0.80694245  0.49046567
   0.76053435  0.95050079  0.49390407
   0.90387208  0.09366242  0.49594932
   0.90420070  0.23683989  0.49722689
   0.90428560  0.38003864  0.49795619
   0.90441860  0.52284183  0.49714440
   0.90453989  0.66522179  0.49553382
   0.90474688  0.80858823  0.49444079
   0.90431547  0.95120289  0.49492833
   0.46775829  0.35694077  0.49514465
   0.40244591  0.41893339  0.48438483
   0.40326255  0.55868472  0.48218942
   0.64535332  0.67834691  0.48091126
   0.64326397  0.53209023  0.48969058
   0.57888198  0.73766158  0.49042309
   0.52300523  0.58438162  0.57885677
   0.55591490  0.57023156  0.48808192
   0.42654926  0.71523663  0.49247890
   0.62073769  0.37875200  0.49418808
   0.51441385  0.53838408  0.53613444
Direct configuration=     9
   0.99970720  0.99935063  0.49553087