  99  99   0   0
  0.3914025E+02  0.1727104E-08  0.1727104E-08  0.1500000E-08  0.0000000E+00
  1.000000000000000E-004
  CAR 
 unknown system                          
      6.12323298    -31.31781823  301     -2.38305057      1.00000000
    -31.318  0.0000E+00  0.0000E+00  0.0000E+00  0.0000E+00
    -31.193  0.0000E+00  0.0000E+00  0.0000E+00  0.0000E+00
    -31.068  0.0000E+00  0.0000E+00  0.0000E+00  0.0000E+00
    -30.943  0.0000E+00  0.0000E+00  0.0000E+00  0.0000E+00
    -30.819  0.0000E+00  0.0000E+00  0.0000E+00  0.0000E+00
    -30.694  0.0000E+00  0.0000E+00  0.0000E+00  0.0000E+00
    -30.569  0.0000E+00  0.0000E+00  0.0000E+00  0.0000E+00
    -30.444  0.0000E+00  0.0000E+00  0.0000E+00  0.0000E+00
    -30.319  0.0000E+00  0.0000E+00  0.0000E+00  0.0000E+00
    -30.195  0.0000E+00  0.0000E+00  0.0000E+00  0.0000E+00
    -30.070  0.0000E+00  0.0000E+00  0.0000E+00  0.0000E+00
    -29.945  0.0000E+00  0.0000E+00  0.0000E+00  0.0000E+00
    -29.820  0.3047E-10  0.3047E-10  0.3803E-11  0.3803E-11
    -29.695  0.9872E-04  0.9872E-04  0.1232E-04  0.1232E-04
    -29.571  0.7115E-02  0.7115E-02  0.9002E-03  0.9002E-03
    -29.446  0.7993E-03  0.7993E-03  0.1000E-02  0.1000E-02
    -29.321  0.5958E-08  0.5958E-08  0.1000E-02  0.1000E-02
    -29.196  0.0000E+00  0.0000E+00  0.1000E-02  0.1000E-02
    -29.071  0.0000E+00  0.0000E+00  0.1000E-02  0.1000E-02
    -28.947  0.0000E+00  0.0000E+00  0.1000E-02  0.1000E-02
    -28.822  0.0000E+00  0.0000E+00  0.1000E-02  0.1000E-02
    -28.697  0.0000E+00  0.0000E+00  0.1000E-02  0.1000E-02
    -28.572  0.0000E+00  0.0000E+00  0.1000E-02  0.1000E-02
    -28.447  0.0000E+00  0.0000E+00  0.1000E-02  0.1000E-02
    -28.323  0.0000E+00  0.0000E+00  0.1000E-02  0.1000E-02
    -28.198  0.0000E+00  0.0000E+00  0.1000E-02  0.1000E-02
    -28.073  0.0000E+00  0.0000E+00  0.1000E-02  0.1000E-02
    -27.948  0.0000E+00  0.0000E+00  0.1000E-02  0.1000E-02
    -27.823  0.0000E+00  0.0000E+00  0.1000E-02  0.1000E-02
    -27.699  0.0000E+00  0.0000E+00  0.1000E-02  0.1000E-02
    -27.574  0.0000E+00  0.0000E+00  0.1000E-02  0.1000E-02
    -27.449  0.0000E+00  0.0000E+00  0.1000E-02  0.1000E-02
    -27.324  0.0000E+00  0.0000E+00  0.1000E-02  0.1000E-02
    -27.199  0.0000E+00  0.0000E+00  0.1000E-02  0.1000E-02
    -27.074  0.0000E+00  0.0000E+00  0.1000E-02  0.1000E-02
    -26.950  0.0000E+00  0.0000E+00  0.1000E-02  0.1000E-02
    -26.825  0.0000E+00  0.0000E+00  0.1000E-02  0.1000E-02
    -26.700  0.0000E+00  0.0000E+00  0.1000E-02  0.1000E-02
    -26.575  0.0000E+00  0.0000E+00  0.1000E-02  0.1000E-02
    -26.450  0.0000E+00  0.0000E+00  0.1000E-02  0.1000E-02
    -26.326  0.0000E+00  0.0000E+00  0.1000E-02  0.1000E-02
    -26.201  0.0000E+00  0.0000E+00  0.1000E-02  0.1000E-02
    -26.076  0.0000E+00  0.0000E+00  0.1000E-02  0.1000E-02
    -25.951  0.0000E+00  0.0000E+00  0.1000E-02  0.1000E-02
    -25.826  0.0000E+00  0.0000E+00  0.1000E-02  0.1000E-02
    -25.702  0.0000E+00  0.0000E+00  0.1000E-02  0.1000E-02
    -25.577  0.0000E+00  0.0000E+00  0.1000E-02  0.1000E-02
    -25.452  0.0000E+00  0.0000E+00  0.1000E-02  0.1000E-02
    -25.327  0.0000E+00  0.0000E+00  0.1000E-02  0.1000E-02
    -25.202  0.0000E+00  0.0000E+00  0.1000E-02  0.1000E-02
    -25.078  0.0000E+00  0.0000E+00  0.1000E-02  0.1000E-02
    -24.953  0.0000E+00  0.0000E+00  0.1000E-02  0.1000E-02
    -24.828  0.0000E+00  0.0000E+00  0.1000E-02  0.1000E-02
    -24.703  0.0000E+00  0.0000E+00  0.1000E-02  0.1000E-02
    -24.578  0.0000E+00  0.0000E+00  0.1000E-02  0.1000E-02
    -24.454  0.0000E+00  0.0000E+00  0.1000E-02  0.1000E-02
    -24.329  0.3209E-14  0.3209E-14  0.1000E-02  0.1000E-02
    -24.204  0.1131E-05  0.1131E-05  0.1000E-02  0.1000E-02
    -24.079  0.3683E-02  0.3683E-02  0.1460E-02  0.1460E-02
    -23.954  0.4326E-02  0.4326E-02  0.2000E-02  0.2000E-02
    -23.830  0.2427E-05  0.2427E-05  0.2000E-02  0.2000E-02
    -23.705  0.1374E-13  0.1374E-13  0.2000E-02  0.2000E-02
    -23.580  0.0000E+00  0.0000E+00  0.2000E-02  0.2000E-02
    -23.455  0.0000E+00  0.0000E+00  0.2000E-02  0.2000E-02
    -23.330  0.0000E+00  0.0000E+00  0.2000E-02  0.2000E-02
    -23.206  0.0000E+00  0.0000E+00  0.2000E-02  0.2000E-02
    -23.081  0.0000E+00  0.0000E+00  0.2000E-02  0.2000E-02
    -22.956  0.0000E+00  0.0000E+00  0.2000E-02  0.2000E-02
    -22.831  0.0000E+00  0.0000E+00  0.2000E-02  0.2000E-02
    -22.706  0.0000E+00  0.0000E+00  0.2000E-02  0.2000E-02
    -22.582  0.0000E+00  0.0000E+00  0.2000E-02  0.2000E-02
    -22.457  0.0000E+00  0.0000E+00  0.2000E-02  0.2000E-02
    -22.332  0.0000E+00  0.0000E+00  0.2000E-02  0.2000E-02
    -22.207  0.0000E+00  0.0000E+00  0.2000E-02  0.2000E-02
    -22.082  0.0000E+00  0.0000E+00  0.2000E-02  0.2000E-02
    -21.958  0.6244E-10  0.6244E-10  0.2000E-02  0.2000E-02
    -21.833  0.6104E-04  0.6104E-04  0.2008E-02  0.2008E-02
    -21.708  0.4365E-02  0.4365E-02  0.2552E-02  0.2552E-02
    -21.583  0.8280E-02  0.8280E-02  0.3586E-02  0.3586E-02
    -21.458  0.1766E-02  0.1766E-02  0.3806E-02  0.3806E-02
    -21.334  0.1027E-01  0.1027E-01  0.5088E-02  0.5088E-02
    -21.209  0.7671E-02  0.7671E-02  0.6045E-02  0.6045E-02
    -21.084  0.3172E-02  0.3172E-02  0.6441E-02  0.6441E-02
    -20.959  0.4339E-02  0.4339E-02  0.6983E-02  0.6983E-02
    -20.834  0.1274E-01  0.1274E-01  0.8573E-02  0.8573E-02
    -20.710  0.8163E-02  0.8163E-02  0.9591E-02  0.9591E-02
    -20.585  0.1314E-02  0.1314E-02  0.9755E-02  0.9755E-02
    -20.460  0.4578E-02  0.4578E-02  0.1033E-01  0.1033E-01
    -20.335  0.8393E-02  0.8393E-02  0.1137E-01  0.1137E-01
    -20.210  0.1214E-01  0.1214E-01  0.1289E-01  0.1289E-01
    -20.086  0.9224E-02  0.9224E-02  0.1404E-01  0.1404E-01
    -19.961  0.1758E-02  0.1758E-02  0.1426E-01  0.1426E-01
    -19.836  0.4248E-02  0.4248E-02  0.1479E-01  0.1479E-01
    -19.711  0.7898E-02  0.7898E-02  0.1578E-01  0.1578E-01
    -19.586  0.3211E-02  0.3211E-02  0.1618E-01  0.1618E-01
    -19.461  0.1320E-01  0.1320E-01  0.1782E-01  0.1782E-01
    -19.337  0.1298E-01  0.1298E-01  0.1944E-01  0.1944E-01
    -19.212  0.2509E-02  0.2509E-02  0.1976E-01  0.1976E-01
    -19.087  0.5239E-02  0.5239E-02  0.2041E-01  0.2041E-01
    -18.962  0.7430E-02  0.7430E-02  0.2134E-01  0.2134E-01
    -18.837  0.5301E-02  0.5301E-02  0.2200E-01  0.2200E-01
    -18.713  0.3701E-02  0.3701E-02  0.2246E-01  0.2246E-01
    -18.588  0.7617E-02  0.7617E-02  0.2341E-01  0.2341E-01
    -18.463  0.1674E-01  0.1674E-01  0.2550E-01  0.2550E-01
    -18.338  0.5644E-02  0.5644E-02  0.2620E-01  0.2620E-01
    -18.213  0.5943E-02  0.5943E-02  0.2695E-01  0.2695E-01
    -18.089  0.7661E-02  0.7661E-02  0.2790E-01  0.2790E-01
    -17.964  0.7758E-02  0.7758E-02  0.2887E-01  0.2887E-01
    -17.839  0.5661E-02  0.5661E-02  0.2958E-01  0.2958E-01
    -17.714  0.4483E-02  0.4483E-02  0.3014E-01  0.3014E-01
    -17.589  0.3511E-02  0.3511E-02  0.3057E-01  0.3057E-01
    -17.465  0.9059E-02  0.9059E-02  0.3171E-01  0.3171E-01
    -17.340  0.1678E-01  0.1678E-01  0.3380E-01  0.3380E-01
    -17.215  0.8163E-02  0.8163E-02  0.3482E-01  0.3482E-01
    -17.090  0.1077E-01  0.1077E-01  0.3616E-01  0.3616E-01
    -16.965  0.4313E-02  0.4313E-02  0.3670E-01  0.3670E-01
    -16.841  0.8269E-02  0.8269E-02  0.3773E-01  0.3773E-01
    -16.716  0.9177E-02  0.9177E-02  0.3888E-01  0.3888E-01
    -16.591  0.3189E-02  0.3189E-02  0.3928E-01  0.3928E-01
    -16.466  0.5846E-02  0.5846E-02  0.4001E-01  0.4001E-01
    -16.341  0.1032E-01  0.1032E-01  0.4129E-01  0.4129E-01
    -16.217  0.1373E-01  0.1373E-01  0.4301E-01  0.4301E-01
    -16.092  0.7303E-02  0.7303E-02  0.4392E-01  0.4392E-01
    -15.967  0.1797E-02  0.1797E-02  0.4414E-01  0.4414E-01
    -15.842  0.3028E-02  0.3028E-02  0.4452E-01  0.4452E-01
    -15.717  0.2182E-02  0.2182E-02  0.4479E-01  0.4479E-01
    -15.593  0.3558E-02  0.3558E-02  0.4524E-01  0.4524E-01
    -15.468  0.1821E-02  0.1821E-02  0.4547E-01  0.4547E-01
    -15.343  0.7814E-02  0.7814E-02  0.4644E-01  0.4644E-01
    -15.218  0.9206E-02  0.9206E-02  0.4759E-01  0.4759E-01
    -15.093  0.6669E-02  0.6669E-02  0.4842E-01  0.4842E-01
    -14.969  0.6357E-02  0.6357E-02  0.4922E-01  0.4922E-01
    -14.844  0.1644E-01  0.1644E-01  0.5127E-01  0.5127E-01
    -14.719  0.5942E-02  0.5942E-02  0.5201E-01  0.5201E-01
    -14.594  0.3521E-02  0.3521E-02  0.5245E-01  0.5245E-01
    -14.469  0.1243E-01  0.1243E-01  0.5400E-01  0.5400E-01
    -14.345  0.9714E-02  0.9714E-02  0.5521E-01  0.5521E-01
    -14.220  0.8558E-02  0.8558E-02  0.5628E-01  0.5628E-01
    -14.095  0.1040E-01  0.1040E-01  0.5758E-01  0.5758E-01
    -13.970  0.9385E-02  0.9385E-02  0.5875E-01  0.5875E-01
    -13.845  0.6106E-02  0.6106E-02  0.5951E-01  0.5951E-01
    -13.721  0.3770E-02  0.3770E-02  0.5998E-01  0.5998E-01
    -13.596  0.5713E-02  0.5713E-02  0.6070E-01  0.6070E-01
    -13.471  0.9483E-02  0.9483E-02  0.6188E-01  0.6188E-01
    -13.346  0.7463E-02  0.7463E-02  0.6281E-01  0.6281E-01
    -13.221  0.8520E-02  0.8520E-02  0.6387E-01  0.6387E-01
    -13.097  0.6321E-02  0.6321E-02  0.6466E-01  0.6466E-01
    -12.972  0.6138E-02  0.6138E-02  0.6543E-01  0.6543E-01
    -12.847  0.2906E-02  0.2906E-02  0.6579E-01  0.6579E-01
    -12.722  0.9239E-02  0.9239E-02  0.6694E-01  0.6694E-01
    -12.597  0.5832E-02  0.5832E-02  0.6767E-01  0.6767E-01
    -12.472  0.1147E-01  0.1147E-01  0.6910E-01  0.6910E-01
    -12.348  0.1501E-01  0.1501E-01  0.7098E-01  0.7098E-01
    -12.223  0.1017E-01  0.1017E-01  0.7225E-01  0.7225E-01
    -12.098  0.6613E-02  0.6613E-02  0.7307E-01  0.7307E-01
    -11.973  0.5668E-02  0.5668E-02  0.7378E-01  0.7378E-01
    -11.848  0.6525E-02  0.6525E-02  0.7459E-01  0.7459E-01
    -11.724  0.1166E-01  0.1166E-01  0.7605E-01  0.7605E-01
    -11.599  0.9475E-02  0.9475E-02  0.7723E-01  0.7723E-01
    -11.474  0.8594E-02  0.8594E-02  0.7830E-01  0.7830E-01
    -11.349  0.1294E-01  0.1294E-01  0.7992E-01  0.7992E-01
    -11.224  0.9821E-02  0.9821E-02  0.8114E-01  0.8114E-01
    -11.100  0.1483E-01  0.1483E-01  0.8299E-01  0.8299E-01
    -10.975  0.6831E-02  0.6831E-02  0.8385E-01  0.8385E-01
    -10.850  0.1009E-01  0.1009E-01  0.8511E-01  0.8511E-01
    -10.725  0.1423E-01  0.1423E-01  0.8688E-01  0.8688E-01
    -10.600  0.6399E-02  0.6399E-02  0.8768E-01  0.8768E-01
    -10.476  0.4743E-02  0.4743E-02  0.8827E-01  0.8827E-01
    -10.351  0.7668E-02  0.7668E-02  0.8923E-01  0.8923E-01
    -10.226  0.1277E-01  0.1277E-01  0.9082E-01  0.9082E-01
    -10.101  0.1123E-01  0.1123E-01  0.9222E-01  0.9222E-01
     -9.976  0.1706E-01  0.1706E-01  0.9435E-01  0.9435E-01
     -9.852  0.1776E-01  0.1776E-01  0.9657E-01  0.9657E-01
     -9.727  0.1856E-01  0.1856E-01  0.9889E-01  0.9889E-01
     -9.602  0.1695E-01  0.1695E-01  0.1010E+00  0.1010E+00
     -9.477  0.9850E-02  0.9850E-02  0.1022E+00  0.1022E+00
     -9.352  0.1963E-01  0.1963E-01  0.1047E+00  0.1047E+00
     -9.228  0.1576E-01  0.1576E-01  0.1066E+00  0.1066E+00
     -9.103  0.1686E-01  0.1686E-01  0.1088E+00  0.1088E+00
     -8.978  0.2162E-01  0.2162E-01  0.1114E+00  0.1114E+00
     -8.853  0.2533E-01  0.2533E-01  0.1146E+00  0.1146E+00
     -8.728  0.3066E-01  0.3066E-01  0.1184E+00  0.1184E+00
     -8.604  0.2257E-01  0.2257E-01  0.1213E+00  0.1213E+00
     -8.479  0.1735E-01  0.1735E-01  0.1234E+00  0.1234E+00
     -8.354  0.1948E-01  0.1948E-01  0.1259E+00  0.1259E+00
     -8.229  0.1941E-01  0.1941E-01  0.1283E+00  0.1283E+00
     -8.104  0.1948E-01  0.1948E-01  0.1307E+00  0.1307E+00
     -7.980  0.2433E-01  0.2433E-01  0.1337E+00  0.1337E+00
     -7.855  0.1617E-01  0.1617E-01  0.1358E+00  0.1358E+00
     -7.730  0.2029E-01  0.2029E-01  0.1383E+00  0.1383E+00
     -7.605  0.1538E-01  0.1538E-01  0.1402E+00  0.1402E+00
     -7.480  0.1323E-01  0.1323E-01  0.1419E+00  0.1419E+00
     -7.356  0.6094E-02  0.6094E-02  0.1426E+00  0.1426E+00
     -7.231  0.1606E-01  0.1606E-01  0.1446E+00  0.1446E+00
     -7.106  0.2330E-01  0.2330E-01  0.1475E+00  0.1475E+00
     -6.981  0.1935E-01  0.1935E-01  0.1500E+00  0.1500E+00
     -6.856  0.1484E-01  0.1484E-01  0.1518E+00  0.1518E+00
     -6.732  0.1128E-01  0.1128E-01  0.1532E+00  0.1532E+00
     -6.607  0.9800E-02  0.9800E-02  0.1544E+00  0.1544E+00
     -6.482  0.1169E-01  0.1169E-01  0.1559E+00  0.1559E+00
     -6.357  0.1268E-01  0.1268E-01  0.1575E+00  0.1575E+00
     -6.232  0.1214E-01  0.1214E-01  0.1590E+00  0.1590E+00
     -6.108  0.1765E-01  0.1765E-01  0.1612E+00  0.1612E+00
     -5.983  0.2243E-01  0.2243E-01  0.1640E+00  0.1640E+00
     -5.858  0.1144E-01  0.1144E-01  0.1654E+00  0.1654E+00
     -5.733  0.1580E-01  0.1580E-01  0.1674E+00  0.1674E+00
     -5.608  0.1461E-01  0.1461E-01  0.1692E+00  0.1692E+00
     -5.483  0.1009E-01  0.1009E-01  0.1705E+00  0.1705E+00
     -5.359  0.6543E-02  0.6543E-02  0.1713E+00  0.1713E+00
     -5.234  0.3703E-02  0.3703E-02  0.1718E+00  0.1718E+00
     -5.109  0.2088E-02  0.2088E-02  0.1720E+00  0.1720E+00
     -4.984  0.1340E-01  0.1340E-01  0.1737E+00  0.1737E+00
     -4.859  0.2097E-01  0.2097E-01  0.1763E+00  0.1763E+00
     -4.735  0.1482E-01  0.1482E-01  0.1782E+00  0.1782E+00
     -4.610  0.5833E-02  0.5833E-02  0.1789E+00  0.1789E+00
     -4.485  0.9322E-02  0.9322E-02  0.1800E+00  0.1800E+00
     -4.360  0.1646E-02  0.1646E-02  0.1803E+00  0.1803E+00
     -4.235  0.2887E-02  0.2887E-02  0.1806E+00  0.1806E+00
     -4.111  0.8319E-02  0.8319E-02  0.1816E+00  0.1816E+00
     -3.986  0.6946E-02  0.6946E-02  0.1825E+00  0.1825E+00
     -3.861  0.7140E-02  0.7140E-02  0.1834E+00  0.1834E+00
     -3.736  0.7436E-02  0.7436E-02  0.1843E+00  0.1843E+00
     -3.611  0.5260E-02  0.5260E-02  0.1850E+00  0.1850E+00
     -3.487  0.6559E-04  0.6559E-04  0.1850E+00  0.1850E+00
     -3.362  0.6613E-03  0.6613E-03  0.1851E+00  0.1851E+00
     -3.237  0.2585E-02  0.2585E-02  0.1854E+00  0.1854E+00
     -3.112  0.6392E-02  0.6392E-02  0.1862E+00  0.1862E+00
     -2.987  0.1042E-02  0.1042E-02  0.1863E+00  0.1863E+00
     -2.863  0.1336E-02  0.1336E-02  0.1865E+00  0.1865E+00
     -2.738  0.1984E-05  0.1984E-05  0.1865E+00  0.1865E+00
     -2.613  0.6645E-03  0.6645E-03  0.1866E+00  0.1866E+00
     -2.488  0.3319E-02  0.3319E-02  0.1870E+00  0.1870E+00
     -2.363  0.2288E-04  0.2288E-04  0.1870E+00  0.1870E+00
     -2.239  0.2824E-03  0.2824E-03  0.1870E+00  0.1870E+00
     -2.114  0.3627E-02  0.3627E-02  0.1875E+00  0.1875E+00
     -1.989  0.9728E-04  0.9728E-04  0.1875E+00  0.1875E+00
     -1.864  0.3906E-05  0.3906E-05  0.1875E+00  0.1875E+00
     -1.739  0.1619E-02  0.1619E-02  0.1877E+00  0.1877E+00
     -1.615  0.2843E-02  0.2843E-02  0.1881E+00  0.1881E+00
     -1.490  0.6417E-02  0.6417E-02  0.1889E+00  0.1889E+00
     -1.365  0.1136E-02  0.1136E-02  0.1890E+00  0.1890E+00
     -1.240  0.3698E-03  0.3698E-03  0.1890E+00  0.1890E+00
     -1.115  0.7427E-02  0.7427E-02  0.1900E+00  0.1900E+00
     -0.991  0.4283E-02  0.4283E-02  0.1905E+00  0.1905E+00
     -0.866  0.5250E-02  0.5250E-02  0.1912E+00  0.1912E+00
     -0.741  0.1604E-01  0.1604E-01  0.1932E+00  0.1932E+00
     -0.616  0.6887E-02  0.6887E-02  0.1940E+00  0.1940E+00
     -0.491  0.9405E-02  0.9405E-02  0.1952E+00  0.1952E+00
     -0.367  0.1015E-01  0.1015E-01  0.1965E+00  0.1965E+00
     -0.242  0.5942E-02  0.5942E-02  0.1972E+00  0.1972E+00
     -0.117  0.5583E-02  0.5583E-02  0.1979E+00  0.1979E+00
      0.008  0.9133E-02  0.9133E-02  0.1990E+00  0.1990E+00
      0.133  0.8691E-02  0.8691E-02  0.2001E+00  0.2001E+00
      0.257  0.1199E-01  0.1199E-01  0.2016E+00  0.2016E+00
      0.382  0.8683E-02  0.8683E-02  0.2027E+00  0.2027E+00
      0.507  0.2333E-02  0.2333E-02  0.2030E+00  0.2030E+00
      0.632  0.4141E-02  0.4142E-02  0.2035E+00  0.2035E+00
      0.757  0.1375E-01  0.1375E-01  0.2052E+00  0.2052E+00
      0.881  0.9055E-02  0.9055E-02  0.2064E+00  0.2064E+00
      1.006  0.4389E-02  0.4389E-02  0.2069E+00  0.2069E+00
      1.131  0.1050E-01  0.1050E-01  0.2082E+00  0.2082E+00
      1.256  0.7496E-02  0.7496E-02  0.2092E+00  0.2092E+00
      1.381  0.7691E-02  0.7691E-02  0.2101E+00  0.2101E+00
      1.506  0.1215E-01  0.1215E-01  0.2116E+00  0.2116E+00
      1.630  0.1927E-01  0.1927E-01  0.2140E+00  0.2140E+00
      1.755  0.1710E-01  0.1710E-01  0.2162E+00  0.2162E+00
      1.880  0.7904E-02  0.7904E-02  0.2172E+00  0.2172E+00
      2.005  0.1140E-01  0.1140E-01  0.2186E+00  0.2186E+00
      2.130  0.2211E-01  0.2211E-01  0.2213E+00  0.2213E+00
      2.254  0.1622E-01  0.1622E-01  0.2234E+00  0.2234E+00
      2.379  0.2083E-01  0.2083E-01  0.2260E+00  0.2260E+00
      2.504  0.2247E-01  0.2247E-01  0.2288E+00  0.2288E+00
      2.629  0.7475E-02  0.7475E-02  0.2297E+00  0.2297E+00
      2.754  0.1635E-01  0.1635E-01  0.2317E+00  0.2317E+00
      2.878  0.2618E-01  0.2618E-01  0.2350E+00  0.2350E+00
      3.003  0.3741E-01  0.3741E-01  0.2397E+00  0.2397E+00
      3.128  0.1907E-01  0.1907E-01  0.2421E+00  0.2421E+00
      3.253  0.2535E-01  0.2535E-01  0.2452E+00  0.2452E+00
      3.378  0.1799E-01  0.1799E-01  0.2475E+00  0.2475E+00
      3.502  0.2185E-01  0.2185E-01  0.2502E+00  0.2502E+00
      3.627  0.1941E-01  0.1941E-01  0.2526E+00  0.2526E+00
      3.752  0.1642E-01  0.1642E-01  0.2547E+00  0.2547E+00
      3.877  0.2591E-01  0.2591E-01  0.2579E+00  0.2579E+00
      4.002  0.2336E-01  0.2336E-01  0.2608E+00  0.2608E+00
      4.126  0.1854E-01  0.1854E-01  0.2631E+00  0.2631E+00
      4.251  0.1810E-01  0.1810E-01  0.2654E+00  0.2654E+00
      4.376  0.2674E-01  0.2674E-01  0.2687E+00  0.2687E+00
      4.501  0.1020E-01  0.1020E-01  0.2700E+00  0.2700E+00
      4.626  0.3857E-04  0.3857E-04  0.2700E+00  0.2700E+00
      4.750  0.8742E-11  0.8739E-11  0.2700E+00  0.2700E+00
      4.875  0.0000E+00  0.0000E+00  0.2700E+00  0.2700E+00
      5.000  0.0000E+00  0.0000E+00  0.2700E+00  0.2700E+00
      5.125  0.0000E+00  0.0000E+00  0.2700E+00  0.2700E+00
      5.250  0.0000E+00  0.0000E+00  0.2700E+00  0.2700E+00
      5.374  0.0000E+00  0.0000E+00  0.2700E+00  0.2700E+00
      5.499  0.0000E+00  0.0000E+00  0.2700E+00  0.2700E+00
      5.624  0.0000E+00  0.0000E+00  0.2700E+00  0.2700E+00
      5.749  0.0000E+00  0.0000E+00  0.2700E+00  0.2700E+00
      5.874  0.0000E+00  0.0000E+00  0.2700E+00  0.2700E+00
      5.998  0.0000E+00  0.0000E+00  0.2700E+00  0.2700E+00
      6.123  0.0000E+00  0.0000E+00  0.2700E+00  0.2700E+00
