       N       E                     dE             d eps       ncg     rms          rms(c)
DAV:   1     0.333184926219E+04    0.33318E+04   -0.14010E+05  4630   0.105E+03
DAV:   2    -0.253511571946E+03   -0.35854E+04   -0.33757E+04  6520   0.259E+02
DAV:   3    -0.874800827374E+03   -0.62129E+03   -0.61853E+03  5410   0.111E+02
DAV:   4    -0.896933506246E+03   -0.22133E+02   -0.22052E+02  5400   0.263E+01
DAV:   5    -0.897592139148E+03   -0.65863E+00   -0.65781E+00  6150   0.397E+00    0.522E+01
DAV:   6    -0.879559430727E+03    0.18033E+02   -0.22933E+01  5280   0.810E+00    0.339E+01
DAV:   7    -0.856866257909E+03    0.22693E+02   -0.34169E+01  5120   0.933E+00    0.206E+01
DAV:   8    -0.851898479727E+03    0.49678E+01   -0.24634E+01  5280   0.755E+00    0.835E+00
DAV:   9    -0.851815096446E+03    0.83383E-01   -0.11181E+00  5040   0.214E+00    0.326E+00
DAV:  10    -0.851718321356E+03    0.96775E-01   -0.51252E-01  5040   0.133E+00    0.950E-01
DAV:  11    -0.851704986320E+03    0.13335E-01   -0.86055E-02  4910   0.610E-01    0.351E-01
DAV:  12    -0.851703645625E+03    0.13407E-02   -0.15974E-02  5300   0.278E-01    0.163E-01
DAV:  13    -0.851703540733E+03    0.10489E-03   -0.22109E-03  5360   0.972E-02    0.110E-01
DAV:  14    -0.851703559746E+03   -0.19013E-04   -0.79980E-04  5150   0.662E-02    0.509E-02
DAV:  15    -0.851703605045E+03   -0.45299E-04   -0.10332E-04  5000   0.207E-02    0.339E-02
DAV:  16    -0.851703624574E+03   -0.19528E-04   -0.48920E-05  4850   0.191E-02    0.111E-02
DAV:  17    -0.851703622186E+03    0.23874E-05   -0.11349E-05  5330   0.914E-03    0.592E-03
DAV:  18    -0.851703622757E+03   -0.57094E-06   -0.62014E-06  4700   0.606E-03
   1 F= -.85959485E+03 E0= -.85959485E+03  d E =-.859595E+03  mag=     0.0000
       N       E                     dE             d eps       ncg     rms          rms(c)
DAV:   1    -0.851703649836E+03   -0.27649E-04   -0.26152E-04  4540   0.318E-02    0.358E-03
DAV:   2    -0.851703650099E+03   -0.26333E-06   -0.54754E-06  4530   0.438E-03
   2 F= -.85959487E+03 E0= -.85959487E+03  d E =-.235795E-04  mag=     0.0000
       N       E                     dE             d eps       ncg     rms          rms(c)
DAV:   1    -0.851703704542E+03   -0.54706E-04   -0.80519E-04  4540   0.539E-02    0.751E-03
DAV:   2    -0.851703704829E+03   -0.28654E-06   -0.11877E-05  4580   0.646E-03    0.645E-03
DAV:   3    -0.851703704389E+03    0.43957E-06   -0.11385E-06  3140   0.250E-03
   3 F= -.85959492E+03 E0= -.85959492E+03  d E =-.457941E-04  mag=    -0.0000
       N       E                     dE             d eps       ncg     rms          rms(c)
DAV:   1    -0.851703789001E+03   -0.84173E-04   -0.17568E-03  4560   0.792E-02    0.870E-03
DAV:   2    -0.851703790576E+03   -0.15747E-05   -0.25428E-05  4580   0.931E-03    0.759E-03
DAV:   3    -0.851703790228E+03    0.34813E-06   -0.86907E-07  3400   0.216E-03
   4 F= -.85959499E+03 E0= -.85959499E+03  d E =-.723629E-04  mag=     0.0000
       N       E                     dE             d eps       ncg     rms          rms(c)
DAV:   1    -0.851703903913E+03   -0.11334E-03   -0.31558E-03  4540   0.106E-01    0.115E-02
DAV:   2    -0.851703906790E+03   -0.28773E-05   -0.45178E-05  4590   0.123E-02    0.997E-03
DAV:   3    -0.851703906244E+03    0.54586E-06   -0.15178E-06  3760   0.276E-03
   5 F= -.85959509E+03 E0= -.85959509E+03  d E =-.976474E-04  mag=    -0.0000
       N       E                     dE             d eps       ncg     rms          rms(c)
DAV:   1    -0.851704051907E+03   -0.14512E-03   -0.48092E-03  4520   0.131E-01    0.142E-02
DAV:   2    -0.851704056253E+03   -0.43460E-05   -0.67913E-05  4520   0.152E-02    0.124E-02
DAV:   3    -0.851704055541E+03    0.71236E-06   -0.25603E-06  4260   0.348E-03
   6 F= -.85959522E+03 E0= -.85959522E+03  d E =-.127376E-03  mag=     0.0000
       N       E                     dE             d eps       ncg     rms          rms(c)
DAV:   1    -0.851704235361E+03   -0.17911E-03   -0.69235E-03  4520   0.157E-01    0.173E-02
DAV:   2    -0.851704241638E+03   -0.62768E-05   -0.97833E-05  4520   0.183E-02    0.150E-02
DAV:   3    -0.851704240698E+03    0.94000E-06   -0.37291E-06  4590   0.417E-03
   7 F= -.85959538E+03 E0= -.85959538E+03  d E =-.158386E-03  mag=    -0.0000
       N       E                     dE             d eps       ncg     rms          rms(c)
DAV:   1    -0.851704480468E+03   -0.23883E-03   -0.11989E-02  4560   0.205E-01    0.228E-02
DAV:   2    -0.851704491285E+03   -0.10817E-04   -0.16841E-04  4540   0.239E-02    0.194E-02
DAV:   3    -0.851704489666E+03    0.16188E-05   -0.60397E-06  5010   0.529E-03    0.127E-02
DAV:   4    -0.851704491520E+03   -0.18532E-05   -0.55864E-06  4460   0.513E-03    0.322E-03
DAV:   5    -0.851704491575E+03   -0.55334E-07   -0.24565E-06  3590   0.263E-03
   8 F= -.85959559E+03 E0= -.85959559E+03  d E =-.214311E-03  mag=     0.0000
       N       E                     dE             d eps       ncg     rms          rms(c)
DAV:   1    -0.851704799572E+03   -0.30805E-03   -0.20136E-02  4520   0.266E-01    0.280E-02
DAV:   2    -0.851704820513E+03   -0.20941E-04   -0.31854E-04  4480   0.325E-02    0.237E-02
DAV:   3    -0.851704816472E+03    0.40407E-05   -0.10683E-05  5340   0.690E-03    0.164E-02
DAV:   4    -0.851704818243E+03   -0.17712E-05   -0.10841E-05  4400   0.716E-03    0.454E-03
DAV:   5    -0.851704818523E+03   -0.27948E-06   -0.41202E-06  4160   0.331E-03
   9 F= -.85959587E+03 E0= -.85959587E+03  d E =-.282334E-03  mag=     0.0000
       N       E                     dE             d eps       ncg     rms          rms(c)
DAV:   1    -0.851705207992E+03   -0.38975E-03   -0.31716E-02  4540   0.335E-01    0.356E-02
DAV:   2    -0.851705241069E+03   -0.33077E-04   -0.49972E-04  4460   0.410E-02    0.299E-02
DAV:   3    -0.851705235086E+03    0.59829E-05   -0.16526E-05  5360   0.863E-03    0.207E-02
DAV:   4    -0.851705238035E+03   -0.29495E-05   -0.16599E-05  4520   0.888E-03    0.573E-03
DAV:   5    -0.851705238494E+03   -0.45849E-06   -0.63791E-06  4690   0.411E-03
  10 F= -.85959624E+03 E0= -.85959624E+03  d E =-.364406E-03  mag=     0.0000
       N       E                     dE             d eps       ncg     rms          rms(c)
DAV:   1    -0.851705727479E+03   -0.48944E-03   -0.49297E-02  4560   0.417E-01    0.443E-02
DAV:   2    -0.851705780716E+03   -0.53237E-04   -0.78711E-04  4460   0.513E-02    0.371E-02
DAV:   3    -0.851705771951E+03    0.87648E-05   -0.24909E-05  5330   0.106E-02    0.258E-02
DAV:   4    -0.851705776840E+03   -0.48892E-05   -0.27064E-05  4580   0.112E-02    0.703E-03
DAV:   5    -0.851705777355E+03   -0.51448E-06   -0.10071E-05  4880   0.529E-03    0.325E-03
DAV:   6    -0.851705777504E+03   -0.14938E-06   -0.71387E-07  2880   0.162E-03
  11 F= -.85959670E+03 E0= -.85959670E+03  d E =-.466632E-03  mag=    -0.0000
       N       E                     dE             d eps       ncg     rms          rms(c)
DAV:   1    -0.851706364527E+03   -0.58717E-03   -0.81425E-02  4480   0.536E-01    0.563E-02
DAV:   2    -0.851706458373E+03   -0.93846E-04   -0.13553E-03  4470   0.667E-02    0.469E-02
DAV:   3    -0.851706443659E+03    0.14714E-04   -0.38338E-05  5330   0.131E-02    0.333E-02
DAV:   4    -0.851706451139E+03   -0.74801E-05   -0.47659E-05  4680   0.149E-02    0.878E-03
DAV:   5    -0.851706451961E+03   -0.82250E-06   -0.16010E-05  4900   0.677E-03    0.416E-03
DAV:   6    -0.851706452203E+03   -0.24209E-06   -0.11818E-06  3050   0.206E-03
  12 F= -.85959728E+03 E0= -.85959728E+03  d E =-.573800E-03  mag=    -0.0000
       N       E                     dE             d eps       ncg     rms          rms(c)
DAV:   1    -0.851707097782E+03   -0.64582E-03   -0.11852E-01  4420   0.654E-01    0.684E-02
DAV:   2    -0.851707232414E+03   -0.13463E-03   -0.19655E-03  4490   0.816E-02    0.580E-02
DAV:   3    -0.851707209186E+03    0.23228E-04   -0.62488E-05  5440   0.166E-02    0.409E-02
DAV:   4    -0.851707218492E+03   -0.93055E-05   -0.73097E-05  4770   0.185E-02    0.114E-02
DAV:   5    -0.851707219561E+03   -0.10686E-05   -0.25507E-05  4880   0.866E-03    0.530E-03
DAV:   6    -0.851707220071E+03   -0.51061E-06   -0.20933E-06  3600   0.266E-03
  13 F= -.85959793E+03 E0= -.85959793E+03  d E =-.654153E-03  mag=    -0.0000
       N       E                     dE             d eps       ncg     rms          rms(c)
DAV:   1    -0.851707613495E+03   -0.39393E-03   -0.21244E-01  4400   0.883E-01    0.931E-02
DAV:   2    -0.851707907389E+03   -0.29389E-03   -0.40866E-03  4640   0.116E-01    0.803E-02
DAV:   3    -0.851707856508E+03    0.50881E-04   -0.13157E-04  5560   0.228E-02    0.602E-02
DAV:   4    -0.851707851334E+03    0.51741E-05   -0.15863E-04  4770   0.273E-02    0.191E-02
DAV:   5    -0.851707856964E+03   -0.56302E-05   -0.43213E-05  4920   0.112E-02    0.969E-03
DAV:   6    -0.851707857847E+03   -0.88275E-06   -0.55178E-06  4560   0.416E-03
  14 F= -.85959841E+03 E0= -.85959841E+03  d E =-.478578E-03  mag=    -0.0000
       N       E                     dE             d eps       ncg     rms          rms(c)
DAV:   1    -0.851708318287E+03   -0.46132E-03   -0.24132E-02  4500   0.316E-01    0.361E-02
DAV:   2    -0.851708359292E+03   -0.41004E-04   -0.61499E-04  5340   0.459E-02    0.332E-02
DAV:   3    -0.851708346173E+03    0.13119E-04   -0.28523E-05  5600   0.995E-03    0.256E-02
DAV:   4    -0.851708334283E+03    0.11890E-04   -0.28050E-05  4530   0.113E-02    0.108E-02
DAV:   5    -0.851708333929E+03    0.35376E-06   -0.80052E-06  4450   0.513E-03
  15 F= -.85959889E+03 E0= -.85959889E+03  d E =-.480434E-03  mag=    -0.0000
       N       E                     dE             d eps       ncg     rms          rms(c)
DAV:   1    -0.851708345966E+03   -0.11683E-04   -0.34455E-05  4480   0.118E-02    0.222E-03
DAV:   2    -0.851708345994E+03   -0.27780E-07   -0.88300E-07  2600   0.182E-03
  16 F= -.85959890E+03 E0= -.85959890E+03  d E =-.110903E-04  mag=    -0.0000
       N       E                     dE             d eps       ncg     rms          rms(c)
DAV:   1    -0.851708368430E+03   -0.22464E-04   -0.11821E-04  4460   0.216E-02    0.277E-03
DAV:   2    -0.851708368567E+03   -0.13664E-06   -0.22617E-06  3620   0.287E-03
  17 F= -.85959892E+03 E0= -.85959892E+03  d E =-.206659E-04  mag=     0.0000
       N       E                     dE             d eps       ncg     rms          rms(c)
DAV:   1    -0.851708399903E+03   -0.31473E-04   -0.23551E-04  4460   0.302E-02    0.444E-03
DAV:   2    -0.851708400144E+03   -0.24135E-06   -0.45543E-06  4780   0.395E-03
  18 F= -.85959895E+03 E0= -.85959895E+03  d E =-.287062E-04  mag=    -0.0000
       N       E                     dE             d eps       ncg     rms          rms(c)
DAV:   1    -0.851708440077E+03   -0.40174E-04   -0.36355E-04  4460   0.370E-02    0.592E-03
DAV:   2    -0.851708440406E+03   -0.32980E-06   -0.65830E-06  4700   0.470E-03
  19 F= -.85959899E+03 E0= -.85959899E+03  d E =-.364930E-04  mag=     0.0000
       N       E                     dE             d eps       ncg     rms          rms(c)
DAV:   1    -0.851708489324E+03   -0.49247E-04   -0.50751E-04  4480   0.433E-02    0.711E-03
DAV:   2    -0.851708489793E+03   -0.46956E-06   -0.88733E-06  4820   0.542E-03
  20 F= -.85959903E+03 E0= -.85959903E+03  d E =-.447315E-04  mag=     0.0000
       N       E                     dE             d eps       ncg     rms          rms(c)
DAV:   1    -0.851708548024E+03   -0.58700E-04   -0.64437E-04  4460   0.485E-02    0.822E-03
DAV:   2    -0.851708548605E+03   -0.58106E-06   -0.11020E-05  4640   0.603E-03    0.674E-03
DAV:   3    -0.851708548605E+03   -0.23283E-09   -0.42124E-07  2940   0.156E-03
  21 F= -.85959909E+03 E0= -.85959909E+03  d E =-.529446E-04  mag=    -0.0000
       N       E                     dE             d eps       ncg     rms          rms(c)
DAV:   1    -0.851708623449E+03   -0.74844E-04   -0.10167E-03  4480   0.607E-02    0.681E-03
DAV:   2    -0.851708624772E+03   -0.13233E-05   -0.17150E-05  4640   0.744E-03    0.542E-03
DAV:   3    -0.851708624710E+03    0.62020E-07   -0.31084E-07  3260   0.129E-03
  22 F= -.85959915E+03 E0= -.85959915E+03  d E =-.683861E-04  mag=     0.0000
       N       E                     dE             d eps       ncg     rms          rms(c)
DAV:   1    -0.851708718479E+03   -0.93707E-04   -0.15887E-03  4500   0.756E-02    0.852E-03
DAV:   2    -0.851708720462E+03   -0.19828E-05   -0.26435E-05  4660   0.925E-03    0.680E-03
DAV:   3    -0.851708720322E+03    0.13989E-06   -0.50129E-07  3350   0.165E-03
  23 F= -.85959924E+03 E0= -.85959924E+03  d E =-.854656E-04  mag=    -0.0000
       N       E                     dE             d eps       ncg     rms          rms(c)
DAV:   1    -0.851708837468E+03   -0.11701E-03   -0.23161E-03  4460   0.902E-02    0.105E-02
DAV:   2    -0.851708840200E+03   -0.27324E-05   -0.37362E-05  4600   0.109E-02    0.840E-03
DAV:   3    -0.851708840028E+03    0.17205E-06   -0.76672E-07  3480   0.202E-03
  24 F= -.85959935E+03 E0= -.85959935E+03  d E =-.106436E-03  mag=    -0.0000
       N       E                     dE             d eps       ncg     rms          rms(c)
DAV:   1    -0.851708987970E+03   -0.14777E-03   -0.34886E-03  4440   0.110E-01    0.129E-02
DAV:   2    -0.851708991943E+03   -0.39731E-05   -0.55198E-05  4580   0.132E-02    0.104E-02
DAV:   3    -0.851708991678E+03    0.26458E-06   -0.12583E-06  3770   0.248E-03
  25 F= -.85959948E+03 E0= -.85959948E+03  d E =-.133722E-03  mag=     0.0000
       N       E                     dE             d eps       ncg     rms          rms(c)
DAV:   1    -0.851709174294E+03   -0.18235E-03   -0.52545E-03  4400   0.134E-01    0.160E-02
DAV:   2    -0.851709180122E+03   -0.58280E-05   -0.82478E-05  4560   0.160E-02    0.130E-02
DAV:   3    -0.851709179680E+03    0.44151E-06   -0.19717E-06  3990   0.308E-03
  26 F= -.85959964E+03 E0= -.85959964E+03  d E =-.164361E-03  mag=    -0.0000
       N       E                     dE             d eps       ncg     rms          rms(c)
DAV:   1    -0.851709403009E+03   -0.22289E-03   -0.75798E-03  4380   0.159E-01    0.193E-02
DAV:   2    -0.851709411032E+03   -0.80229E-05   -0.11523E-04  4600   0.187E-02    0.158E-02
DAV:   3    -0.851709410439E+03    0.59247E-06   -0.30577E-06  4340   0.375E-03
  27 F= -.85959985E+03 E0= -.85959985E+03  d E =-.201718E-03  mag=     0.0000
       N       E                     dE             d eps       ncg     rms          rms(c)
DAV:   1    -0.851709683007E+03   -0.27198E-03   -0.10968E-02  4400   0.190E-01    0.234E-02
DAV:   2    -0.851709694066E+03   -0.11059E-04   -0.16077E-04  4560   0.220E-02    0.192E-02
DAV:   3    -0.851709693201E+03    0.86459E-06   -0.45670E-06  4650   0.458E-03
  28 F= -.85960009E+03 E0= -.85960009E+03  d E =-.247581E-03  mag=     0.0000
       N       E                     dE             d eps       ncg     rms          rms(c)
DAV:   1    -0.851710022203E+03   -0.32814E-03   -0.15896E-02  4400   0.228E-01    0.283E-02
DAV:   2    -0.851710037599E+03   -0.15396E-04   -0.22431E-04  4560   0.259E-02    0.234E-02
DAV:   3    -0.851710036185E+03    0.14138E-05   -0.68410E-06  5010   0.560E-03    0.157E-02
DAV:   4    -0.851710039636E+03   -0.34506E-05   -0.79096E-06  4350   0.598E-03    0.344E-03
DAV:   5    -0.851710039592E+03    0.43496E-07   -0.29001E-06  4060   0.296E-03
  29 F= -.85960040E+03 E0= -.85960040E+03  d E =-.304731E-03  mag=    -0.0000
       N       E                     dE             d eps       ncg     rms          rms(c)
DAV:   1    -0.851710433597E+03   -0.39396E-03   -0.22890E-02  4420   0.273E-01    0.322E-02
DAV:   2    -0.851710457213E+03   -0.23616E-04   -0.34644E-04  4460   0.322E-02    0.267E-02
DAV:   3    -0.851710453225E+03    0.39875E-05   -0.10743E-05  5240   0.703E-03    0.182E-02
DAV:   4    -0.851710456615E+03   -0.33900E-05   -0.13358E-05  4420   0.770E-03    0.450E-03
DAV:   5    -0.851710456625E+03   -0.91386E-08   -0.50172E-06  4680   0.385E-03
  30 F= -.85960076E+03 E0= -.85960076E+03  d E =-.365408E-03  mag=     0.0000
       N       E                     dE             d eps       ncg     rms          rms(c)
DAV:   1    -0.851710920912E+03   -0.46430E-03   -0.33994E-02  4420   0.330E-01    0.392E-02
DAV:   2    -0.851710957232E+03   -0.36320E-04   -0.52531E-04  4420   0.392E-02    0.322E-02
DAV:   3    -0.851710951301E+03    0.59305E-05   -0.15045E-05  5270   0.826E-03    0.224E-02
DAV:   4    -0.851710956235E+03   -0.49339E-05   -0.20458E-05  4430   0.950E-03    0.540E-03
DAV:   5    -0.851710956371E+03   -0.13586E-06   -0.70263E-06  4980   0.454E-03
  31 F= -.85960120E+03 E0= -.85960120E+03  d E =-.438096E-03  mag=    -0.0000
       N       E                     dE             d eps       ncg     rms          rms(c)
DAV:   1    -0.851711493362E+03   -0.53713E-03   -0.47060E-02  4400   0.391E-01    0.465E-02
DAV:   2    -0.851711541853E+03   -0.48491E-04   -0.71245E-04  4460   0.465E-02    0.383E-02
DAV:   3    -0.851711533680E+03    0.81731E-05   -0.22009E-05  5220   0.100E-02    0.262E-02
DAV:   4    -0.851711540464E+03   -0.67847E-05   -0.27254E-05  4470   0.110E-02    0.649E-03
DAV:   5    -0.851711540580E+03   -0.11542E-06   -0.10286E-05  4980   0.553E-03    0.301E-03
DAV:   6    -0.851711540736E+03   -0.15614E-06   -0.61783E-07  2900   0.150E-03
  32 F= -.85960172E+03 E0= -.85960172E+03  d E =-.514849E-03  mag=    -0.0000
       N       E                     dE             d eps       ncg     rms          rms(c)
DAV:   1    -0.851712158578E+03   -0.61800E-03   -0.65287E-02  4380   0.460E-01    0.546E-02
DAV:   2    -0.851712226787E+03   -0.68208E-04   -0.10008E-03  4480   0.547E-02    0.454E-02
DAV:   3    -0.851712214090E+03    0.12697E-04   -0.31652E-05  5280   0.119E-02    0.312E-02
DAV:   4    -0.851712222519E+03   -0.84287E-05   -0.40387E-05  4540   0.134E-02    0.787E-03
DAV:   5    -0.851712222661E+03   -0.14207E-06   -0.14407E-05  4990   0.665E-03    0.375E-03
DAV:   6    -0.851712222908E+03   -0.24695E-06   -0.95195E-07  2880   0.188E-03
  33 F= -.85960231E+03 E0= -.85960231E+03  d E =-.596282E-03  mag=     0.0000
       N       E                     dE             d eps       ncg     rms          rms(c)
DAV:   1    -0.851712896595E+03   -0.67393E-03   -0.93951E-02  4380   0.556E-01    0.658E-02
DAV:   2    -0.851713003366E+03   -0.10677E-03   -0.15298E-03  4520   0.680E-02    0.546E-02
DAV:   3    -0.851712983855E+03    0.19511E-04   -0.48427E-05  5400   0.145E-02    0.384E-02
DAV:   4    -0.851712993373E+03   -0.95183E-05   -0.59493E-05  4590   0.164E-02    0.104E-02
DAV:   5    -0.851712994539E+03   -0.11656E-05   -0.18584E-05  4960   0.741E-03    0.508E-03
DAV:   6    -0.851712994793E+03   -0.25433E-06   -0.17823E-06  3220   0.250E-03
  34 F= -.85960297E+03 E0= -.85960297E+03  d E =-.657733E-03  mag=     0.0000
       N       E                     dE             d eps       ncg     rms          rms(c)
DAV:   1    -0.851713590522E+03   -0.59598E-03   -0.13318E-01  4360   0.681E-01    0.789E-02
DAV:   2    -0.851713754963E+03   -0.16444E-03   -0.23260E-03  4560   0.857E-02    0.672E-02
DAV:   3    -0.851713721707E+03    0.33256E-04   -0.87515E-05  5580   0.188E-02    0.481E-02
DAV:   4    -0.851713727099E+03   -0.53916E-05   -0.94106E-05  4580   0.207E-02    0.152E-02
DAV:   5    -0.851713729314E+03   -0.22150E-05   -0.27428E-05  4860   0.914E-03    0.731E-03
DAV:   6    -0.851713729862E+03   -0.54773E-06   -0.37583E-06  4000   0.341E-03
  35 F= -.85960359E+03 E0= -.85960359E+03  d E =-.615799E-03  mag=     0.0000
       N       E                     dE             d eps       ncg     rms          rms(c)
DAV:   1    -0.851713976265E+03   -0.24695E-03   -0.10124E-02  4420   0.205E-01    0.232E-02
DAV:   2    -0.851713993236E+03   -0.16971E-04   -0.25592E-04  5360   0.296E-02    0.210E-02
DAV:   3    -0.851713987568E+03    0.56684E-05   -0.13028E-05  5700   0.666E-03    0.157E-02
DAV:   4    -0.851713983243E+03    0.43253E-05   -0.10232E-05  4320   0.678E-03    0.696E-03
DAV:   5    -0.851713983007E+03    0.23535E-06   -0.29161E-06  3440   0.316E-03
  36 F= -.85960383E+03 E0= -.85960383E+03  d E =-.247902E-03  mag=     0.0000
       N       E                     dE             d eps       ncg     rms          rms(c)
DAV:   1    -0.851713881918E+03    0.10132E-03   -0.10108E-02  4340   0.205E-01    0.230E-02
DAV:   2    -0.851713899755E+03   -0.17837E-04   -0.24995E-04  5360   0.293E-02    0.203E-02
DAV:   3    -0.851713894882E+03    0.48732E-05   -0.12529E-05  5680   0.657E-03    0.152E-02
DAV:   4    -0.851713891643E+03    0.32383E-05   -0.99555E-06  4320   0.664E-03    0.673E-03
DAV:   5    -0.851713891534E+03    0.10940E-06   -0.24638E-06  3360   0.292E-03
  37 F= -.85960373E+03 E0= -.85960373E+03  d E =0.102006E-03  mag=    -0.0000
       N       E                     dE             d eps       ncg     rms          rms(c)
DAV:   1    -0.851713968710E+03   -0.77067E-04   -0.47906E-04  4440   0.446E-02    0.515E-03
DAV:   2    -0.851713969480E+03   -0.76921E-06   -0.12824E-05  5370   0.660E-03    0.481E-03
DAV:   3    -0.851713969157E+03    0.32299E-06   -0.53377E-07  2400   0.152E-03
  38 F= -.85960381E+03 E0= -.85960381E+03  d E =-.771917E-04  mag=     0.0000
       N       E                     dE             d eps       ncg     rms          rms(c)
DAV:   1    -0.851714060271E+03   -0.90792E-04   -0.14476E-03  4400   0.776E-02    0.960E-03
DAV:   2    -0.851714062557E+03   -0.22857E-05   -0.34492E-05  5600   0.109E-02    0.858E-03
DAV:   3    -0.851714061624E+03    0.93291E-06   -0.16829E-06  2920   0.266E-03
  39 F= -.85960390E+03 E0= -.85960390E+03  d E =-.913597E-04  mag=    -0.0000
       N       E                     dE             d eps       ncg     rms          rms(c)
DAV:   1    -0.851714096959E+03   -0.34402E-04   -0.20578E-03  4340   0.924E-02    0.118E-02
DAV:   2    -0.851714100234E+03   -0.32751E-05   -0.47097E-05  5600   0.127E-02    0.104E-02
DAV:   3    -0.851714098991E+03    0.12431E-05   -0.23923E-06  3390   0.315E-03    0.737E-03
DAV:   4    -0.851714098470E+03    0.52067E-06   -0.37574E-06  4100   0.391E-03
  40 F= -.85960393E+03 E0= -.85960393E+03  d E =-.345112E-04  mag=    -0.0000
       N       E                     dE             d eps       ncg     rms          rms(c)
DAV:   1    -0.851714100955E+03   -0.19638E-05   -0.18892E-06  2600   0.284E-03    0.132E-03
DAV:   2    -0.851714100974E+03   -0.19325E-07   -0.17927E-07  2400   0.880E-04
  41 F= -.85960394E+03 E0= -.85960394E+03  d E =-.221860E-05  mag=    -0.0000
       N       E                     dE             d eps       ncg     rms          rms(c)
DAV:   1    -0.851714105875E+03   -0.49206E-05   -0.58854E-06  4220   0.490E-03    0.633E-04
DAV:   2    -0.851714105886E+03   -0.10863E-07   -0.15731E-07  2400   0.777E-04
  42 F= -.85960394E+03 E0= -.85960394E+03  d E =-.434456E-05  mag=    -0.0000
       N       E                     dE             d eps       ncg     rms          rms(c)
DAV:   1    -0.851714112772E+03   -0.68970E-05   -0.11690E-05  4320   0.687E-03    0.106E-03
DAV:   2    -0.851714112783E+03   -0.10317E-07   -0.26592E-07  2310   0.102E-03
  43 F= -.85960395E+03 E0= -.85960395E+03  d E =-.604357E-05  mag=     0.0000
       N       E                     dE             d eps       ncg     rms          rms(c)
DAV:   1    -0.851714121359E+03   -0.85862E-05   -0.17688E-05  4380   0.840E-03    0.140E-03
DAV:   2    -0.851714121371E+03   -0.11954E-07   -0.36244E-07  2390   0.117E-03
  44 F= -.85960395E+03 E0= -.85960395E+03  d E =-.746309E-05  mag=    -0.0000
       N       E                     dE             d eps       ncg     rms          rms(c)
DAV:   1    -0.851714131497E+03   -0.10139E-04   -0.23418E-05  4420   0.956E-03    0.165E-03
DAV:   2    -0.851714131512E+03   -0.14355E-07   -0.43570E-07  2390   0.128E-03
  45 F= -.85960396E+03 E0= -.85960396E+03  d E =-.874535E-05  mag=     0.0000
       N       E                     dE             d eps       ncg     rms          rms(c)
DAV:   1    -0.851714143051E+03   -0.11554E-04   -0.28206E-05  4420   0.103E-02    0.182E-03
DAV:   2    -0.851714143068E+03   -0.17157E-07   -0.49853E-07  2540   0.135E-03
  46 F= -.85960397E+03 E0= -.85960397E+03  d E =-.988749E-05  mag=     0.0000
       N       E                     dE             d eps       ncg     rms          rms(c)
DAV:   1    -0.851714157538E+03   -0.14487E-04   -0.38754E-05  4410   0.118E-02    0.206E-03
DAV:   2    -0.851714157563E+03   -0.24716E-07   -0.65701E-07  2840   0.151E-03
  47 F= -.85960399E+03 E0= -.85960399E+03  d E =-.123395E-04  mag=     0.0000
       N       E                     dE             d eps       ncg     rms          rms(c)
DAV:   1    -0.851714175906E+03   -0.18368E-04   -0.52484E-05  4410   0.134E-02    0.241E-03
DAV:   2    -0.851714175938E+03   -0.31570E-07   -0.84447E-07  2920   0.166E-03
  48 F= -.85960400E+03 E0= -.85960400E+03  d E =-.156394E-04  mag=    -0.0000
       N       E                     dE             d eps       ncg     rms          rms(c)
DAV:   1    -0.851714199351E+03   -0.23445E-04   -0.73332E-05  4400   0.154E-02    0.283E-03
DAV:   2    -0.851714199397E+03   -0.45911E-07   -0.11145E-06  3080   0.186E-03
  49 F= -.85960402E+03 E0= -.85960402E+03  d E =-.200188E-04  mag=    -0.0000
       N       E                     dE             d eps       ncg     rms          rms(c)
DAV:   1    -0.851714228990E+03   -0.29639E-04   -0.10750E-04  4400   0.185E-02    0.339E-03
DAV:   2    -0.851714229062E+03   -0.71814E-07   -0.16021E-06  3140   0.220E-03
  50 F= -.85960405E+03 E0= -.85960405E+03  d E =-.254081E-04  mag=     0.0000
       N       E                     dE             d eps       ncg     rms          rms(c)
DAV:   1    -0.851714266059E+03   -0.37069E-04   -0.16550E-04  4360   0.230E-02    0.418E-03
DAV:   2    -0.851714266182E+03   -0.12278E-06   -0.25957E-06  3480   0.277E-03
  51 F= -.85960408E+03 E0= -.85960408E+03  d E =-.318859E-04  mag=    -0.0000
       N       E                     dE             d eps       ncg     rms          rms(c)
DAV:   1    -0.851714311818E+03   -0.45759E-04   -0.25878E-04  4400   0.288E-02    0.530E-03
DAV:   2    -0.851714312008E+03   -0.18990E-06   -0.40201E-06  4100   0.344E-03
  52 F= -.85960412E+03 E0= -.85960412E+03  d E =-.394048E-04  mag=     0.0000
       N       E                     dE             d eps       ncg     rms          rms(c)
DAV:   1    -0.851714367641E+03   -0.55823E-04   -0.39347E-04  4400   0.354E-02    0.664E-03
DAV:   2    -0.851714367927E+03   -0.28541E-06   -0.61630E-06  4280   0.422E-03
  53 F= -.85960417E+03 E0= -.85960417E+03  d E =-.481348E-04  mag=    -0.0000
       N       E                     dE             d eps       ncg     rms          rms(c)
DAV:   1    -0.851714436157E+03   -0.68516E-04   -0.57586E-04  4340   0.421E-02    0.814E-03
DAV:   2    -0.851714436573E+03   -0.41548E-06   -0.88986E-06  4400   0.497E-03
  54 F= -.85960423E+03 E0= -.85960423E+03  d E =-.590006E-04  mag=     0.0000
       N       E                     dE             d eps       ncg     rms          rms(c)
DAV:   1    -0.851714521074E+03   -0.84917E-04   -0.85605E-04  4370   0.507E-02    0.990E-03
DAV:   2    -0.851714521707E+03   -0.63246E-06   -0.13091E-05  4600   0.596E-03    0.803E-03
DAV:   3    -0.851714521907E+03   -0.20034E-06   -0.56308E-07  2980   0.173E-03
  55 F= -.85960430E+03 E0= -.85960430E+03  d E =-.732908E-04  mag=    -0.0000
       N       E                     dE             d eps       ncg     rms          rms(c)
DAV:   1    -0.851714625621E+03   -0.10391E-03   -0.12767E-03  4360   0.615E-02    0.830E-03
DAV:   2    -0.851714627088E+03   -0.14676E-05   -0.19786E-05  4500   0.718E-03    0.657E-03
DAV:   3    -0.851714627080E+03    0.86147E-08   -0.36357E-07  3290   0.135E-03
  56 F= -.85960439E+03 E0= -.85960439E+03  d E =-.900234E-04  mag=     0.0000
       N       E                     dE             d eps       ncg     rms          rms(c)
DAV:   1    -0.851714753535E+03   -0.12645E-03   -0.19422E-03  4360   0.756E-02    0.102E-02
DAV:   2    -0.851714755791E+03   -0.22566E-05   -0.30557E-05  4500   0.889E-03    0.804E-03
DAV:   3    -0.851714755701E+03    0.90622E-07   -0.60583E-07  3500   0.169E-03
  57 F= -.85960450E+03 E0= -.85960450E+03  d E =-.109707E-03  mag=     0.0000
       N       E                     dE             d eps       ncg     rms          rms(c)
DAV:   1    -0.851714908868E+03   -0.15308E-03   -0.28427E-03  4360   0.909E-02    0.124E-02
DAV:   2    -0.851714912113E+03   -0.32452E-05   -0.43998E-05  4480   0.106E-02    0.983E-03
DAV:   3    -0.851714912021E+03    0.92034E-07   -0.86063E-07  3620   0.201E-03
  58 F= -.85960463E+03 E0= -.85960463E+03  d E =-.133509E-03  mag=     0.0000
       N       E                     dE             d eps       ncg     rms          rms(c)
DAV:   1    -0.851715098575E+03   -0.18646E-03   -0.41744E-03  4360   0.110E-01    0.150E-02
DAV:   2    -0.851715103412E+03   -0.48376E-05   -0.64690E-05  4460   0.129E-02    0.119E-02
DAV:   3    -0.851715103278E+03    0.13470E-06   -0.12795E-06  3800   0.240E-03
  59 F= -.85960480E+03 E0= -.85960480E+03  d E =-.163426E-03  mag=    -0.0000
       N       E                     dE             d eps       ncg     rms          rms(c)
DAV:   1    -0.851715330262E+03   -0.22685E-03   -0.63384E-03  4360   0.135E-01    0.185E-02
DAV:   2    -0.851715337750E+03   -0.74886E-05   -0.99211E-05  4460   0.158E-02    0.145E-02
DAV:   3    -0.851715337547E+03    0.20371E-06   -0.19321E-06  4020   0.291E-03
  60 F= -.85960499E+03 E0= -.85960499E+03  d E =-.199691E-03  mag=    -0.0000
       N       E                     dE             d eps       ncg     rms          rms(c)
DAV:   1    -0.851715611286E+03   -0.27354E-03   -0.97619E-03  4360   0.165E-01    0.227E-02
DAV:   2    -0.851715623086E+03   -0.11799E-04   -0.15524E-04  4440   0.195E-02    0.177E-02
DAV:   3    -0.851715622746E+03    0.33947E-06   -0.29267E-06  4440   0.351E-03
  61 F= -.85960524E+03 E0= -.85960524E+03  d E =-.243354E-03  mag=    -0.0000
       N       E                     dE             d eps       ncg     rms          rms(c)
DAV:   1    -0.851715950291E+03   -0.32721E-03   -0.15069E-02  4360   0.203E-01    0.280E-02
DAV:   2    -0.851715968728E+03   -0.18437E-04   -0.24294E-04  4420   0.240E-02    0.218E-02
DAV:   3    -0.851715968143E+03    0.58483E-06   -0.44439E-06  4720   0.428E-03
  62 F= -.85960553E+03 E0= -.85960553E+03  d E =-.296049E-03  mag=    -0.0000
       N       E                     dE             d eps       ncg     rms          rms(c)
DAV:   1    -0.851716356023E+03   -0.38729E-03   -0.22041E-02  4360   0.245E-01    0.340E-02
DAV:   2    -0.851716382416E+03   -0.26394E-04   -0.35132E-04  4420   0.289E-02    0.264E-02
DAV:   3    -0.851716381571E+03    0.84542E-06   -0.65440E-06  4980   0.519E-03
  63 F= -.85960589E+03 E0= -.85960589E+03  d E =-.354101E-03  mag=    -0.0000
       N       E                     dE             d eps       ncg     rms          rms(c)
DAV:   1    -0.851716845189E+03   -0.46277E-03   -0.30967E-02  4360   0.293E-01    0.411E-02
DAV:   2    -0.851716882034E+03   -0.36844E-04   -0.48777E-04  4420   0.345E-02    0.317E-02
DAV:   3    -0.851716881303E+03    0.73084E-06   -0.95899E-06  5100   0.633E-03
  64 F= -.85960632E+03 E0= -.85960632E+03  d E =-.429636E-03  mag=    -0.0000
       N       E                     dE             d eps       ncg     rms          rms(c)
DAV:   1    -0.851717425318E+03   -0.54328E-03   -0.50020E-02  4360   0.364E-01    0.511E-02
DAV:   2    -0.851717491081E+03   -0.65763E-04   -0.84964E-04  4420   0.438E-02    0.392E-02
DAV:   3    -0.851717488126E+03    0.29551E-05   -0.14690E-05  5220   0.769E-03    0.289E-02
DAV:   4    -0.851717503181E+03   -0.15056E-04   -0.25607E-05  4480   0.988E-03    0.573E-03
DAV:   5    -0.851717503702E+03   -0.52062E-06   -0.60097E-06  4740   0.409E-03
  65 F= -.85960685E+03 E0= -.85960685E+03  d E =-.534419E-03  mag=     0.0000
       N       E                     dE             d eps       ncg     rms          rms(c)
DAV:   1    -0.851718130965E+03   -0.62778E-03   -0.66199E-02  4380   0.428E-01    0.578E-02
DAV:   2    -0.851718222584E+03   -0.91618E-04   -0.11623E-03  4560   0.534E-02    0.438E-02
DAV:   3    -0.851718217506E+03    0.50772E-05   -0.20998E-05  5240   0.942E-03    0.322E-02
DAV:   4    -0.851718232219E+03   -0.14712E-04   -0.33416E-05  4540   0.120E-02    0.701E-03
DAV:   5    -0.851718232642E+03   -0.42299E-06   -0.85922E-06  4960   0.520E-03
  66 F= -.85960748E+03 E0= -.85960748E+03  d E =-.627866E-03  mag=    -0.0000
       N       E                     dE             d eps       ncg     rms          rms(c)
DAV:   1    -0.851718903065E+03   -0.67085E-03   -0.10756E-01  4360   0.523E-01    0.723E-02
DAV:   2    -0.851719066040E+03   -0.16298E-03   -0.20341E-03  4580   0.662E-02    0.548E-02
DAV:   3    -0.851719052901E+03    0.13139E-04   -0.34469E-05  5300   0.115E-02    0.414E-02
DAV:   4    -0.851719075600E+03   -0.22699E-04   -0.65267E-05  4580   0.157E-02    0.953E-03
DAV:   5    -0.851719077639E+03   -0.20387E-05   -0.14480E-05  4960   0.624E-03    0.597E-03
DAV:   6    -0.851719077547E+03    0.91954E-07   -0.24803E-06  3760   0.299E-03
  67 F= -.85960820E+03 E0= -.85960820E+03  d E =-.722784E-03  mag=     0.0000
       N       E                     dE             d eps       ncg     rms          rms(c)
DAV:   1    -0.851719742568E+03   -0.66493E-03   -0.12681E-01  4320   0.612E-01    0.825E-02
DAV:   2    -0.851719922323E+03   -0.17976E-03   -0.22927E-03  4640   0.781E-02    0.653E-02
DAV:   3    -0.851719903692E+03    0.18632E-04   -0.66898E-05  5400   0.163E-02    0.471E-02
DAV:   4    -0.851719919632E+03   -0.15940E-04   -0.77536E-05  4660   0.186E-02    0.142E-02
DAV:   5    -0.851719920961E+03   -0.13286E-05   -0.21159E-05  4880   0.834E-03    0.664E-03
DAV:   6    -0.851719921199E+03   -0.23771E-06   -0.36368E-06  4080   0.333E-03
  68 F= -.85960891E+03 E0= -.85960891E+03  d E =-.710831E-03  mag=    -0.0000
       N       E                     dE             d eps       ncg     rms          rms(c)
DAV:   1    -0.851720173278E+03   -0.25232E-03   -0.11629E-02  4400   0.215E-01    0.242E-02
DAV:   2    -0.851720194698E+03   -0.21421E-04   -0.31332E-04  4980   0.316E-02    0.222E-02
DAV:   3    -0.851720189120E+03    0.55780E-05   -0.12212E-05  5860   0.643E-03    0.175E-02
DAV:   4    -0.851720184360E+03    0.47606E-05   -0.12766E-05  4440   0.749E-03    0.751E-03
DAV:   5    -0.851720184435E+03   -0.75532E-07   -0.39006E-06  3680   0.356E-03
  69 F= -.85960917E+03 E0= -.85960917E+03  d E =-.255840E-03  mag=     0.0000
       N       E                     dE             d eps       ncg     rms          rms(c)
DAV:   1    -0.851720075638E+03    0.10872E-03   -0.11456E-02  4340   0.210E-01    0.239E-02
DAV:   2    -0.851720097722E+03   -0.22084E-04   -0.30131E-04  5020   0.306E-02    0.211E-02
DAV:   3    -0.851720092894E+03    0.48284E-05   -0.11068E-05  5720   0.620E-03    0.165E-02
DAV:   4    -0.851720089733E+03    0.31607E-05   -0.11749E-05  4440   0.713E-03    0.700E-03
DAV:   5    -0.851720089988E+03   -0.25460E-06   -0.31664E-06  3600   0.320E-03
  70 F= -.85960906E+03 E0= -.85960906E+03  d E =0.107677E-03  mag=     0.0000
       N       E                     dE             d eps       ncg     rms          rms(c)
DAV:   1    -0.851720173799E+03   -0.84065E-04   -0.55393E-04  4440   0.475E-02    0.549E-03
DAV:   2    -0.851720174736E+03   -0.93775E-06   -0.15542E-05  5080   0.714E-03    0.519E-03
DAV:   3    -0.851720174395E+03    0.34082E-06   -0.55031E-07  2560   0.153E-03
  71 F= -.85960915E+03 E0= -.85960915E+03  d E =-.847326E-04  mag=     0.0000
       N       E                     dE             d eps       ncg     rms          rms(c)
DAV:   1    -0.851720269792E+03   -0.95056E-04   -0.16633E-03  4420   0.824E-02    0.102E-02
DAV:   2    -0.851720272463E+03   -0.26704E-05   -0.41329E-05  5200   0.117E-02    0.924E-03
DAV:   3    -0.851720271499E+03    0.96383E-06   -0.17847E-06  3460   0.269E-03
  72 F= -.85960924E+03 E0= -.85960924E+03  d E =-.974061E-04  mag=     0.0000
       N       E                     dE             d eps       ncg     rms          rms(c)
DAV:   1    -0.851720300954E+03   -0.28491E-04   -0.22964E-03  4440   0.969E-02    0.125E-02
DAV:   2    -0.851720304627E+03   -0.36727E-05   -0.54811E-05  5180   0.135E-02    0.111E-02
DAV:   3    -0.851720303369E+03    0.12579E-05   -0.24869E-06  3980   0.315E-03    0.827E-03
DAV:   4    -0.851720302754E+03    0.61494E-06   -0.44473E-06  4300   0.430E-03
  73 F= -.85960927E+03 E0= -.85960927E+03  d E =-.305784E-04  mag=     0.0000
       N       E                     dE             d eps       ncg     rms          rms(c)
DAV:   1    -0.851720305642E+03   -0.22731E-05   -0.26157E-06  3060   0.320E-03    0.143E-03
DAV:   2    -0.851720305661E+03   -0.18888E-07   -0.15235E-07  2400   0.808E-04
  74 F= -.85960928E+03 E0= -.85960928E+03  d E =-.266528E-05  mag=     0.0000
       N       E                     dE             d eps       ncg     rms          rms(c)
DAV:   1    -0.851720311224E+03   -0.55821E-05   -0.88395E-06  4240   0.581E-03    0.683E-04
DAV:   2    -0.851720311243E+03   -0.18772E-07   -0.23816E-07  2480   0.916E-04
  75 F= -.85960928E+03 E0= -.85960928E+03  d E =-.509801E-05  mag=    -0.0000
       N       E                     dE             d eps       ncg     rms          rms(c)
DAV:   1    -0.851720318940E+03   -0.77161E-05   -0.17926E-05  4420   0.819E-03    0.128E-03
DAV:   2    -0.851720318957E+03   -0.16531E-07   -0.43318E-07  2540   0.123E-03
  76 F= -.85960929E+03 E0= -.85960929E+03  d E =-.697460E-05  mag=    -0.0000
       N       E                     dE             d eps       ncg     rms          rms(c)
DAV:   1    -0.851720328434E+03   -0.94936E-05   -0.27288E-05  4480   0.100E-02    0.179E-03
DAV:   2    -0.851720328452E+03   -0.18554E-07   -0.59712E-07  2560   0.143E-03
  77 F= -.85960930E+03 E0= -.85960930E+03  d E =-.848168E-05  mag=     0.0000
       N       E                     dE             d eps       ncg     rms          rms(c)
DAV:   1    -0.851720339324E+03   -0.10891E-04   -0.35755E-05  4500   0.113E-02    0.211E-03
DAV:   2    -0.851720339353E+03   -0.28667E-07   -0.75550E-07  2780   0.158E-03
  78 F= -.85960931E+03 E0= -.85960931E+03  d E =-.961287E-05  mag=     0.0000
       N       E                     dE             d eps       ncg     rms          rms(c)
DAV:   1    -0.851720351495E+03   -0.12171E-04   -0.41656E-05  4480   0.120E-02    0.233E-03
DAV:   2    -0.851720351526E+03   -0.30654E-07   -0.85778E-07  2840   0.165E-03
  79 F= -.85960932E+03 E0= -.85960932E+03  d E =-.106663E-04  mag=     0.0000
       N       E                     dE             d eps       ncg     rms          rms(c)
DAV:   1    -0.851720366371E+03   -0.14876E-04   -0.53771E-05  4460   0.132E-02    0.259E-03
DAV:   2    -0.851720366416E+03   -0.44958E-07   -0.10625E-06  3140   0.177E-03
  80 F= -.85960933E+03 E0= -.85960933E+03  d E =-.129852E-04  mag=     0.0000
       N       E                     dE             d eps       ncg     rms          rms(c)
DAV:   1    -0.851720384928E+03   -0.18557E-04   -0.65402E-05  4420   0.138E-02    0.286E-03
DAV:   2    -0.851720384987E+03   -0.58353E-07   -0.12119E-06  3080   0.179E-03
  81 F= -.85960935E+03 E0= -.85960935E+03  d E =-.162218E-04  mag=    -0.0000
       N       E                     dE             d eps       ncg     rms          rms(c)
DAV:   1    -0.851720408658E+03   -0.23729E-04   -0.81286E-05  4400   0.147E-02    0.315E-03
DAV:   2    -0.851720408735E+03   -0.77423E-07   -0.13889E-06  3170   0.182E-03
  82 F= -.85960937E+03 E0= -.85960937E+03  d E =-.209071E-04  mag=     0.0000
       N       E                     dE             d eps       ncg     rms          rms(c)
DAV:   1    -0.851720439134E+03   -0.30477E-04   -0.11099E-04  4360   0.170E-02    0.360E-03
DAV:   2    -0.851720439251E+03   -0.11687E-06   -0.18083E-06  3340   0.206E-03
  83 F= -.85960940E+03 E0= -.85960940E+03  d E =-.270108E-04  mag=    -0.0000
       N       E                     dE             d eps       ncg     rms          rms(c)
DAV:   1    -0.851720477387E+03   -0.38253E-04   -0.16886E-04  4340   0.217E-02    0.436E-03
DAV:   2    -0.851720477579E+03   -0.19166E-06   -0.27929E-06  3530   0.268E-03
  84 F= -.85960943E+03 E0= -.85960943E+03  d E =-.340135E-04  mag=    -0.0000
       N       E                     dE             d eps       ncg     rms          rms(c)
DAV:   1    -0.851720523978E+03   -0.46590E-04   -0.26032E-04  4320   0.275E-02    0.547E-03
DAV:   2    -0.851720524284E+03   -0.30618E-06   -0.44550E-06  3950   0.342E-03
  85 F= -.85960947E+03 E0= -.85960947E+03  d E =-.414904E-04  mag=     0.0000
       N       E                     dE             d eps       ncg     rms          rms(c)
DAV:   1    -0.851720580398E+03   -0.56420E-04   -0.39340E-04  4320   0.333E-02    0.682E-03
DAV:   2    -0.851720580842E+03   -0.44423E-06   -0.66070E-06  4230   0.407E-03
  86 F= -.85960952E+03 E0= -.85960952E+03  d E =-.501046E-04  mag=     0.0000
       N       E                     dE             d eps       ncg     rms          rms(c)
DAV:   1    -0.851720648887E+03   -0.68490E-04   -0.57077E-04  4320   0.390E-02    0.826E-03
DAV:   2    -0.851720649522E+03   -0.63467E-06   -0.93992E-06  4480   0.467E-03
  87 F= -.85960958E+03 E0= -.85960958E+03  d E =-.607619E-04  mag=    -0.0000
       N       E                     dE             d eps       ncg     rms          rms(c)
DAV:   1    -0.851720733055E+03   -0.84168E-04   -0.86514E-04  4320   0.470E-02    0.999E-03
DAV:   2    -0.851720734048E+03   -0.99278E-06   -0.14488E-05  4470   0.564E-03    0.773E-03
DAV:   3    -0.851720734327E+03   -0.27948E-06   -0.36011E-07  3060   0.131E-03
  88 F= -.85960966E+03 E0= -.85960966E+03  d E =-.751569E-04  mag=    -0.0000
       N       E                     dE             d eps       ncg     rms          rms(c)
DAV:   1    -0.851720836162E+03   -0.10211E-03   -0.13351E-03  4320   0.576E-02    0.839E-03
DAV:   2    -0.851720838116E+03   -0.19538E-05   -0.22985E-05  4480   0.687E-03    0.608E-03
DAV:   3    -0.851720838122E+03   -0.65411E-08   -0.30308E-07  3440   0.112E-03
  89 F= -.85960975E+03 E0= -.85960975E+03  d E =-.915916E-04  mag=     0.0000
       N       E                     dE             d eps       ncg     rms          rms(c)
DAV:   1    -0.851720960362E+03   -0.12225E-03   -0.20212E-03  4320   0.692E-02    0.103E-02
DAV:   2    -0.851720963327E+03   -0.29644E-05   -0.35307E-05  4500   0.823E-03    0.744E-03
DAV:   3    -0.851720963284E+03    0.43176E-07   -0.44847E-07  3540   0.134E-03
  90 F= -.85960986E+03 E0= -.85960986E+03  d E =-.109970E-03  mag=    -0.0000
       N       E                     dE             d eps       ncg     rms          rms(c)
DAV:   1    -0.851721110009E+03   -0.14668E-03   -0.27701E-03  4320   0.809E-02    0.122E-02
DAV:   2    -0.851721113911E+03   -0.39021E-05   -0.46645E-05  4440   0.949E-03    0.884E-03
DAV:   3    -0.851721113920E+03   -0.88621E-08   -0.58447E-07  3630   0.155E-03
  91 F= -.85960999E+03 E0= -.85960999E+03  d E =-.132283E-03  mag=     0.0000
       N       E                     dE             d eps       ncg     rms          rms(c)
DAV:   1    -0.851721289826E+03   -0.17591E-03   -0.38014E-03  4320   0.958E-02    0.144E-02
DAV:   2    -0.851721295072E+03   -0.52459E-05   -0.62754E-05  4420   0.113E-02    0.105E-02
DAV:   3    -0.851721295117E+03   -0.44980E-07   -0.86225E-07  3780   0.190E-03
  92 F= -.85961015E+03 E0= -.85961015E+03  d E =-.159553E-03  mag=     0.0000
       N       E                     dE             d eps       ncg     rms          rms(c)
DAV:   1    -0.851721503946E+03   -0.20887E-03   -0.53570E-03  4320   0.114E-01    0.172E-02
DAV:   2    -0.851721511257E+03   -0.73109E-05   -0.87308E-05  4540   0.135E-02    0.126E-02
DAV:   3    -0.851721511360E+03   -0.10368E-06   -0.12257E-06  3800   0.227E-03
  93 F= -.85961034E+03 E0= -.85961034E+03  d E =-.190892E-03  mag=     0.0000
       N       E                     dE             d eps       ncg     rms          rms(c)
DAV:   1    -0.851721759583E+03   -0.24833E-03   -0.82443E-03  4320   0.140E-01    0.210E-02
DAV:   2    -0.851721771267E+03   -0.11684E-04   -0.13915E-04  4440   0.166E-02    0.152E-02
DAV:   3    -0.851721771270E+03   -0.30923E-08   -0.18926E-06  4000   0.274E-03
  94 F= -.85961057E+03 E0= -.85961057E+03  d E =-.228962E-03  mag=    -0.0000
       N       E                     dE             d eps       ncg     rms          rms(c)
DAV:   1    -0.851722064410E+03   -0.29314E-03   -0.12579E-02  4320   0.173E-01    0.257E-02
DAV:   2    -0.851722082529E+03   -0.18119E-04   -0.21794E-04  4460   0.207E-02    0.187E-02
DAV:   3    -0.851722082332E+03    0.19739E-06   -0.29691E-06  4320   0.339E-03
  95 F= -.85961084E+03 E0= -.85961084E+03  d E =-.272763E-03  mag=     0.0000
       N       E                     dE             d eps       ncg     rms          rms(c)
DAV:   1    -0.851722431800E+03   -0.34927E-03   -0.17527E-02  4320   0.207E-01    0.308E-02
DAV:   2    -0.851722456524E+03   -0.24724E-04   -0.29913E-04  4440   0.250E-02    0.224E-02
DAV:   3    -0.851722456556E+03   -0.31789E-07   -0.43789E-06  4720   0.416E-03
  96 F= -.85961117E+03 E0= -.85961117E+03  d E =-.327110E-03  mag=    -0.0000
       N       E                     dE             d eps       ncg     rms          rms(c)
DAV:   1    -0.851722859271E+03   -0.40275E-03   -0.23440E-02  4320   0.242E-01    0.362E-02
DAV:   2    -0.851722891155E+03   -0.31884E-04   -0.38842E-04  4500   0.290E-02    0.267E-02
DAV:   3    -0.851722891353E+03   -0.19794E-06   -0.63149E-06  4900   0.504E-03
  97 F= -.85961155E+03 E0= -.85961155E+03  d E =-.384070E-03  mag=     0.0000
       N       E                     dE             d eps       ncg     rms          rms(c)
DAV:   1    -0.851723354868E+03   -0.46371E-03   -0.36369E-02  4320   0.299E-01    0.443E-02
DAV:   2    -0.851723407394E+03   -0.52526E-04   -0.64334E-04  4440   0.365E-02    0.328E-02
DAV:   3    -0.851723406058E+03    0.13361E-05   -0.10147E-05  5220   0.630E-03    0.242E-02
DAV:   4    -0.851723416974E+03   -0.10916E-04   -0.17222E-05  4440   0.809E-03    0.473E-03
DAV:   5    -0.851723417252E+03   -0.27780E-06   -0.38508E-06  4220   0.333E-03
  98 F= -.85961202E+03 E0= -.85961202E+03  d E =-.463092E-03  mag=    -0.0000
       N       E                     dE             d eps       ncg     rms          rms(c)
DAV:   1    -0.851723944708E+03   -0.52773E-03   -0.45170E-02  4360   0.344E-01    0.490E-02
DAV:   2    -0.851724009808E+03   -0.65100E-04   -0.79722E-04  4600   0.430E-02    0.365E-02
DAV:   3    -0.851724007341E+03    0.24667E-05   -0.14626E-05  5280   0.779E-03    0.265E-02
DAV:   4    -0.851724017355E+03   -0.10014E-04   -0.21400E-05  4450   0.969E-03    0.568E-03
DAV:   5    -0.851724017468E+03   -0.11323E-06   -0.57316E-06  4820   0.426E-03
  99 F= -.85961254E+03 E0= -.85961254E+03  d E =-.525666E-03  mag=    -0.0000
       N       E                     dE             d eps       ncg     rms          rms(c)
DAV:   1    -0.851724568442E+03   -0.55109E-03   -0.70404E-02  4340   0.423E-01    0.599E-02
DAV:   2    -0.851724680294E+03   -0.11185E-03   -0.13664E-03  4600   0.542E-02    0.452E-02
DAV:   3    -0.851724671745E+03    0.85488E-05   -0.24802E-05  5340   0.978E-03    0.338E-02
DAV:   4    -0.851724686363E+03   -0.14618E-04   -0.42805E-05  4560   0.131E-02    0.818E-03
DAV:   5    -0.851724687737E+03   -0.13735E-05   -0.99303E-06  4920   0.532E-03    0.489E-03
DAV:   6    -0.851724687718E+03    0.18736E-07   -0.15410E-06  3200   0.242E-03
 100 F= -.85961312E+03 E0= -.85961312E+03  d E =-.578621E-03  mag=    -0.0000
       N       E                     dE             d eps       ncg     rms          rms(c)
DAV:   1    -0.851725173587E+03   -0.48585E-03   -0.86998E-02  4320   0.526E-01    0.701E-02
DAV:   2    -0.851725303655E+03   -0.13007E-03   -0.16643E-03  4760   0.690E-02    0.565E-02
DAV:   3    -0.851725286553E+03    0.17102E-04   -0.58658E-05  5440   0.151E-02    0.404E-02
DAV:   4    -0.851725292682E+03   -0.61291E-05   -0.58168E-05  4580   0.164E-02    0.132E-02
DAV:   5    -0.851725294047E+03   -0.13651E-05   -0.15962E-05  4880   0.714E-03    0.585E-03
DAV:   6    -0.851725294230E+03   -0.18283E-06   -0.23176E-06  3540   0.278E-03
 101 F= -.85961364E+03 E0= -.85961364E+03  d E =-.514220E-03  mag=    -0.0000
       N       E                     dE             d eps       ncg     rms          rms(c)
DAV:   1    -0.851725549656E+03   -0.25561E-03   -0.12859E-02  4400   0.229E-01    0.257E-02
DAV:   2    -0.851725572823E+03   -0.23166E-04   -0.34163E-04  5040   0.335E-02    0.236E-02
DAV:   3    -0.851725566433E+03    0.63893E-05   -0.13886E-05  5940   0.689E-03    0.184E-02
DAV:   4    -0.851725560465E+03    0.59678E-05   -0.15124E-05  4460   0.830E-03    0.732E-03
DAV:   5    -0.851725560494E+03   -0.28347E-07   -0.43264E-06  3800   0.370E-03
 102 F= -.85961389E+03 E0= -.85961389E+03  d E =-.258674E-03  mag=    -0.0000
       N       E                     dE             d eps       ncg     rms          rms(c)
DAV:   1    -0.851725421549E+03    0.13892E-03   -0.10761E-02  4380   0.208E-01    0.234E-02
DAV:   2    -0.851725441755E+03   -0.20206E-04   -0.27997E-04  5160   0.301E-02    0.208E-02
DAV:   3    -0.851725436932E+03    0.48225E-05   -0.11087E-05  5860   0.623E-03    0.161E-02
DAV:   4    -0.851725433334E+03    0.35989E-05   -0.12117E-05  4440   0.737E-03    0.642E-03
DAV:   5    -0.851725433455E+03   -0.12118E-06   -0.30428E-06  3670   0.314E-03
 103 F= -.85961375E+03 E0= -.85961375E+03  d E =0.139740E-03  mag=    -0.0000
       N       E                     dE             d eps       ncg     rms          rms(c)
DAV:   1    -0.851725520290E+03   -0.86957E-04   -0.62030E-04  4420   0.506E-02    0.582E-03
DAV:   2    -0.851725521370E+03   -0.10800E-05   -0.17269E-05  5020   0.758E-03    0.549E-03
DAV:   3    -0.851725520985E+03    0.38495E-06   -0.59807E-07  2600   0.161E-03
 104 F= -.85961384E+03 E0= -.85961384E+03  d E =-.878558E-04  mag=    -0.0000
       N       E                     dE             d eps       ncg     rms          rms(c)
DAV:   1    -0.851725616269E+03   -0.94898E-04   -0.18362E-03  4420   0.871E-02    0.107E-02
DAV:   2    -0.851725619266E+03   -0.29970E-05   -0.45099E-05  5260   0.123E-02    0.960E-03
DAV:   3    -0.851725618194E+03    0.10716E-05   -0.19200E-06  3460   0.281E-03    0.721E-03
DAV:   4    -0.851725617558E+03    0.63607E-06   -0.40910E-06  4180   0.410E-03
 105 F= -.85961394E+03 E0= -.85961394E+03  d E =-.967399E-04  mag=    -0.0000
       N       E                     dE             d eps       ncg     rms          rms(c)
DAV:   1    -0.851725640471E+03   -0.22277E-04   -0.25796E-03  4400   0.103E-01    0.126E-02
DAV:   2    -0.851725645120E+03   -0.46492E-05   -0.68190E-05  5200   0.152E-02    0.113E-02
DAV:   3    -0.851725643614E+03    0.15066E-05   -0.29359E-06  4060   0.337E-03    0.862E-03
DAV:   4    -0.851725642636E+03    0.97705E-06   -0.52769E-06  4280   0.464E-03
 106 F= -.85961396E+03 E0= -.85961396E+03  d E =-.245039E-04  mag=    -0.0000
       N       E                     dE             d eps       ncg     rms          rms(c)
DAV:   1    -0.851725645120E+03   -0.15065E-05   -0.28902E-06  3330   0.341E-03    0.162E-03
DAV:   2    -0.851725645145E+03   -0.25364E-07   -0.15532E-07  2400   0.819E-04
 107 F= -.85961397E+03 E0= -.85961397E+03  d E =-.230985E-05  mag=     0.0000
       N       E                     dE             d eps       ncg     rms          rms(c)
DAV:   1    -0.851725649843E+03   -0.47226E-05   -0.92421E-06  4260   0.609E-03    0.647E-04
DAV:   2    -0.851725649865E+03   -0.22104E-07   -0.27035E-07  2480   0.985E-04
 108 F= -.85961397E+03 E0= -.85961397E+03  d E =-.432142E-05  mag=     0.0000
       N       E                     dE             d eps       ncg     rms          rms(c)
DAV:   1    -0.851725655984E+03   -0.61414E-05   -0.18232E-05  4480   0.850E-03    0.133E-03
DAV:   2    -0.851725655997E+03   -0.13482E-07   -0.44052E-07  2520   0.127E-03
 109 F= -.85961398E+03 E0= -.85961398E+03  d E =-.554210E-05  mag=     0.0000
       N       E                     dE             d eps       ncg     rms          rms(c)
DAV:   1    -0.851725663226E+03   -0.72417E-05   -0.26468E-05  4480   0.102E-02    0.179E-03
DAV:   2    -0.851725663239E+03   -0.13169E-07   -0.58160E-07  2480   0.146E-03
 110 F= -.85961398E+03 E0= -.85961398E+03  d E =-.645682E-05  mag=    -0.0000
       N       E                     dE             d eps       ncg     rms          rms(c)
DAV:   1    -0.851725671111E+03   -0.78856E-05   -0.32868E-05  4460   0.113E-02    0.203E-03
DAV:   2    -0.851725671130E+03   -0.19136E-07   -0.69933E-07  2680   0.158E-03
 111 F= -.85961399E+03 E0= -.85961399E+03  d E =-.690236E-05  mag=    -0.0000
       N       E                     dE             d eps       ncg     rms          rms(c)
DAV:   1    -0.851725679645E+03   -0.85334E-05   -0.35156E-05  4430   0.115E-02    0.216E-03
DAV:   2    -0.851725679664E+03   -0.19529E-07   -0.72340E-07  2690   0.160E-03
 112 F= -.85961400E+03 E0= -.85961400E+03  d E =-.726571E-05  mag=     0.0000
       N       E                     dE             d eps       ncg     rms          rms(c)
DAV:   1    -0.851725689676E+03   -0.10032E-04   -0.38762E-05  4400   0.118E-02    0.223E-03
DAV:   2    -0.851725689701E+03   -0.24658E-07   -0.76023E-07  2860   0.160E-03
 113 F= -.85961400E+03 E0= -.85961400E+03  d E =-.833494E-05  mag=     0.0000
       N       E                     dE             d eps       ncg     rms          rms(c)
DAV:   1    -0.851725702526E+03   -0.12850E-04   -0.38372E-05  4400   0.113E-02    0.226E-03
DAV:   2    -0.851725702547E+03   -0.20525E-07   -0.67552E-07  2780   0.146E-03
 114 F= -.85961402E+03 E0= -.85961402E+03  d E =-.106766E-04  mag=     0.0000
       N       E                     dE             d eps       ncg     rms          rms(c)
DAV:   1    -0.851725719090E+03   -0.16564E-04   -0.39266E-05  4240   0.110E-02    0.223E-03
DAV:   2    -0.851725719114E+03   -0.23283E-07   -0.60073E-07  2780   0.135E-03
 115 F= -.85961403E+03 E0= -.85961403E+03  d E =-.139132E-04  mag=     0.0000
       N       E                     dE             d eps       ncg     rms          rms(c)
DAV:   1    -0.851725740682E+03   -0.21592E-04   -0.50512E-05  4380   0.126E-02    0.239E-03
DAV:   2    -0.851725740715E+03   -0.33040E-07   -0.68627E-07  2830   0.149E-03
 116 F= -.85961405E+03 E0= -.85961405E+03  d E =-.183848E-04  mag=     0.0000
       N       E                     dE             d eps       ncg     rms          rms(c)
DAV:   1    -0.851725767751E+03   -0.27069E-04   -0.79874E-05  4320   0.166E-02    0.287E-03
DAV:   2    -0.851725767815E+03   -0.63454E-07   -0.11457E-06  3060   0.202E-03
 117 F= -.85961407E+03 E0= -.85961407E+03  d E =-.231982E-04  mag=     0.0000
       N       E                     dE             d eps       ncg     rms          rms(c)
DAV:   1    -0.851725800190E+03   -0.32439E-04   -0.12909E-04  4340   0.215E-02    0.365E-03
DAV:   2    -0.851725800310E+03   -0.12037E-06   -0.20631E-06  3580   0.267E-03
 118 F= -.85961410E+03 E0= -.85961410E+03  d E =-.276912E-04  mag=    -0.0000
       N       E                     dE             d eps       ncg     rms          rms(c)
DAV:   1    -0.851725839120E+03   -0.38930E-04   -0.18111E-04  4320   0.250E-02    0.450E-03
DAV:   2    -0.851725839263E+03   -0.14272E-06   -0.26407E-06  3680   0.301E-03
 119 F= -.85961413E+03 E0= -.85961413E+03  d E =-.328774E-04  mag=    -0.0000
       N       E                     dE             d eps       ncg     rms          rms(c)
DAV:   1    -0.851725886607E+03   -0.47487E-04   -0.24299E-04  4380   0.279E-02    0.512E-03
DAV:   2    -0.851725886784E+03   -0.17695E-06   -0.31855E-06  3820   0.318E-03
 120 F= -.85961417E+03 E0= -.85961417E+03  d E =-.401028E-04  mag=    -0.0000
       N       E                     dE             d eps       ncg     rms          rms(c)
DAV:   1    -0.851725945750E+03   -0.59143E-04   -0.37873E-04  4380   0.341E-02    0.620E-03
DAV:   2    -0.851725946068E+03   -0.31804E-06   -0.54145E-06  4100   0.393E-03
 121 F= -.85961422E+03 E0= -.85961422E+03  d E =-.503057E-04  mag=     0.0000
       N       E                     dE             d eps       ncg     rms          rms(c)
DAV:   1    -0.851726016638E+03   -0.70888E-04   -0.63659E-04  4320   0.440E-02    0.814E-03
DAV:   2    -0.851726017233E+03   -0.59522E-06   -0.10277E-05  4500   0.526E-03    0.670E-03
DAV:   3    -0.851726017350E+03   -0.11686E-06   -0.47005E-07  2940   0.154E-03
 122 F= -.85961428E+03 E0= -.85961428E+03  d E =-.604707E-04  mag=     0.0000
       N       E                     dE             d eps       ncg     rms          rms(c)
DAV:   1    -0.851726102415E+03   -0.85182E-04   -0.92463E-04  4380   0.518E-02    0.712E-03
DAV:   2    -0.851726103510E+03   -0.10952E-05   -0.14328E-05  4500   0.597E-03    0.581E-03
DAV:   3    -0.851726103503E+03    0.72250E-08   -0.27192E-07  3160   0.117E-03
 123 F= -.85961436E+03 E0= -.85961436E+03  d E =-.729652E-04  mag=     0.0000
       N       E                     dE             d eps       ncg     rms          rms(c)
DAV:   1    -0.851726207040E+03   -0.10353E-03   -0.12190E-03  4360   0.598E-02    0.820E-03
DAV:   2    -0.851726208354E+03   -0.13144E-05   -0.17518E-05  4520   0.683E-03    0.671E-03
DAV:   3    -0.851726208361E+03   -0.64829E-08   -0.38216E-07  3180   0.142E-03
 124 F= -.85961444E+03 E0= -.85961444E+03  d E =-.893812E-04  mag=     0.0000
