<?xml version="1.0" encoding="ISO-8859-1"?>
<modeling>
 <generator>
  <i name="program" type="string">vasp </i>
  <i name="version" type="string">6.4.2  </i>
  <i name="subversion" type="string">20Jul23 (build Aug 26 2025 15:10:52) complex                          parallel </i>
  <i name="platform" type="string">LinuxIFC </i>
  <i name="date" type="string">2025 12 16 </i>
  <i name="time" type="string">07:56:44 </i>
 </generator>
 <incar>
  <i type="int" name="ISTART">     0</i>
  <i type="string" name="ALGO">Normal</i>
  <i type="logical" name="ADDGRID"> T  </i>
  <i type="int" name="ISPIN">     2</i>
  <i type="int" name="IMIX">     4</i>
  <i name="AMIX">      0.20000000</i>
  <i name="BMIX">      0.00010000</i>
  <i name="AMIX_MAG">      0.80000000</i>
  <i name="BMIX_MAG">      0.00010000</i>
  <i type="int" name="ICHARG">     2</i>
  <i type="int" name="NELM">   200</i>
  <i type="int" name="IBRION">     3</i>
  <i name="EDIFF">      0.00000100</i>
  <i name="EDIFFG">     -0.03000000</i>
  <i type="int" name="NSW">  1000</i>
  <i type="int" name="ISIF">     2</i>
  <i type="int" name="ISYM">     0</i>
  <i name="ENCUT">    520.00000000</i>
  <i name="POTIM">      0.00000000</i>
  <v name="MAGMOM">      0.60000000      0.60000000      0.60000000      0.60000000      0.60000000      0.60000000      0.60000000      0.60000000      0.60000000      0.60000000      0.60000000      0.60000000      0.60000000      0.60000000      0.60000000      0.60000000      0.60000000      0.60000000      0.60000000      0.60000000
      0.60000000      0.60000000      0.60000000      0.60000000      0.60000000      0.60000000      0.60000000      0.60000000      0.60000000      0.60000000      0.60000000      0.60000000      0.60000000      0.60000000      0.60000000      0.60000000      0.60000000      0.60000000      0.60000000      0.60000000
      0.60000000      0.60000000      0.60000000      0.60000000      0.60000000      0.60000000      0.60000000      0.60000000      0.60000000      0.60000000      0.60000000      0.60000000      0.60000000      0.60000000      0.60000000      0.60000000      0.60000000      0.60000000      0.60000000      0.60000000
      0.60000000      0.60000000      0.60000000      0.60000000      0.60000000      0.60000000      0.60000000      0.60000000      0.60000000      0.60000000      0.60000000      0.60000000      0.60000000      0.60000000      0.60000000      0.60000000      0.60000000      0.60000000      0.60000000      0.60000000
      0.60000000      0.60000000      0.60000000      0.60000000      0.60000000      0.60000000      0.60000000      0.60000000      0.60000000      0.60000000      0.60000000      0.60000000      0.60000000      0.60000000      0.60000000      0.60000000      0.60000000      0.60000000      0.60000000</v>
  <i type="string" name="LREAL">Auto</i>
  <i type="int" name="ISMEAR">     0</i>
  <i name="SIGMA">      0.05000000</i>
  <i type="logical" name="LWAVE"> F  </i>
  <i type="logical" name="LCHARG"> F  </i>
  <i type="logical" name="LASPH"> T  </i>
  <i type="int" name="IVDW">    12</i>
  <i name="SPRING">     -5.00000000</i>
 </incar>
 <primitive_cell>
  <structure name="primitive_cell" >
   <crystal>
    <varray name="basis" >
     <v>      17.27103806       0.00000000       0.00000000 </v>
     <v>      -8.63551903      14.95715771       0.00000000 </v>
     <v>       0.00000000       0.00000000      15.00000000 </v>
    </varray>
    <i name="volume">   3874.88459904 </i>
    <varray name="rec_basis" >
     <v>       0.05790040       0.03342881       0.00000000 </v>
     <v>       0.00000000       0.06685762       0.00000000 </v>
     <v>       0.00000000       0.00000000       0.06666667 </v>
    </varray>
   </crystal>
   <varray name="positions" >
    <v>       0.99895922       0.99966884       0.49883804 </v>
    <v>       0.99846480       0.14227966       0.50150030 </v>
    <v>       0.99832434       0.28518159       0.50343328 </v>
    <v>       0.99871813       0.42829147       0.50307944 </v>
    <v>       0.99942754       0.57142418       0.50115525 </v>
    <v>       0.00041676       0.71468686       0.49805152 </v>
    <v>       0.00023332       0.85769651       0.49677761 </v>
    <v>       0.14222373       0.00023395       0.50760586 </v>
    <v>       0.14134613       0.14253079       0.51030860 </v>
    <v>       0.14039301       0.28464359       0.51411302 </v>
    <v>       0.14058921       0.42783780       0.51436030 </v>
    <v>       0.14176850       0.57099046       0.51114348 </v>
    <v>       0.14243744       0.71421533       0.50845477 </v>
    <v>       0.14256015       0.85738880       0.50670032 </v>
    <v>       0.28503247       0.99999961       0.51014401 </v>
    <v>       0.28468881       0.14266779       0.51456114 </v>
    <v>       0.28385519       0.28621999       0.52420387 </v>
    <v>       0.28144370       0.42665021       0.53068439 </v>
    <v>       0.28440536       0.56987537       0.52392864 </v>
    <v>       0.28490872       0.71430475       0.51450170 </v>
    <v>       0.28506769       0.85734430       0.51019638 </v>
    <v>       0.42797014       0.00023979       0.50661337 </v>
    <v>       0.42778974       0.14301819       0.50865481 </v>
    <v>       0.42591645       0.28268575       0.51572855 </v>
    <v>       0.42612253       0.71581156       0.51411492 </v>
    <v>       0.42777496       0.85726055       0.50793883 </v>
    <v>       0.57050442       0.00027435       0.50029509 </v>
    <v>       0.57055393       0.14292908       0.50118711 </v>
    <v>       0.57142587       0.28671524       0.49948775 </v>
    <v>       0.57132658       0.85763420       0.49702918 </v>
    <v>       0.71329206       0.99983246       0.49185316 </v>
    <v>       0.71336686       0.14283339       0.49625791 </v>
    <v>       0.71338584       0.28582355       0.49460985 </v>
    <v>       0.71327957       0.42800420       0.48472183 </v>
    <v>       0.72006156       0.57368057       0.45707568 </v>
    <v>       0.72339214       0.71867291       0.45135059 </v>
    <v>       0.71259976       0.85724593       0.47898251 </v>
    <v>       0.85624984       0.99994397       0.48985344 </v>
    <v>       0.85587710       0.14258318       0.49539149 </v>
    <v>       0.85593104       0.28543203       0.49661583 </v>
    <v>       0.85653186       0.42849221       0.49340590 </v>
    <v>       0.85768031       0.57197040       0.48685956 </v>
    <v>       0.85960315       0.71561151       0.47997056 </v>
    <v>       0.85722891       0.85721053       0.48322884 </v>
    <v>       0.04635763       0.09486123       0.50359571 </v>
    <v>       0.04545277       0.23714905       0.50619177 </v>
    <v>       0.04561341       0.38034605       0.50681895 </v>
    <v>       0.04677802       0.52362051       0.50527810 </v>
    <v>       0.04732752       0.66676010       0.50304197 </v>
    <v>       0.04751336       0.80982963       0.50086190 </v>
    <v>       0.04710195       0.95252244       0.50146272 </v>
    <v>       0.18939628       0.09502448       0.51150347 </v>
    <v>       0.18835522       0.23746282       0.51608226 </v>
    <v>       0.18682020       0.37939100       0.51937768 </v>
    <v>       0.18877786       0.52304131       0.51633483 </v>
    <v>       0.18965158       0.66658856       0.51213060 </v>
    <v>       0.19003782       0.80969959       0.50902739 </v>
    <v>       0.18998881       0.95253183       0.50868073 </v>
    <v>       0.33262605       0.09546049       0.51151675 </v>
    <v>       0.33281327       0.23785665       0.51924506 </v>
    <v>       0.32734311       0.37843878       0.53472381 </v>
    <v>       0.32764569       0.52085075       0.53456455 </v>
    <v>       0.33313950       0.66724039       0.51860203 </v>
    <v>       0.33267130       0.80948611       0.51132490 </v>
    <v>       0.33257224       0.95246181       0.50919205 </v>
    <v>       0.47545749       0.09535647       0.50525947 </v>
    <v>       0.47475378       0.23831851       0.50823719 </v>
    <v>       0.47481601       0.80906183       0.50668321 </v>
    <v>       0.47543211       0.95262205       0.50471149 </v>
    <v>       0.61800257       0.09530952       0.49898583 </v>
    <v>       0.61829051       0.23830508       0.49810203 </v>
    <v>       0.62029082       0.37999214       0.49126471 </v>
    <v>       0.61965382       0.81304098       0.48662394 </v>
    <v>       0.61821250       0.95269586       0.49611824 </v>
    <v>       0.76090062       0.09522932       0.49426301 </v>
    <v>       0.76093715       0.23792354       0.49560738 </v>
    <v>       0.76133546       0.38091165       0.49048290 </v>
    <v>       0.76254092       0.52508684       0.47578614 </v>
    <v>       0.76611208       0.66786498       0.46111721 </v>
    <v>       0.76179470       0.80940251       0.47006217 </v>
    <v>       0.76108279       0.95250533       0.48619352 </v>
    <v>       0.90341845       0.09468957       0.49539405 </v>
    <v>       0.90330733       0.23769325       0.49817741 </v>
    <v>       0.90363431       0.38085637       0.49757091 </v>
    <v>       0.90449542       0.52402743       0.49441573 </v>
    <v>       0.90563602       0.66716039       0.48844473 </v>
    <v>       0.90547022       0.81028043       0.48649366 </v>
    <v>       0.90395680       0.95206541       0.49105465 </v>
    <v>       0.46180692       0.35528632       0.51781489 </v>
    <v>       0.39922455       0.41688426       0.54495404 </v>
    <v>       0.39950123       0.55398806       0.54562393 </v>
    <v>       0.64942664       0.53863924       0.44041180 </v>
    <v>       0.58451294       0.41689001       0.49156067 </v>
    <v>       0.58312084       0.74081687       0.48503176 </v>
    <v>       0.46219990       0.67929948       0.51537619 </v>
    <v>       0.54278329       0.56550033       0.49115925 </v>
    <v>       0.58692020       0.56139442       0.57797463 </v>
    <v>       0.63538674       0.67084615       0.42305442 </v>
    <v>       0.52934781       0.53389328       0.54788893 </v>
   </varray>
  </structure>
  <varray name="primitive_index" >
   <v type="int" >        1 </v>
   <v type="int" >        2 </v>
   <v type="int" >        3 </v>
   <v type="int" >        4 </v>
   <v type="int" >        5 </v>
   <v type="int" >        6 </v>
   <v type="int" >        7 </v>
   <v type="int" >        8 </v>
   <v type="int" >        9 </v>
   <v type="int" >       10 </v>
   <v type="int" >       11 </v>
   <v type="int" >       12 </v>
   <v type="int" >       13 </v>
   <v type="int" >       14 </v>
   <v type="int" >       15 </v>
   <v type="int" >       16 </v>
   <v type="int" >       17 </v>
   <v type="int" >       18 </v>
   <v type="int" >       19 </v>
   <v type="int" >       20 </v>
   <v type="int" >       21 </v>
   <v type="int" >       22 </v>
   <v type="int" >       23 </v>
   <v type="int" >       24 </v>
   <v type="int" >       25 </v>
   <v type="int" >       26 </v>
   <v type="int" >       27 </v>
   <v type="int" >       28 </v>
   <v type="int" >       29 </v>
   <v type="int" >       30 </v>
   <v type="int" >       31 </v>
   <v type="int" >       32 </v>
   <v type="int" >       33 </v>
   <v type="int" >       34 </v>
   <v type="int" >       35 </v>
   <v type="int" >       36 </v>
   <v type="int" >       37 </v>
   <v type="int" >       38 </v>
   <v type="int" >       39 </v>
   <v type="int" >       40 </v>
   <v type="int" >       41 </v>
   <v type="int" >       42 </v>
   <v type="int" >       43 </v>
   <v type="int" >       44 </v>
   <v type="int" >       45 </v>
   <v type="int" >       46 </v>
   <v type="int" >       47 </v>
   <v type="int" >       48 </v>
   <v type="int" >       49 </v>
   <v type="int" >       50 </v>
   <v type="int" >       51 </v>
   <v type="int" >       52 </v>
   <v type="int" >       53 </v>
   <v type="int" >       54 </v>
   <v type="int" >       55 </v>
   <v type="int" >       56 </v>
   <v type="int" >       57 </v>
   <v type="int" >       58 </v>
   <v type="int" >       59 </v>
   <v type="int" >       60 </v>
   <v type="int" >       61 </v>
   <v type="int" >       62 </v>
   <v type="int" >       63 </v>
   <v type="int" >       64 </v>
   <v type="int" >       65 </v>
   <v type="int" >       66 </v>
   <v type="int" >       67 </v>
   <v type="int" >       68 </v>
   <v type="int" >       69 </v>
   <v type="int" >       70 </v>
   <v type="int" >       71 </v>
   <v type="int" >       72 </v>
   <v type="int" >       73 </v>
   <v type="int" >       74 </v>
   <v type="int" >       75 </v>
   <v type="int" >       76 </v>
   <v type="int" >       77 </v>
   <v type="int" >       78 </v>
   <v type="int" >       79 </v>
   <v type="int" >       80 </v>
   <v type="int" >       81 </v>
   <v type="int" >       82 </v>
   <v type="int" >       83 </v>
   <v type="int" >       84 </v>
   <v type="int" >       85 </v>
   <v type="int" >       86 </v>
   <v type="int" >       87 </v>
   <v type="int" >       88 </v>
   <v type="int" >       89 </v>
   <v type="int" >       90 </v>
   <v type="int" >       91 </v>
   <v type="int" >       92 </v>
   <v type="int" >       93 </v>
   <v type="int" >       94 </v>
   <v type="int" >       95 </v>
   <v type="int" >       96 </v>
   <v type="int" >       97 </v>
   <v type="int" >       98 </v>
   <v type="int" >       99 </v>
  </varray>
 </primitive_cell>
 <kpoints>
  <generation param="Gamma">
   <v type="int" name="divisions">       2        2        1 </v>
   <v name="usershift">      0.00000000       0.00000000       0.00000000 </v>
   <v name="genvec1">      0.50000000       0.00000000       0.00000000 </v>
   <v name="genvec2">      0.00000000       0.50000000       0.00000000 </v>
   <v name="genvec3">      0.00000000       0.00000000       1.00000000 </v>
   <v name="shift">      0.00000000       0.00000000       0.00000000 </v>
  </generation>
  <varray name="kpointlist" >
   <v>       0.00000000       0.00000000       0.00000000 </v>
   <v>       0.50000000       0.00000000       0.00000000 </v>
   <v>       0.00000000       0.50000000       0.00000000 </v>
   <v>       0.50000000       0.50000000       0.00000000 </v>
  </varray>
  <varray name="weights" >
   <v>       0.25000000 </v>
   <v>       0.25000000 </v>
   <v>       0.25000000 </v>
   <v>       0.25000000 </v>
  </varray>
 </kpoints>
 <parameters>
  <separator name="general" >
   <i type="string" name="SYSTEM">unknown system</i>
   <i type="logical" name="LCOMPAT"> F  </i>
  </separator>
  <separator name="electronic" >
   <i type="string" name="PREC">normal</i>
   <i name="ENMAX">    520.00000000</i>
   <i name="ENAUG">    644.87300000</i>
   <i name="EDIFF">      0.00000100</i>
   <i type="int" name="IALGO">    38</i>
   <i type="int" name="IWAVPR">    11</i>
   <i type="int" name="NBANDS">   270</i>
   <i type="int" name="NBANDSLOW">    -1</i>
   <i type="int" name="NBANDSHIGH">    -1</i>
   <i name="NELECT">    374.00000000</i>
   <i type="int" name="TURBO">     0</i>
   <i type="int" name="IRESTART">     0</i>
   <i type="int" name="NREBOOT">     0</i>
   <i type="int" name="NMIN">     0</i>
   <i name="EREF">      0.00000000</i>
   <separator name="electronic smearing" >
    <i type="int" name="ISMEAR">     0</i>
    <i name="SIGMA">      0.05000000</i>
    <i name="KSPACING">      0.50000000</i>
    <i type="logical" name="KGAMMA"> T  </i>
    <i type="logical" name="KBLOWUP"> T  </i>
   </separator>
   <separator name="electronic projectors" >
    <i type="logical" name="LREAL"> T  </i>
    <v name="ROPT">     -0.00050000     -0.00050000     -0.00050000     -0.00050000</v>
    <i type="int" name="LMAXPAW">  -100</i>
    <i type="int" name="LMAXMIX">     2</i>
    <i type="logical" name="NLSPLINE"> F  </i>
   </separator>
   <separator name="electronic startup" >
    <i type="int" name="ISTART">     0</i>
    <i type="int" name="ICHARG">     2</i>
    <i type="int" name="INIWAV">     1</i>
   </separator>
   <separator name="electronic spin" >
    <i type="int" name="ISPIN">     2</i>
    <i type="logical" name="LNONCOLLINEAR"> F  </i>
    <v name="MAGMOM">      0.60000000      0.60000000      0.60000000      0.60000000      0.60000000      0.60000000      0.60000000      0.60000000      0.60000000      0.60000000      0.60000000      0.60000000      0.60000000      0.60000000      0.60000000      0.60000000      0.60000000      0.60000000      0.60000000      0.60000000
      0.60000000      0.60000000      0.60000000      0.60000000      0.60000000      0.60000000      0.60000000      0.60000000      0.60000000      0.60000000      0.60000000      0.60000000      0.60000000      0.60000000      0.60000000      0.60000000      0.60000000      0.60000000      0.60000000      0.60000000
      0.60000000      0.60000000      0.60000000      0.60000000      0.60000000      0.60000000      0.60000000      0.60000000      0.60000000      0.60000000      0.60000000      0.60000000      0.60000000      0.60000000      0.60000000      0.60000000      0.60000000      0.60000000      0.60000000      0.60000000
      0.60000000      0.60000000      0.60000000      0.60000000      0.60000000      0.60000000      0.60000000      0.60000000      0.60000000      0.60000000      0.60000000      0.60000000      0.60000000      0.60000000      0.60000000      0.60000000      0.60000000      0.60000000      0.60000000      0.60000000
      0.60000000      0.60000000      0.60000000      0.60000000      0.60000000      0.60000000      0.60000000      0.60000000      0.60000000      0.60000000      0.60000000      0.60000000      0.60000000      0.60000000      0.60000000      0.60000000      0.60000000      0.60000000      0.60000000</v>
    <i name="NUPDOWN">     -1.00000000</i>
    <i type="logical" name="LSORBIT"> F  </i>
    <v name="SAXIS">      0.00000000      0.00000000      1.00000000</v>
    <i type="logical" name="LSPIRAL"> F  </i>
    <v name="QSPIRAL">      0.00000000      0.00000000      0.00000000</v>
    <i type="logical" name="LZEROZ"> F  </i>
   </separator>
   <separator name="electronic exchange-correlation" >
    <i type="logical" name="LASPH"> T  </i>
    <i type="logical" name="LMETAGGA"> F  </i>
   </separator>
   <separator name="electronic convergence" >
    <i type="int" name="NELM">   200</i>
    <i type="int" name="NELMDL">    -5</i>
    <i type="int" name="NELMIN">     2</i>
    <i name="ENINI">    520.00000000</i>
    <separator name="electronic convergence detail" >
     <i type="logical" name="LDIAG"> T  </i>
     <i type="logical" name="LSUBROT"> F  </i>
     <i name="WEIMIN">      0.00100000</i>
     <i name="EBREAK">      0.00000000</i>
     <i name="DEPER">      0.30000000</i>
     <i type="int" name="NRMM">     4</i>
     <i name="TIME">      0.40000000</i>
    </separator>
   </separator>
   <separator name="electronic mixer" >
    <i name="AMIX">      0.20000000</i>
    <i name="BMIX">      0.00010000</i>
    <i name="AMIN">      0.10000000</i>
    <i name="AMIX_MAG">      0.80000000</i>
    <i name="BMIX_MAG">      0.00010000</i>
    <separator name="electronic mixer details" >
     <i type="int" name="IMIX">     4</i>
     <i type="logical" name="MIXFIRST"> F  </i>
     <i type="int" name="MAXMIX">   -45</i>
     <i name="WC">    100.00000000</i>
     <i type="int" name="INIMIX">     1</i>
     <i type="int" name="MIXPRE">     1</i>
     <i type="int" name="MREMOVE">     5</i>
    </separator>
   </separator>
   <separator name="electronic dipolcorrection" >
    <i type="logical" name="LDIPOL"> F  </i>
    <i type="logical" name="LMONO"> F  </i>
    <i type="int" name="IDIPOL">     0</i>
    <i name="EPSILON">      1.00000000</i>
    <v name="DIPOL">   -100.00000000   -100.00000000   -100.00000000</v>
    <i name="EFIELD">      0.00000000</i>
   </separator>
  </separator>
  <separator name="grids" >
   <i type="int" name="NGX">    96</i>
   <i type="int" name="NGY">    96</i>
   <i type="int" name="NGZ">    84</i>
   <i type="int" name="NGXF">   192</i>
   <i type="int" name="NGYF">   192</i>
   <i type="int" name="NGZF">   168</i>
   <i type="logical" name="ADDGRID"> T  </i>
  </separator>
  <separator name="ionic" >
   <i type="int" name="NSW">  1000</i>
   <i type="int" name="IBRION">     3</i>
   <i type="int" name="MDALGO">     0</i>
   <i type="int" name="ISIF">     2</i>
   <i name="PSTRESS">      0.00000000</i>
   <i name="EDIFFG">     -0.03000000</i>
   <i type="int" name="NFREE">     0</i>
   <i name="POTIM">      0.00000000</i>
   <i name="SMASS">     -3.00000000</i>
   <i name="SCALEE">      1.00000000</i>
  </separator>
  <separator name="ionic md" >
   <i name="TEBEG">      0.00010000</i>
   <i name="TEEND">      0.00010000</i>
   <i type="int" name="NBLOCK">     1</i>
   <i type="int" name="KBLOCK">  1000</i>
   <i type="int" name="NPACO">   256</i>
   <i name="APACO">     10.00000000</i>
  </separator>
  <separator name="symmetry" >
   <i type="int" name="ISYM">     0</i>
   <i name="SYMPREC">      0.00001000</i>
  </separator>
  <separator name="dos" >
   <i type="int" name="LORBIT">     0</i>
   <v name="RWIGS">     -1.00000000     -1.00000000     -1.00000000     -1.00000000</v>
   <i type="int" name="NEDOS">   301</i>
   <i name="EMIN">     10.00000000</i>
   <i name="EMAX">    -10.00000000</i>
   <i name="EFERMI">      0.00000000</i>
  </separator>
  <separator name="writing" >
   <i type="int" name="NWRITE">     2</i>
   <i type="logical" name="LWAVE"> F  </i>
   <i type="logical" name="LDOWNSAMPLE"> F  </i>
   <i type="logical" name="LCHARG"> F  </i>
   <i type="logical" name="LPARD"> F  </i>
   <i type="logical" name="LVTOT"> F  </i>
   <i type="logical" name="LVHAR"> F  </i>
   <i type="logical" name="LELF"> F  </i>
   <i type="logical" name="LOPTICS"> F  </i>
   <v name="STM">      0.00000000      0.00000000      0.00000000      0.00000000      0.00000000      0.00000000      0.00000000</v>
  </separator>
  <separator name="performance" >
   <i type="int" name="NPAR">     5</i>
   <i type="int" name="NSIM">     4</i>
   <i type="int" name="NBLK">    -1</i>
   <i type="logical" name="LPLANE"> T  </i>
   <i type="logical" name="LSCALAPACK"> T  </i>
   <i type="logical" name="LSCAAWARE"> F  </i>
   <i type="logical" name="LSCALU"> F  </i>
   <i type="logical" name="LASYNC"> F  </i>
   <i type="logical" name="LORBITALREAL"> F  </i>
  </separator>
  <separator name="miscellaneous" >
   <i type="int" name="IDIOT">     3</i>
   <i type="int" name="PHON_NSTRUCT">    -1</i>
   <i type="logical" name="LMUSIC"> F  </i>
   <v name="POMASS">     12.01100000      1.00000000     18.99800000     16.00000000</v>
   <v name="DARWINR">      0.00000000      0.00000000      0.00000000      0.00000000</v>
   <v name="DARWINV">      1.00000000      1.00000000      1.00000000      1.00000000</v>
   <i type="logical" name="LCORR"> T  </i>
  </separator>
  <i type="logical" name="GGA_COMPAT"> T  </i>
  <i type="logical" name="LBERRY"> F  </i>
  <i type="int" name="ICORELEVEL">     0</i>
  <i type="logical" name="LDAU"> F  </i>
  <i type="int" name="I_CONSTRAINED_M">     0</i>
  <separator name="electronic exchange-correlation" >
   <i type="string" name="GGA">--</i>
   <i type="int" name="VOSKOWN">     0</i>
   <i type="logical" name="LHFCALC"> F  </i>
   <i type="string" name="PRECFOCK"></i>
   <i type="logical" name="LSYMGRAD"> F  </i>
   <i type="logical" name="LHFONE"> F  </i>
   <i type="logical" name="LRHFCALC"> F  </i>
   <i type="logical" name="LTHOMAS"> F  </i>
   <i type="logical" name="LMODELHF"> F  </i>
   <i type="logical" name="LFOCKACE"> F  </i>
   <i name="ENCUT4O">     -1.00000000</i>
   <i type="int" name="EXXOEP">     0</i>
   <i type="int" name="FOURORBIT">     0</i>
   <i name="AEXX">      0.00000000</i>
   <i name="HFALPHA">      0.00000000</i>
   <i name="MCALPHA">      0.00000000</i>
   <i name="ALDAX">      1.00000000</i>
   <i name="AGGAX">      1.00000000</i>
   <i name="ALDAC">      1.00000000</i>
   <i name="AGGAC">      1.00000000</i>
   <i type="int" name="NKREDX">     1</i>
   <i type="int" name="NKREDY">     1</i>
   <i type="int" name="NKREDZ">     1</i>
   <i type="logical" name="SHIFTRED"> F  </i>
   <i type="logical" name="ODDONLY"> F  </i>
   <i type="logical" name="EVENONLY"> F  </i>
   <i type="int" name="LMAXFOCK">     0</i>
   <i type="int" name="NMAXFOCKAE">     0</i>
   <i type="logical" name="LFOCKAEDFT"> F  </i>
   <i name="HFSCREEN">      0.00000000</i>
   <i name="HFSCREENC">      0.00000000</i>
   <i type="int" name="NBANDSGWLOW">     0</i>
  </separator>
  <separator name="vdW DFT" >
   <i type="logical" name="LUSE_VDW"> F  </i>
   <i type="int" name="IVDW_NL">     1</i>
   <i type="logical" name="LSPIN_VDW"> F  </i>
   <i name="Zab_VDW">     -0.84910000</i>
   <i name="PARAM1">      0.12340000</i>
   <i name="PARAM2">      1.00000000</i>
   <i name="PARAM3">      0.00000000</i>
  </separator>
  <separator name="model GW" >
   <i type="int" name="MODEL_GW">     0</i>
   <i name="MODEL_EPS0">     23.48414909</i>
   <i name="MODEL_ALPHA">      1.00000000</i>
  </separator>
  <separator name="linear response parameters" >
   <i type="logical" name="LEPSILON"> F  </i>
   <i type="logical" name="LRPA"> F  </i>
   <i type="logical" name="LNABLA"> F  </i>
   <i type="logical" name="LVEL"> F  </i>
   <i name="CSHIFT">      0.10000000</i>
   <i name="OMEGAMAX">     -1.00000000</i>
   <i name="DEG_THRESHOLD">      0.00200000</i>
   <i name="RTIME">     -0.10000000</i>
   <i name="WPLASMAI">      0.00000000</i>
   <v name="DFIELD">      0.00000000      0.00000000      0.00000000</v>
   <v name="WPLASMA">      0.00000000      0.00000000      0.00000000      0.00000000      0.00000000      0.00000000      0.00000000      0.00000000      0.00000000</v>
  </separator>
  <separator name="orbital magnetization" >
   <i type="logical" name="NUCIND"> F  </i>
   <v name="MAGPOS">      0.00000000      0.00000000      0.00000000</v>
   <i type="logical" name="LNICSALL"> T  </i>
   <i type="logical" name="ORBITALMAG"> F  </i>
   <i type="logical" name="LMAGBLOCH"> F  </i>
   <i type="logical" name="LCHIMAG"> F  </i>
   <i type="logical" name="LGAUGE"> T  </i>
   <i type="int" name="MAGATOM">     0</i>
   <v name="MAGDIPOL">      0.00000000      0.00000000      0.00000000</v>
   <v name="AVECCONST">      0.00000000      0.00000000      0.00000000</v>
  </separator>
  <separator name="response functions" >
   <i type="logical" name="LALL_IN_ONE"> F  </i>
   <i type="int" name="IALL_IN_ONE">    -1</i>
   <i type="int" name="NBANDS_WAVE">    -1</i>
   <i type="logical" name="LFINITE_TEMPERATURE"> F  </i>
   <i type="logical" name="LADDER"> F  </i>
   <i type="logical" name="LRPAFORCE"> F  </i>
   <i type="logical" name="LFXC"> F  </i>
   <i type="logical" name="LHARTREE"> T  </i>
   <i type="int" name="IBSE">     0</i>
   <v type="int" name="KPOINT">    -1     0     0     0</v>
   <i type="logical" name="LTCTC"> F  </i>
   <i type="logical" name="LTCTE"> F  </i>
   <i type="logical" name="LTETE"> F  </i>
   <i type="logical" name="LTRIPLET"> F  </i>
   <i type="logical" name="LFXCEPS"> F  </i>
   <i type="logical" name="LFXHEG"> F  </i>
   <i type="int" name="NATURALO">     2</i>
   <i type="logical" name="LHOLEGF"> F  </i>
   <i type="logical" name="L2ORDER"> F  </i>
   <i type="logical" name="LDMP1"> F  </i>
   <i type="logical" name="LMP2LT"> F  </i>
   <i type="logical" name="LSMP2LT"> F  </i>
   <i type="logical" name="LGWLF"> F  </i>
   <i name="ENCUTGW">     -1.60000002</i>
   <i name="ENCUTGWSOFT">     -1.60000002</i>
   <i name="ENCUTLF">     -1.00000000</i>
   <i type="logical" name="LESF_SPLINES"> F  </i>
   <i type="int" name="LMAXMP2">    -1</i>
   <i name="SCISSOR">      0.00000000</i>
   <i type="int" name="NOMEGA">     0</i>
   <i type="int" name="NOMEGAR">     0</i>
   <i type="int" name="NBANDSGW">    -1</i>
   <i type="int" name="NBANDSO">    -1</i>
   <i type="int" name="NBANDSV">    -1</i>
   <i type="int" name="NELMGW">     1</i>
   <i type="int" name="NELMHF">     1</i>
   <i type="int" name="DIM">     3</i>
   <i type="int" name="IESPILON">     4</i>
   <i type="int" name="ANTIRES">     0</i>
   <i name="OMEGAMAX">    -30.00000000</i>
   <i name="OMEGAMIN">    -30.00000000</i>
   <i name="OMEGATL">   -200.00000000</i>
   <i type="int" name="OMEGAGRID">     0</i>
   <i name="CSHIFT">     -0.10000000</i>
   <i type="logical" name="LSELFENERGY"> F  </i>
   <i type="logical" name="LSPECTRAL"> F  </i>
   <i type="logical" name="LSPECTRALGW"> F  </i>
   <i type="logical" name="LSINGLES"> F  </i>
   <i type="logical" name="LFERMIGW"> F  </i>
   <i type="logical" name="ODDONLYGW"> F  </i>
   <i type="logical" name="EVENONLYGW"> F  </i>
   <i type="int" name="NKREDLFX">     1</i>
   <i type="int" name="NKREDLFY">     1</i>
   <i type="int" name="NKREDLFZ">     1</i>
   <i type="int" name="MAXMEM">  2800</i>
   <i type="int" name="TELESCOPE">     0</i>
   <i type="int" name="NTAUPAR">    -1</i>
   <i type="int" name="NOMEGAPAR">    -1</i>
   <i name="DAMP_NEWTON">      0.80000001</i>
   <i name="LAMBDA">      1.00000000</i>
  </separator>
  <separator name="External order field" >
   <i name="OFIELD_KAPPA">      0.00000000</i>
   <v name="OFIELD_K">      0.00000000      0.00000000      0.00000000</v>
   <i name="OFIELD_Q6_NEAR">      0.00000000</i>
   <i name="OFIELD_Q6_FAR">      0.00000000</i>
   <i name="OFIELD_A">      0.00000000</i>
  </separator>
  <separator name="optional k-points parameters" >
   <i type="int" name="KPOINTS_OPT_MODE">     1</i>
   <i type="logical" name="LKPOINTS_OPT"> F  </i>
  </separator>
 </parameters>
 <atominfo>
  <atoms>      99 </atoms>
  <types>       4 </types>
  <array name="atoms" >
   <dimension dim="1">ion</dimension>
   <field type="string">element</field>
   <field type="int">atomtype</field>
   <set>
    <rc><c>C </c><c>   1</c></rc>
    <rc><c>C </c><c>   1</c></rc>
    <rc><c>C </c><c>   1</c></rc>
    <rc><c>C </c><c>   1</c></rc>
    <rc><c>C </c><c>   1</c></rc>
    <rc><c>C </c><c>   1</c></rc>
    <rc><c>C </c><c>   1</c></rc>
    <rc><c>C </c><c>   1</c></rc>
    <rc><c>C </c><c>   1</c></rc>
    <rc><c>C </c><c>   1</c></rc>
    <rc><c>C </c><c>   1</c></rc>
    <rc><c>C </c><c>   1</c></rc>
    <rc><c>C </c><c>   1</c></rc>
    <rc><c>C </c><c>   1</c></rc>
    <rc><c>C </c><c>   1</c></rc>
    <rc><c>C </c><c>   1</c></rc>
    <rc><c>C </c><c>   1</c></rc>
    <rc><c>C </c><c>   1</c></rc>
    <rc><c>C </c><c>   1</c></rc>
    <rc><c>C </c><c>   1</c></rc>
    <rc><c>C </c><c>   1</c></rc>
    <rc><c>C </c><c>   1</c></rc>
    <rc><c>C </c><c>   1</c></rc>
    <rc><c>C </c><c>   1</c></rc>
    <rc><c>C </c><c>   1</c></rc>
    <rc><c>C </c><c>   1</c></rc>
    <rc><c>C </c><c>   1</c></rc>
    <rc><c>C </c><c>   1</c></rc>
    <rc><c>C </c><c>   1</c></rc>
    <rc><c>C </c><c>   1</c></rc>
    <rc><c>C </c><c>   1</c></rc>
    <rc><c>C </c><c>   1</c></rc>
    <rc><c>C </c><c>   1</c></rc>
    <rc><c>C </c><c>   1</c></rc>
    <rc><c>C </c><c>   1</c></rc>
    <rc><c>C </c><c>   1</c></rc>
    <rc><c>C </c><c>   1</c></rc>
    <rc><c>C </c><c>   1</c></rc>
    <rc><c>C </c><c>   1</c></rc>
    <rc><c>C </c><c>   1</c></rc>
    <rc><c>C </c><c>   1</c></rc>
    <rc><c>C </c><c>   1</c></rc>
    <rc><c>C </c><c>   1</c></rc>
    <rc><c>C </c><c>   1</c></rc>
    <rc><c>C </c><c>   1</c></rc>
    <rc><c>C </c><c>   1</c></rc>
    <rc><c>C </c><c>   1</c></rc>
    <rc><c>C </c><c>   1</c></rc>
    <rc><c>C </c><c>   1</c></rc>
    <rc><c>C </c><c>   1</c></rc>
    <rc><c>C </c><c>   1</c></rc>
    <rc><c>C </c><c>   1</c></rc>
    <rc><c>C </c><c>   1</c></rc>
    <rc><c>C </c><c>   1</c></rc>
    <rc><c>C </c><c>   1</c></rc>
    <rc><c>C </c><c>   1</c></rc>
    <rc><c>C </c><c>   1</c></rc>
    <rc><c>C </c><c>   1</c></rc>
    <rc><c>C </c><c>   1</c></rc>
    <rc><c>C </c><c>   1</c></rc>
    <rc><c>C </c><c>   1</c></rc>
    <rc><c>C </c><c>   1</c></rc>
    <rc><c>C </c><c>   1</c></rc>
    <rc><c>C </c><c>   1</c></rc>
    <rc><c>C </c><c>   1</c></rc>
    <rc><c>C </c><c>   1</c></rc>
    <rc><c>C </c><c>   1</c></rc>
    <rc><c>C </c><c>   1</c></rc>
    <rc><c>C </c><c>   1</c></rc>
    <rc><c>C </c><c>   1</c></rc>
    <rc><c>C </c><c>   1</c></rc>
    <rc><c>C </c><c>   1</c></rc>
    <rc><c>C </c><c>   1</c></rc>
    <rc><c>C </c><c>   1</c></rc>
    <rc><c>C </c><c>   1</c></rc>
    <rc><c>C </c><c>   1</c></rc>
    <rc><c>C </c><c>   1</c></rc>
    <rc><c>C </c><c>   1</c></rc>
    <rc><c>C </c><c>   1</c></rc>
    <rc><c>C </c><c>   1</c></rc>
    <rc><c>C </c><c>   1</c></rc>
    <rc><c>C </c><c>   1</c></rc>
    <rc><c>C </c><c>   1</c></rc>
    <rc><c>C </c><c>   1</c></rc>
    <rc><c>C </c><c>   1</c></rc>
    <rc><c>C </c><c>   1</c></rc>
    <rc><c>C </c><c>   1</c></rc>
    <rc><c>C </c><c>   1</c></rc>
    <rc><c>H </c><c>   2</c></rc>
    <rc><c>H </c><c>   2</c></rc>
    <rc><c>H </c><c>   2</c></rc>
    <rc><c>H </c><c>   2</c></rc>
    <rc><c>H </c><c>   2</c></rc>
    <rc><c>H </c><c>   2</c></rc>
    <rc><c>H </c><c>   2</c></rc>
    <rc><c>H </c><c>   2</c></rc>
    <rc><c>H </c><c>   2</c></rc>
    <rc><c>F </c><c>   3</c></rc>
    <rc><c>O </c><c>   4</c></rc>
   </set>
  </array>
  <array name="atomtypes" >
   <dimension dim="1">type</dimension>
   <field type="int">atomspertype</field>
   <field type="string">element</field>
   <field>mass</field>
   <field>valence</field>
   <field type="string">pseudopotential</field>
   <set>
    <rc><c>  88</c><c>C </c><c>     12.01100000</c><c>      4.00000000</c><c>  PAW_PBE C 08Apr2002                   </c></rc>
    <rc><c>   9</c><c>H </c><c>      1.00000000</c><c>      1.00000000</c><c>  PAW_PBE H 15Jun2001                   </c></rc>
    <rc><c>   1</c><c>F </c><c>     18.99800000</c><c>      7.00000000</c><c>  PAW_PBE F 08Apr2002                   </c></rc>
    <rc><c>   1</c><c>O </c><c>     16.00000000</c><c>      6.00000000</c><c>  PAW_PBE O 08Apr2002                   </c></rc>
   </set>
  </array>
 </atominfo>
 <structure name="initialpos" >
  <crystal>
   <varray name="basis" >
    <v>      17.27103806       0.00000000       0.00000000 </v>
    <v>      -8.63551903      14.95715771       0.00000000 </v>
    <v>       0.00000000       0.00000000      15.00000000 </v>
   </varray>
   <i name="volume">   3874.88459904 </i>
   <varray name="rec_basis" >
    <v>       0.05790040       0.03342881       0.00000000 </v>
    <v>       0.00000000       0.06685762       0.00000000 </v>
    <v>       0.00000000       0.00000000       0.06666667 </v>
   </varray>
  </crystal>
  <varray name="positions" >
   <v>       0.99895922       0.99966884       0.49883804 </v>
   <v>       0.99846480       0.14227966       0.50150030 </v>
   <v>       0.99832434       0.28518159       0.50343328 </v>
   <v>       0.99871813       0.42829147       0.50307944 </v>
   <v>       0.99942754       0.57142418       0.50115525 </v>
   <v>       0.00041676       0.71468686       0.49805152 </v>
   <v>       0.00023332       0.85769651       0.49677761 </v>
   <v>       0.14222373       0.00023395       0.50760586 </v>
   <v>       0.14134613       0.14253079       0.51030860 </v>
   <v>       0.14039301       0.28464359       0.51411302 </v>
   <v>       0.14058921       0.42783780       0.51436030 </v>
   <v>       0.14176850       0.57099046       0.51114348 </v>
   <v>       0.14243744       0.71421533       0.50845477 </v>
   <v>       0.14256015       0.85738880       0.50670032 </v>
   <v>       0.28503247       0.99999961       0.51014401 </v>
   <v>       0.28468881       0.14266779       0.51456114 </v>
   <v>       0.28385519       0.28621999       0.52420387 </v>
   <v>       0.28144370       0.42665021       0.53068439 </v>
   <v>       0.28440536       0.56987537       0.52392864 </v>
   <v>       0.28490872       0.71430475       0.51450170 </v>
   <v>       0.28506769       0.85734430       0.51019638 </v>
   <v>       0.42797014       0.00023979       0.50661337 </v>
   <v>       0.42778974       0.14301819       0.50865481 </v>
   <v>       0.42591645       0.28268575       0.51572855 </v>
   <v>       0.42612253       0.71581156       0.51411492 </v>
   <v>       0.42777496       0.85726055       0.50793883 </v>
   <v>       0.57050442       0.00027435       0.50029509 </v>
   <v>       0.57055393       0.14292908       0.50118711 </v>
   <v>       0.57142587       0.28671524       0.49948775 </v>
   <v>       0.57132658       0.85763420       0.49702918 </v>
   <v>       0.71329206       0.99983246       0.49185316 </v>
   <v>       0.71336686       0.14283339       0.49625791 </v>
   <v>       0.71338584       0.28582355       0.49460985 </v>
   <v>       0.71327957       0.42800420       0.48472183 </v>
   <v>       0.72006156       0.57368057       0.45707568 </v>
   <v>       0.72339214       0.71867291       0.45135059 </v>
   <v>       0.71259976       0.85724593       0.47898251 </v>
   <v>       0.85624984       0.99994397       0.48985344 </v>
   <v>       0.85587710       0.14258318       0.49539149 </v>
   <v>       0.85593104       0.28543203       0.49661583 </v>
   <v>       0.85653186       0.42849221       0.49340590 </v>
   <v>       0.85768031       0.57197040       0.48685956 </v>
   <v>       0.85960315       0.71561151       0.47997056 </v>
   <v>       0.85722891       0.85721053       0.48322884 </v>
   <v>       0.04635763       0.09486123       0.50359571 </v>
   <v>       0.04545277       0.23714905       0.50619177 </v>
   <v>       0.04561341       0.38034605       0.50681895 </v>
   <v>       0.04677802       0.52362051       0.50527810 </v>
   <v>       0.04732752       0.66676010       0.50304197 </v>
   <v>       0.04751336       0.80982963       0.50086190 </v>
   <v>       0.04710195       0.95252244       0.50146272 </v>
   <v>       0.18939628       0.09502448       0.51150347 </v>
   <v>       0.18835522       0.23746282       0.51608226 </v>
   <v>       0.18682020       0.37939100       0.51937768 </v>
   <v>       0.18877786       0.52304131       0.51633483 </v>
   <v>       0.18965158       0.66658856       0.51213060 </v>
   <v>       0.19003782       0.80969959       0.50902739 </v>
   <v>       0.18998881       0.95253183       0.50868073 </v>
   <v>       0.33262605       0.09546049       0.51151675 </v>
   <v>       0.33281327       0.23785665       0.51924506 </v>
   <v>       0.32734311       0.37843878       0.53472381 </v>
   <v>       0.32764569       0.52085075       0.53456455 </v>
   <v>       0.33313950       0.66724039       0.51860203 </v>
   <v>       0.33267130       0.80948611       0.51132490 </v>
   <v>       0.33257224       0.95246181       0.50919205 </v>
   <v>       0.47545749       0.09535647       0.50525947 </v>
   <v>       0.47475378       0.23831851       0.50823719 </v>
   <v>       0.47481601       0.80906183       0.50668321 </v>
   <v>       0.47543211       0.95262205       0.50471149 </v>
   <v>       0.61800257       0.09530952       0.49898583 </v>
   <v>       0.61829051       0.23830508       0.49810203 </v>
   <v>       0.62029082       0.37999214       0.49126471 </v>
   <v>       0.61965382       0.81304098       0.48662394 </v>
   <v>       0.61821250       0.95269586       0.49611824 </v>
   <v>       0.76090062       0.09522932       0.49426301 </v>
   <v>       0.76093715       0.23792354       0.49560738 </v>
   <v>       0.76133546       0.38091165       0.49048290 </v>
   <v>       0.76254092       0.52508684       0.47578614 </v>
   <v>       0.76611208       0.66786498       0.46111721 </v>
   <v>       0.76179470       0.80940251       0.47006217 </v>
   <v>       0.76108279       0.95250533       0.48619352 </v>
   <v>       0.90341845       0.09468957       0.49539405 </v>
   <v>       0.90330733       0.23769325       0.49817741 </v>
   <v>       0.90363431       0.38085637       0.49757091 </v>
   <v>       0.90449542       0.52402743       0.49441573 </v>
   <v>       0.90563602       0.66716039       0.48844473 </v>
   <v>       0.90547022       0.81028043       0.48649366 </v>
   <v>       0.90395680       0.95206541       0.49105465 </v>
   <v>       0.46180692       0.35528632       0.51781489 </v>
   <v>       0.39922455       0.41688426       0.54495404 </v>
   <v>       0.39950123       0.55398806       0.54562393 </v>
   <v>       0.64942664       0.53863924       0.44041180 </v>
   <v>       0.58451294       0.41689001       0.49156067 </v>
   <v>       0.58312084       0.74081687       0.48503176 </v>
   <v>       0.46219990       0.67929948       0.51537619 </v>
   <v>       0.54278329       0.56550033       0.49115925 </v>
   <v>       0.58692020       0.56139442       0.57797463 </v>
   <v>       0.63538674       0.67084615       0.42305442 </v>
   <v>       0.52934781       0.53389328       0.54788893 </v>
  </varray>
  <varray name="selective"  type="logical" >
   <v type="logical" >  T  T  T </v>
   <v type="logical" >  T  T  T </v>
   <v type="logical" >  T  T  T </v>
   <v type="logical" >  T  T  T </v>
   <v type="logical" >  T  T  T </v>
   <v type="logical" >  T  T  T </v>
   <v type="logical" >  T  T  T </v>
   <v type="logical" >  T  T  T </v>
   <v type="logical" >  T  T  T </v>
   <v type="logical" >  T  T  T </v>
   <v type="logical" >  T  T  T </v>
   <v type="logical" >  T  T  T </v>
   <v type="logical" >  T  T  T </v>
   <v type="logical" >  T  T  T </v>
   <v type="logical" >  T  T  T </v>
   <v type="logical" >  T  T  T </v>
   <v type="logical" >  T  T  T </v>
   <v type="logical" >  T  T  T </v>
   <v type="logical" >  T  T  T </v>
   <v type="logical" >  T  T  T </v>
   <v type="logical" >  T  T  T </v>
   <v type="logical" >  T  T  T </v>
   <v type="logical" >  T  T  T </v>
   <v type="logical" >  T  T  T </v>
   <v type="logical" >  T  T  T </v>
   <v type="logical" >  T  T  T </v>
   <v type="logical" >  T  T  T </v>
   <v type="logical" >  T  T  T </v>
   <v type="logical" >  T  T  T </v>
   <v type="logical" >  T  T  T </v>
   <v type="logical" >  T  T  T </v>
   <v type="logical" >  T  T  T </v>
   <v type="logical" >  T  T  T </v>
   <v type="logical" >  T  T  T </v>
   <v type="logical" >  T  T  T </v>
   <v type="logical" >  T  T  T </v>
   <v type="logical" >  T  T  T </v>
   <v type="logical" >  T  T  T </v>
   <v type="logical" >  T  T  T </v>
   <v type="logical" >  T  T  T </v>
   <v type="logical" >  T  T  T </v>
   <v type="logical" >  T  T  T </v>
   <v type="logical" >  T  T  T </v>
   <v type="logical" >  T  T  T </v>
   <v type="logical" >  T  T  T </v>
   <v type="logical" >  T  T  T </v>
   <v type="logical" >  T  T  T </v>
   <v type="logical" >  T  T  T </v>
   <v type="logical" >  T  T  T </v>
   <v type="logical" >  T  T  T </v>
   <v type="logical" >  T  T  T </v>
   <v type="logical" >  T  T  T </v>
   <v type="logical" >  T  T  T </v>
   <v type="logical" >  T  T  T </v>
   <v type="logical" >  T  T  T </v>
   <v type="logical" >  T  T  T </v>
   <v type="logical" >  T  T  T </v>
   <v type="logical" >  T  T  T </v>
   <v type="logical" >  T  T  T </v>
   <v type="logical" >  T  T  T </v>
   <v type="logical" >  T  T  T </v>
   <v type="logical" >  T  T  T </v>
   <v type="logical" >  T  T  T </v>
   <v type="logical" >  T  T  T </v>
   <v type="logical" >  T  T  T </v>
   <v type="logical" >  T  T  T </v>
   <v type="logical" >  T  T  T </v>
   <v type="logical" >  T  T  T </v>
   <v type="logical" >  T  T  T </v>
   <v type="logical" >  T  T  T </v>
   <v type="logical" >  T  T  T </v>
   <v type="logical" >  T  T  T </v>
   <v type="logical" >  T  T  T </v>
   <v type="logical" >  T  T  T </v>
   <v type="logical" >  T  T  T </v>
   <v type="logical" >  T  T  T </v>
   <v type="logical" >  T  T  T </v>
   <v type="logical" >  T  T  T </v>
   <v type="logical" >  T  T  T </v>
   <v type="logical" >  T  T  T </v>
   <v type="logical" >  T  T  T </v>
   <v type="logical" >  T  T  T </v>
   <v type="logical" >  T  T  T </v>
   <v type="logical" >  T  T  T </v>
   <v type="logical" >  T  T  T </v>
   <v type="logical" >  T  T  T </v>
   <v type="logical" >  T  T  T </v>
   <v type="logical" >  T  T  T </v>
   <v type="logical" >  T  T  T </v>
   <v type="logical" >  T  T  T </v>
   <v type="logical" >  T  T  T </v>
   <v type="logical" >  T  T  T </v>
   <v type="logical" >  T  T  T </v>
   <v type="logical" >  T  T  T </v>
   <v type="logical" >  T  T  T </v>
   <v type="logical" >  T  T  T </v>
   <v type="logical" >  T  T  T </v>
   <v type="logical" >  T  T  T </v>
   <v type="logical" >  T  T  T </v>
  </varray>
  <nose>
   <v>      -3.00000000       0.00000000       0.00010000       0.00010000 </v>
  </nose>
 </structure>
 <calculation>
  <scstep>
   <time name="dav">   81.19   81.75</time>
   <time name="total">   87.06   87.67</time>
   <energy>
    <i name="alphaZ">    181.20502200 </i>
    <i name="ewald">  37026.87018167 </i>
    <i name="hartreedc"> -47605.74153676 </i>
    <i name="XCdc">   1251.30046631 </i>
    <i name="pawpsdc">  10449.77820547 </i>
    <i name="pawaedc"> -10506.58854235 </i>
    <i name="eentropy">     -0.04395955 </i>
    <i name="bandstr">  -1618.38908193 </i>
    <i name="atom">  14153.45850732 </i>
    <i name="e_fr_energy">   3331.84926219 </i>
    <i name="e_wo_entrp">   3331.89322174 </i>
    <i name="e_0_energy">   3331.87124196 </i>
   </energy>
  </scstep>
  <scstep>
   <time name="dav">  106.66  107.41</time>
   <time name="total">  106.66  107.42</time>
   <energy>
    <i name="e_fr_energy">   -253.51157195 </i>
    <i name="e_wo_entrp">   -253.51102846 </i>
    <i name="e_0_energy">   -253.51130021 </i>
   </energy>
  </scstep>
  <scstep>
   <time name="dav">   90.58   91.32</time>
   <time name="total">   90.58   91.32</time>
   <energy>
    <i name="e_fr_energy">   -874.80082737 </i>
    <i name="e_wo_entrp">   -874.80079610 </i>
    <i name="e_0_energy">   -874.80081174 </i>
   </energy>
  </scstep>
  <scstep>
   <time name="dav">   91.01   91.68</time>
   <time name="total">   91.01   91.69</time>
   <energy>
    <i name="e_fr_energy">   -896.93350625 </i>
    <i name="e_wo_entrp">   -896.93346059 </i>
    <i name="e_0_energy">   -896.93348342 </i>
   </energy>
  </scstep>
  <scstep>
   <time name="dav">  100.60  101.33</time>
   <time name="total">  105.89  106.67</time>
   <energy>
    <i name="e_fr_energy">   -897.59213915 </i>
    <i name="e_wo_entrp">   -897.59209007 </i>
    <i name="e_0_energy">   -897.59211461 </i>
   </energy>
  </scstep>
  <scstep>
   <time name="dav">   88.92   89.67</time>
   <time name="total">  100.63  101.63</time>
   <energy>
    <i name="e_fr_energy">   -879.55943073 </i>
    <i name="e_wo_entrp">   -879.55826788 </i>
    <i name="e_0_energy">   -879.55884930 </i>
   </energy>
  </scstep>
  <scstep>
   <time name="dav">   87.51   88.09</time>
   <time name="total">   99.33  100.00</time>
   <energy>
    <i name="e_fr_energy">   -856.86625791 </i>
    <i name="e_wo_entrp">   -856.86625526 </i>
    <i name="e_0_energy">   -856.86625658 </i>
   </energy>
  </scstep>
  <scstep>
   <time name="dav">   89.73   90.42</time>
   <time name="total">  101.71  102.50</time>
   <energy>
    <i name="e_fr_energy">   -851.89847973 </i>
    <i name="e_wo_entrp">   -851.89847970 </i>
    <i name="e_0_energy">   -851.89847971 </i>
   </energy>
  </scstep>
  <scstep>
   <time name="dav">   87.38   87.98</time>
   <time name="total">   99.21   99.96</time>
   <energy>
    <i name="e_fr_energy">   -851.81509645 </i>
    <i name="e_wo_entrp">   -851.81509643 </i>
    <i name="e_0_energy">   -851.81509644 </i>
   </energy>
  </scstep>
  <scstep>
   <time name="dav">   86.55   87.14</time>
   <time name="total">   97.89   98.57</time>
   <energy>
    <i name="e_fr_energy">   -851.71832136 </i>
    <i name="e_wo_entrp">   -851.71832135 </i>
    <i name="e_0_energy">   -851.71832135 </i>
   </energy>
  </scstep>
  <scstep>
   <time name="dav">   84.98   85.59</time>
   <time name="total">   96.16   96.85</time>
   <energy>
    <i name="e_fr_energy">   -851.70498632 </i>
    <i name="e_wo_entrp">   -851.70498631 </i>
    <i name="e_0_energy">   -851.70498632 </i>
   </energy>
  </scstep>
  <scstep>
   <time name="dav">   90.05   90.81</time>
   <time name="total">  102.00  102.88</time>
   <energy>
    <i name="e_fr_energy">   -851.70364562 </i>
    <i name="e_wo_entrp">   -851.70364562 </i>
    <i name="e_0_energy">   -851.70364562 </i>
   </energy>
  </scstep>
  <scstep>
   <time name="dav">   90.98   91.64</time>
   <time name="total">  102.35  103.10</time>
   <energy>
    <i name="e_fr_energy">   -851.70354073 </i>
    <i name="e_wo_entrp">   -851.70354072 </i>
    <i name="e_0_energy">   -851.70354073 </i>
   </energy>
  </scstep>
  <scstep>
   <time name="dav">   88.82   89.54</time>
   <time name="total">   99.72  100.54</time>
   <energy>
    <i name="e_fr_energy">   -851.70355975 </i>
    <i name="e_wo_entrp">   -851.70355974 </i>
    <i name="e_0_energy">   -851.70355974 </i>
   </energy>
  </scstep>
  <scstep>
   <time name="dav">   85.33   85.97</time>
   <time name="total">   96.74   97.46</time>
   <energy>
    <i name="e_fr_energy">   -851.70360505 </i>
    <i name="e_wo_entrp">   -851.70360504 </i>
    <i name="e_0_energy">   -851.70360504 </i>
   </energy>
  </scstep>
  <scstep>
   <time name="dav">   83.49   84.07</time>
   <time name="total">   94.93   95.59</time>
   <energy>
    <i name="e_fr_energy">   -851.70362457 </i>
    <i name="e_wo_entrp">   -851.70362456 </i>
    <i name="e_0_energy">   -851.70362457 </i>
   </energy>
  </scstep>
  <scstep>
   <time name="dav">   90.88   91.48</time>
   <time name="total">  102.89  103.56</time>
   <energy>
    <i name="e_fr_energy">   -851.70362219 </i>
    <i name="e_wo_entrp">   -851.70362218 </i>
    <i name="e_0_energy">   -851.70362218 </i>
   </energy>
  </scstep>
  <scstep>
   <time name="dav">   81.10   81.61</time>
   <time name="total">   87.21   87.77</time>
   <energy>
    <i name="alphaZ">    181.20502200 </i>
    <i name="ewald">  37026.87018167 </i>
    <i name="hartreedc"> -49141.52139276 </i>
    <i name="XCdc">   1302.11662919 </i>
    <i name="pawpsdc">  37848.28664673 </i>
    <i name="pawaedc"> -37916.02805715 </i>
    <i name="eentropy">     -0.00000001 </i>
    <i name="bandstr">  -4306.09115975 </i>
    <i name="atom">  14153.45850732 </i>
    <i name="e_fr_energy">   -851.70362276 </i>
    <i name="e_wo_entrp">   -851.70362275 </i>
    <i name="e_0_energy">   -851.70362275 </i>
   </energy>
  </scstep>
  <structure>
   <crystal>
    <varray name="basis" >
     <v>      17.27103806       0.00000000       0.00000000 </v>
     <v>      -8.63551903      14.95715771       0.00000000 </v>
     <v>       0.00000000       0.00000000      15.00000000 </v>
    </varray>
    <i name="volume">   3874.88459904 </i>
    <varray name="rec_basis" >
     <v>       0.05790040       0.03342881       0.00000000 </v>
     <v>       0.00000000       0.06685762       0.00000000 </v>
     <v>       0.00000000       0.00000000       0.06666667 </v>
    </varray>
   </crystal>
   <varray name="positions" >
    <v>       0.99895922       0.99966884       0.49883804 </v>
    <v>       0.99846480       0.14227966       0.50150030 </v>
    <v>       0.99832434       0.28518159       0.50343328 </v>
    <v>       0.99871813       0.42829147       0.50307944 </v>
    <v>       0.99942754       0.57142418       0.50115525 </v>
    <v>       0.00041676       0.71468686       0.49805152 </v>
    <v>       0.00023332       0.85769651       0.49677761 </v>
    <v>       0.14222373       0.00023395       0.50760586 </v>
    <v>       0.14134613       0.14253079       0.51030860 </v>
    <v>       0.14039301       0.28464359       0.51411302 </v>
    <v>       0.14058921       0.42783780       0.51436030 </v>
    <v>       0.14176850       0.57099046       0.51114348 </v>
    <v>       0.14243744       0.71421533       0.50845477 </v>
    <v>       0.14256015       0.85738880       0.50670032 </v>
    <v>       0.28503247       0.99999961       0.51014401 </v>
    <v>       0.28468881       0.14266779       0.51456114 </v>
    <v>       0.28385519       0.28621999       0.52420387 </v>
    <v>       0.28144370       0.42665021       0.53068439 </v>
    <v>       0.28440536       0.56987537       0.52392864 </v>
    <v>       0.28490872       0.71430475       0.51450170 </v>
    <v>       0.28506769       0.85734430       0.51019638 </v>
    <v>       0.42797014       0.00023979       0.50661337 </v>
    <v>       0.42778974       0.14301819       0.50865481 </v>
    <v>       0.42591645       0.28268575       0.51572855 </v>
    <v>       0.42612253       0.71581156       0.51411492 </v>
    <v>       0.42777496       0.85726055       0.50793883 </v>
    <v>       0.57050442       0.00027435       0.50029509 </v>
    <v>       0.57055393       0.14292908       0.50118711 </v>
    <v>       0.57142587       0.28671524       0.49948775 </v>
    <v>       0.57132658       0.85763420       0.49702918 </v>
    <v>       0.71329206       0.99983246       0.49185316 </v>
    <v>       0.71336686       0.14283339       0.49625791 </v>
    <v>       0.71338584       0.28582355       0.49460985 </v>
    <v>       0.71327957       0.42800420       0.48472183 </v>
    <v>       0.72006156       0.57368057       0.45707568 </v>
    <v>       0.72339214       0.71867291       0.45135059 </v>
    <v>       0.71259976       0.85724593       0.47898251 </v>
    <v>       0.85624984       0.99994397       0.48985344 </v>
    <v>       0.85587710       0.14258318       0.49539149 </v>
    <v>       0.85593104       0.28543203       0.49661583 </v>
    <v>       0.85653186       0.42849221       0.49340590 </v>
    <v>       0.85768031       0.57197040       0.48685956 </v>
    <v>       0.85960315       0.71561151       0.47997056 </v>
    <v>       0.85722891       0.85721053       0.48322884 </v>
    <v>       0.04635763       0.09486123       0.50359571 </v>
    <v>       0.04545277       0.23714905       0.50619177 </v>
    <v>       0.04561341       0.38034605       0.50681895 </v>
    <v>       0.04677802       0.52362051       0.50527810 </v>
    <v>       0.04732752       0.66676010       0.50304197 </v>
    <v>       0.04751336       0.80982963       0.50086190 </v>
    <v>       0.04710195       0.95252244       0.50146272 </v>
    <v>       0.18939628       0.09502448       0.51150347 </v>
    <v>       0.18835522       0.23746282       0.51608226 </v>
    <v>       0.18682020       0.37939100       0.51937768 </v>
    <v>       0.18877786       0.52304131       0.51633483 </v>
    <v>       0.18965158       0.66658856       0.51213060 </v>
    <v>       0.19003782       0.80969959       0.50902739 </v>
    <v>       0.18998881       0.95253183       0.50868073 </v>
    <v>       0.33262605       0.09546049       0.51151675 </v>
    <v>       0.33281327       0.23785665       0.51924506 </v>
    <v>       0.32734311       0.37843878       0.53472381 </v>
    <v>       0.32764569       0.52085075       0.53456455 </v>
    <v>       0.33313950       0.66724039       0.51860203 </v>
    <v>       0.33267130       0.80948611       0.51132490 </v>
    <v>       0.33257224       0.95246181       0.50919205 </v>
    <v>       0.47545749       0.09535647       0.50525947 </v>
    <v>       0.47475378       0.23831851       0.50823719 </v>
    <v>       0.47481601       0.80906183       0.50668321 </v>
    <v>       0.47543211       0.95262205       0.50471149 </v>
    <v>       0.61800257       0.09530952       0.49898583 </v>
    <v>       0.61829051       0.23830508       0.49810203 </v>
    <v>       0.62029082       0.37999214       0.49126471 </v>
    <v>       0.61965382       0.81304098       0.48662394 </v>
    <v>       0.61821250       0.95269586       0.49611824 </v>
    <v>       0.76090062       0.09522932       0.49426301 </v>
    <v>       0.76093715       0.23792354       0.49560738 </v>
    <v>       0.76133546       0.38091165       0.49048290 </v>
    <v>       0.76254092       0.52508684       0.47578614 </v>
    <v>       0.76611208       0.66786498       0.46111721 </v>
    <v>       0.76179470       0.80940251       0.47006217 </v>
    <v>       0.76108279       0.95250533       0.48619352 </v>
    <v>       0.90341845       0.09468957       0.49539405 </v>
    <v>       0.90330733       0.23769325       0.49817741 </v>
    <v>       0.90363431       0.38085637       0.49757091 </v>
    <v>       0.90449542       0.52402743       0.49441573 </v>
    <v>       0.90563602       0.66716039       0.48844473 </v>
    <v>       0.90547022       0.81028043       0.48649366 </v>
    <v>       0.90395680       0.95206541       0.49105465 </v>
    <v>       0.46180692       0.35528632       0.51781489 </v>
    <v>       0.39922455       0.41688426       0.54495404 </v>
    <v>       0.39950123       0.55398806       0.54562393 </v>
    <v>       0.64942664       0.53863924       0.44041180 </v>
    <v>       0.58451294       0.41689001       0.49156067 </v>
    <v>       0.58312084       0.74081687       0.48503176 </v>
    <v>       0.46219990       0.67929948       0.51537619 </v>
    <v>       0.54278329       0.56550033       0.49115925 </v>
    <v>       0.58692020       0.56139442       0.57797463 </v>
    <v>       0.63538674       0.67084615       0.42305442 </v>
    <v>       0.52934781       0.53389328       0.54788893 </v>
   </varray>
  </structure>
  <varray name="forces" >
   <v>      -0.00027052      -0.00046380      -0.00036538 </v>
   <v>       0.00046251      -0.00088510       0.00266892 </v>
   <v>       0.00047887      -0.00059860       0.00310001 </v>
   <v>       0.00069971      -0.00162291       0.00307667 </v>
   <v>      -0.00092932      -0.00034176       0.00118941 </v>
   <v>      -0.00120661       0.00017534      -0.00170369 </v>
   <v>      -0.00027031       0.00033415      -0.00240634 </v>
   <v>      -0.00033952       0.00010664      -0.00109447 </v>
   <v>      -0.00085474      -0.00066455       0.00071697 </v>
   <v>       0.00176705      -0.00186072       0.00199144 </v>
   <v>       0.00066538      -0.00200828       0.00382559 </v>
   <v>      -0.00033611      -0.00143081       0.00142192 </v>
   <v>      -0.00154933      -0.00018034       0.00055189 </v>
   <v>      -0.00093515       0.00059835      -0.00113042 </v>
   <v>      -0.00138768      -0.00128052      -0.00109619 </v>
   <v>      -0.00004415      -0.00106585      -0.00233562 </v>
   <v>      -0.00074006      -0.00013882      -0.00290111 </v>
   <v>       0.00020121      -0.00306662      -0.00539620 </v>
   <v>       0.00475009      -0.00533354      -0.00022821 </v>
   <v>      -0.00088327       0.00030328      -0.00019810 </v>
   <v>      -0.00125040       0.00084608      -0.00026421 </v>
   <v>      -0.00119620      -0.00002580      -0.00119940 </v>
   <v>      -0.00111198      -0.00160346      -0.00246061 </v>
   <v>      -0.00107848      -0.00131506      -0.00374757 </v>
   <v>       0.00143817      -0.00189044      -0.00152552 </v>
   <v>       0.00053975       0.00010940      -0.00134137 </v>
   <v>      -0.00229276      -0.00183532      -0.00032755 </v>
   <v>      -0.00119134      -0.00093039      -0.00163351 </v>
   <v>      -0.00031189      -0.00070689      -0.00315969 </v>
   <v>      -0.00051069      -0.00107749      -0.00350915 </v>
   <v>      -0.00018139      -0.00320264      -0.00045787 </v>
   <v>      -0.00065749      -0.00111520       0.00002233 </v>
   <v>      -0.00190394      -0.00301222      -0.00095713 </v>
   <v>      -0.00052848      -0.00007866      -0.00235964 </v>
   <v>      -0.00086466      -0.00012532      -0.00338109 </v>
   <v>      -0.00186417       0.00066069      -0.00255632 </v>
   <v>      -0.00178125       0.00052950      -0.00321756 </v>
   <v>      -0.00052285      -0.00036188      -0.00028839 </v>
   <v>      -0.00066364      -0.00159733       0.00217611 </v>
   <v>      -0.00042328      -0.00118351       0.00165072 </v>
   <v>      -0.00084245      -0.00139274       0.00058190 </v>
   <v>      -0.00098088       0.00018661      -0.00337219 </v>
   <v>      -0.00186783       0.00235083      -0.00419636 </v>
   <v>      -0.00210297      -0.00016153      -0.00284598 </v>
   <v>      -0.00006446      -0.00000665      -0.00018376 </v>
   <v>      -0.00117334      -0.00010957       0.00385542 </v>
   <v>      -0.00096214       0.00043528       0.00508511 </v>
   <v>       0.00031960      -0.00002285       0.00198242 </v>
   <v>      -0.00063283      -0.00030720       0.00022964 </v>
   <v>      -0.00079584      -0.00101918      -0.00205233 </v>
   <v>       0.00019969      -0.00203415      -0.00035635 </v>
   <v>      -0.00076231      -0.00015046      -0.00104324 </v>
   <v>      -0.00052516      -0.00036952       0.00121020 </v>
   <v>      -0.00434380      -0.00120310       0.00078961 </v>
   <v>      -0.00317321       0.00087640       0.00197126 </v>
   <v>      -0.00031973      -0.00078808       0.00044142 </v>
   <v>      -0.00009715      -0.00110370      -0.00014346 </v>
   <v>      -0.00076516      -0.00101176      -0.00139458 </v>
   <v>      -0.00073591       0.00213423      -0.00194816 </v>
   <v>       0.00094486       0.00075219      -0.00339192 </v>
   <v>       0.00177755       0.00145617      -0.00735083 </v>
   <v>      -0.00488204       0.00096801      -0.00534647 </v>
   <v>      -0.00281017       0.00143526      -0.00232242 </v>
   <v>      -0.00191369      -0.00257822      -0.00076118 </v>
   <v>       0.00128542      -0.00165584      -0.00086320 </v>
   <v>      -0.00036094      -0.00022309      -0.00164461 </v>
   <v>      -0.00161438      -0.00000981      -0.00308764 </v>
   <v>      -0.00193938      -0.00064942      -0.00239778 </v>
   <v>      -0.00068879      -0.00107172      -0.00147822 </v>
   <v>       0.00006502       0.00014016      -0.00059312 </v>
   <v>      -0.00026751       0.00064201      -0.00244153 </v>
   <v>      -0.00039071       0.00026189      -0.00279134 </v>
   <v>      -0.00133398       0.00024425      -0.00221918 </v>
   <v>       0.00030250      -0.00184847      -0.00024269 </v>
   <v>      -0.00165017       0.00239424       0.00019832 </v>
   <v>      -0.00051984      -0.00018618       0.00047561 </v>
   <v>      -0.00054463       0.00072181      -0.00162118 </v>
   <v>      -0.00258415      -0.00049044      -0.00365408 </v>
   <v>      -0.00035227      -0.00079166      -0.00362003 </v>
   <v>       0.00298030      -0.00002832      -0.00119772 </v>
   <v>      -0.00121340       0.00018277      -0.00227219 </v>
   <v>      -0.00232915       0.00045823       0.00032158 </v>
   <v>      -0.00062734      -0.00039441       0.00327950 </v>
   <v>      -0.00063378      -0.00049189       0.00297136 </v>
   <v>      -0.00072874      -0.00067408      -0.00044647 </v>
   <v>      -0.00218589      -0.00083708      -0.00335334 </v>
   <v>      -0.00070124      -0.00153230      -0.00363708 </v>
   <v>      -0.00093498      -0.00044368      -0.00135466 </v>
   <v>      -0.00033489      -0.00022525      -0.00379939 </v>
   <v>       0.00047380       0.00163458      -0.01294581 </v>
   <v>       0.00133590      -0.00024148      -0.00680131 </v>
   <v>      -0.00072332       0.00033438      -0.00143473 </v>
   <v>      -0.00036771      -0.00069293      -0.00460753 </v>
   <v>      -0.00125904       0.00039874      -0.00620044 </v>
   <v>      -0.00160599       0.00013195      -0.00023259 </v>
   <v>       0.03701576       0.04858054       0.02791909 </v>
   <v>       0.02189762      -0.01562599       0.06610218 </v>
   <v>      -0.00051455      -0.00037203      -0.00033199 </v>
   <v>       0.00463874       0.01136466       0.02341477 </v>
  </varray>
  <varray name="stress" >
   <v>       2.42420790       0.76442628      -0.00647266 </v>
   <v>       0.76442478       0.94832466      -0.01994941 </v>
   <v>      -0.00647230      -0.01994804      -0.25594440 </v>
  </varray>
  <energy>
   <i name="e_fr_energy">   -859.59485075 </i>
   <i name="e_wo_entrp">   -859.59485074 </i>
   <i name="e_0_energy">   -859.59485075 </i>
  </energy>
  <time name="totalsc"> 1955.55 1970.02</time>
 </calculation>
 <calculation>
  <scstep>
   <time name="dav">   80.39   80.94</time>
   <time name="total">   92.13   92.75</time>
   <energy>
    <i name="alphaZ">    181.20502200 </i>
    <i name="ewald">  37026.83737362 </i>
    <i name="hartreedc"> -49141.46698611 </i>
    <i name="XCdc">   1302.11611185 </i>
    <i name="pawpsdc">  37848.10853868 </i>
    <i name="pawaedc"> -37915.84947809 </i>
    <i name="eentropy">     -0.00000001 </i>
    <i name="bandstr">  -4306.11273910 </i>
    <i name="atom">  14153.45850732 </i>
    <i name="e_fr_energy">   -851.70364984 </i>
    <i name="e_wo_entrp">   -851.70364983 </i>
    <i name="e_0_energy">   -851.70364983 </i>
   </energy>
  </scstep>
  <scstep>
   <time name="dav">   78.06   78.61</time>
   <time name="total">   83.74   84.34</time>
   <energy>
    <i name="alphaZ">    181.20502200 </i>
    <i name="ewald">  37026.83737362 </i>
    <i name="hartreedc"> -49141.46411466 </i>
    <i name="XCdc">   1302.11609421 </i>
    <i name="pawpsdc">  37848.05393965 </i>
    <i name="pawaedc"> -37915.79485596 </i>
    <i name="eentropy">     -0.00000001 </i>
    <i name="bandstr">  -4306.11561627 </i>
    <i name="atom">  14153.45850732 </i>
    <i name="e_fr_energy">   -851.70365010 </i>
    <i name="e_wo_entrp">   -851.70365009 </i>
    <i name="e_0_energy">   -851.70365009 </i>
   </energy>
  </scstep>
  <structure>
   <crystal>
    <varray name="basis" >
     <v>      17.27103806       0.00000000       0.00000000 </v>
     <v>      -8.63551903      14.95715771       0.00000000 </v>
     <v>       0.00000000       0.00000000      15.00000000 </v>
    </varray>
    <i name="volume">   3874.88459904 </i>
    <varray name="rec_basis" >
     <v>       0.05790040       0.03342881       0.00000000 </v>
     <v>       0.00000000       0.06685762       0.00000000 </v>
     <v>       0.00000000       0.00000000       0.06666667 </v>
    </varray>
   </crystal>
   <varray name="positions" >
    <v>       0.99895947       0.99966886       0.49883810 </v>
    <v>       0.99846527       0.14227936       0.50150263 </v>
    <v>       0.99832488       0.28518146       0.50343587 </v>
    <v>       0.99871850       0.42829066       0.50308163 </v>
    <v>       0.99942745       0.57142424       0.50115586 </v>
    <v>       0.00041673       0.71468729       0.49805007 </v>
    <v>       0.00023387       0.85769705       0.49677593 </v>
    <v>       0.14222406       0.00023427       0.50760600 </v>
    <v>       0.14134583       0.14253055       0.51031053 </v>
    <v>       0.14039378       0.28464253       0.51411629 </v>
    <v>       0.14058933       0.42783668       0.51436443 </v>
    <v>       0.14176833       0.57098976       0.51114521 </v>
    <v>       0.14243702       0.71421547       0.50845549 </v>
    <v>       0.14256035       0.85738949       0.50669995 </v>
    <v>       0.28503174       0.99999903       0.51014422 </v>
    <v>       0.28468884       0.14266729       0.51456161 </v>
    <v>       0.28385487       0.28621986       0.52420585 </v>
    <v>       0.28144280       0.42664818       0.53068562 </v>
    <v>       0.28440667       0.56987200       0.52393122 </v>
    <v>       0.28490881       0.71430517       0.51450266 </v>
    <v>       0.28506778       0.85734512       0.51019681 </v>
    <v>       0.42796995       0.00024006       0.50661318 </v>
    <v>       0.42778905       0.14301745       0.50865425 </v>
    <v>       0.42591578       0.28268518       0.51572812 </v>
    <v>       0.42612321       0.71581048       0.51411507 </v>
    <v>       0.42777584       0.85726086       0.50793850 </v>
    <v>       0.57050299       0.00027341       0.50029516 </v>
    <v>       0.57055341       0.14292879       0.50118635 </v>
    <v>       0.57142588       0.28671516       0.49948599 </v>
    <v>       0.57132642       0.85763370       0.49702698 </v>
    <v>       0.71329138       0.99983058       0.49185282 </v>
    <v>       0.71336659       0.14283294       0.49625793 </v>
    <v>       0.71338419       0.28582185       0.49460903 </v>
    <v>       0.71327970       0.42800448       0.48471970 </v>
    <v>       0.72006178       0.57368090       0.45707221 </v>
    <v>       0.72339229       0.71867398       0.45134804 </v>
    <v>       0.71259945       0.85724657       0.47898006 </v>
    <v>       0.85624996       0.99994403       0.48985316 </v>
    <v>       0.85587667       0.14258238       0.49539292 </v>
    <v>       0.85593089       0.28543152       0.49661683 </v>
    <v>       0.85653143       0.42849158       0.49340581 </v>
    <v>       0.85768042       0.57197084       0.48685653 </v>
    <v>       0.85960358       0.71561347       0.47996692 </v>
    <v>       0.85722834       0.85721085       0.48322656 </v>
    <v>       0.04635809       0.09486151       0.50359632 </v>
    <v>       0.04545250       0.23714924       0.50619528 </v>
    <v>       0.04561346       0.38034659       0.50682302 </v>
    <v>       0.04677873       0.52362078       0.50527960 </v>
    <v>       0.04732763       0.66676018       0.50304207 </v>
    <v>       0.04751314       0.80982925       0.50086053 </v>
    <v>       0.04710191       0.95252136       0.50146283 </v>
    <v>       0.18939621       0.09502458       0.51150434 </v>
    <v>       0.18835512       0.23746271       0.51608533 </v>
    <v>       0.18681759       0.37939036       0.51938080 </v>
    <v>       0.18877675       0.52304213       0.51633775 </v>
    <v>       0.18965164       0.66658829       0.51213169 </v>
    <v>       0.19003793       0.80969912       0.50902775 </v>
    <v>       0.18998855       0.95253143       0.50868057 </v>
    <v>       0.33262682       0.09546220       0.51151683 </v>
    <v>       0.33281444       0.23785733       0.51924572 </v>
    <v>       0.32734428       0.37843940       0.53472521 </v>
    <v>       0.32764318       0.52085151       0.53456585 </v>
    <v>       0.33313882       0.66724155       0.51860221 </v>
    <v>       0.33266985       0.80948462       0.51132512 </v>
    <v>       0.33257295       0.95246098       0.50919217 </v>
    <v>       0.47545770       0.09535663       0.50525901 </v>
    <v>       0.47475328       0.23831887       0.50823627 </v>
    <v>       0.47481517       0.80906158       0.50668218 </v>
    <v>       0.47543187       0.95262160       0.50471095 </v>
    <v>       0.61800314       0.09530991       0.49898562 </v>
    <v>       0.61829100       0.23830586       0.49810054 </v>
    <v>       0.62029113       0.37999273       0.49126277 </v>
    <v>       0.61965364       0.81304140       0.48662229 </v>
    <v>       0.61821254       0.95269487       0.49611821 </v>
    <v>       0.76090094       0.09523120       0.49426309 </v>
    <v>       0.76093725       0.23792372       0.49560757 </v>
    <v>       0.76133586       0.38091245       0.49048137 </v>
    <v>       0.76253987       0.52508685       0.47578278 </v>
    <v>       0.76611243       0.66786488       0.46111368 </v>
    <v>       0.76179718       0.80940297       0.47006084 </v>
    <v>       0.76108267       0.95250573       0.48619184 </v>
    <v>       0.90341776       0.09469017       0.49539434 </v>
    <v>       0.90330732       0.23769326       0.49817969 </v>
    <v>       0.90363428       0.38085633       0.49757269 </v>
    <v>       0.90449535       0.52402728       0.49441489 </v>
    <v>       0.90563514       0.66716016       0.48844176 </v>
    <v>       0.90546996       0.81027976       0.48649076 </v>
    <v>       0.90395673       0.95206548       0.49105366 </v>
    <v>       0.46180705       0.35528649       0.51781437 </v>
    <v>       0.39922447       0.41688421       0.54495453 </v>
    <v>       0.39950172       0.55398816       0.54562547 </v>
    <v>       0.64942702       0.53863980       0.44040993 </v>
    <v>       0.58451302       0.41689005       0.49155757 </v>
    <v>       0.58312069       0.74081740       0.48502730 </v>
    <v>       0.46219945       0.67929968       0.51537724 </v>
    <v>       0.54279093       0.56550767       0.49116484 </v>
    <v>       0.58691906       0.56139143       0.57798265 </v>
    <v>       0.63538725       0.67084674       0.42305352 </v>
    <v>       0.52934844       0.53389482       0.54788818 </v>
   </varray>
  </structure>
  <varray name="forces" >
   <v>      -0.00031798      -0.00089319      -0.00038710 </v>
   <v>      -0.00069759      -0.00055539       0.00261003 </v>
   <v>      -0.00042437      -0.00034199       0.00350232 </v>
   <v>      -0.00013227      -0.00075209       0.00334579 </v>
   <v>      -0.00064652      -0.00055701       0.00121175 </v>
   <v>      -0.00132356      -0.00067772      -0.00175970 </v>
   <v>      -0.00052671      -0.00083181      -0.00243995 </v>
   <v>      -0.00053189      -0.00042408      -0.00100324 </v>
   <v>      -0.00054807      -0.00056735       0.00082143 </v>
   <v>      -0.00282087      -0.00146991       0.00113439 </v>
   <v>      -0.00138229      -0.00045997       0.00390527 </v>
   <v>      -0.00056311      -0.00056910       0.00161941 </v>
   <v>      -0.00066934      -0.00074307       0.00065354 </v>
   <v>      -0.00071741      -0.00059373      -0.00109199 </v>
   <v>      -0.00052810      -0.00071217      -0.00105461 </v>
   <v>      -0.00036461      -0.00008980      -0.00218277 </v>
   <v>       0.00005154      -0.00019820      -0.00274405 </v>
   <v>       0.00058727      -0.00002734      -0.00447445 </v>
   <v>      -0.00341210       0.00157597      -0.00078879 </v>
   <v>      -0.00142127      -0.00042644      -0.00020008 </v>
   <v>      -0.00060399      -0.00071261      -0.00019607 </v>
   <v>      -0.00054530      -0.00040738      -0.00117229 </v>
   <v>      -0.00075735      -0.00051698      -0.00240691 </v>
   <v>      -0.00051047      -0.00023451      -0.00367638 </v>
   <v>      -0.00166763       0.00078276      -0.00075693 </v>
   <v>      -0.00081678      -0.00100459      -0.00128962 </v>
   <v>       0.00029125      -0.00016348      -0.00195387 </v>
   <v>      -0.00064090      -0.00044741      -0.00162921 </v>
   <v>      -0.00077501      -0.00023449      -0.00312469 </v>
   <v>      -0.00131685      -0.00103959      -0.00316835 </v>
   <v>      -0.00065883      -0.00099477      -0.00040208 </v>
   <v>      -0.00065915      -0.00029790       0.00009516 </v>
   <v>      -0.00093203      -0.00114081      -0.00103834 </v>
   <v>      -0.00054647       0.00007206      -0.00248453 </v>
   <v>      -0.00088654      -0.00055633      -0.00347291 </v>
   <v>      -0.00023280       0.00010428      -0.00247595 </v>
   <v>      -0.00085217       0.00019813      -0.00312952 </v>
   <v>      -0.00080217      -0.00006988      -0.00039491 </v>
   <v>      -0.00113650      -0.00044591       0.00220056 </v>
   <v>      -0.00053770      -0.00074913       0.00191241 </v>
   <v>      -0.00064372      -0.00094817       0.00061719 </v>
   <v>      -0.00117888      -0.00038927      -0.00336918 </v>
   <v>      -0.00102079       0.00073851      -0.00425810 </v>
   <v>      -0.00031611      -0.00012076      -0.00264850 </v>
   <v>      -0.00013752      -0.00061108       0.00011422 </v>
   <v>      -0.00005635      -0.00088193       0.00399439 </v>
   <v>      -0.00026250      -0.00067679       0.00513695 </v>
   <v>      -0.00033448      -0.00079599       0.00210861 </v>
   <v>      -0.00114570      -0.00036768       0.00025230 </v>
   <v>      -0.00073538      -0.00038845      -0.00201798 </v>
   <v>      -0.00133109       0.00068466      -0.00171425 </v>
   <v>      -0.00062847      -0.00036822      -0.00093446 </v>
   <v>       0.00001788      -0.00068820       0.00133324 </v>
   <v>       0.00128490      -0.00184703       0.00102730 </v>
   <v>       0.00144566      -0.00234547       0.00094422 </v>
   <v>      -0.00086003      -0.00062329       0.00056552 </v>
   <v>      -0.00077462      -0.00025316      -0.00008795 </v>
   <v>      -0.00069026      -0.00050165      -0.00130173 </v>
   <v>      -0.00076768      -0.00010560      -0.00191839 </v>
   <v>      -0.00050425      -0.00029869      -0.00325949 </v>
   <v>       0.00074662       0.00070304      -0.00740811 </v>
   <v>       0.00178371      -0.00233177      -0.00484328 </v>
   <v>      -0.00034420      -0.00041623      -0.00185729 </v>
   <v>      -0.00113526      -0.00080767      -0.00069131 </v>
   <v>      -0.00015193      -0.00059079      -0.00077549 </v>
   <v>      -0.00073456      -0.00065733      -0.00160327 </v>
   <v>      -0.00080769      -0.00076394      -0.00315571 </v>
   <v>      -0.00072325      -0.00084779      -0.00243932 </v>
   <v>      -0.00098090      -0.00076862      -0.00136377 </v>
   <v>      -0.00073158      -0.00088190      -0.00050738 </v>
   <v>      -0.00083792      -0.00071426      -0.00232587 </v>
   <v>      -0.00042436      -0.00047043      -0.00287457 </v>
   <v>      -0.00085037      -0.00022293      -0.00265026 </v>
   <v>      -0.00033329       0.00246916      -0.00129437 </v>
   <v>      -0.00147978      -0.00205412       0.00118119 </v>
   <v>      -0.00081021      -0.00082048       0.00051608 </v>
   <v>      -0.00072375      -0.00070308      -0.00147799 </v>
   <v>      -0.00145521      -0.00062592      -0.00353622 </v>
   <v>      -0.00125748      -0.00003039      -0.00392345 </v>
   <v>      -0.00288068      -0.00002327      -0.00195482 </v>
   <v>      -0.00080148      -0.00030567      -0.00218838 </v>
   <v>      -0.00094182      -0.00045813       0.00065921 </v>
   <v>      -0.00020597      -0.00078035       0.00332569 </v>
   <v>      -0.00040156      -0.00096491       0.00296853 </v>
   <v>      -0.00087705      -0.00056889      -0.00045039 </v>
   <v>      -0.00160519      -0.00005940      -0.00334340 </v>
   <v>      -0.00074269       0.00002986      -0.00357489 </v>
   <v>      -0.00075821      -0.00024709      -0.00126624 </v>
   <v>      -0.00034592      -0.00065039      -0.00374212 </v>
   <v>       0.00095339       0.00191612      -0.01281566 </v>
   <v>       0.00003369      -0.00081466      -0.00699720 </v>
   <v>      -0.00097365       0.00009968      -0.00146119 </v>
   <v>      -0.00050387      -0.00067323      -0.00452523 </v>
   <v>      -0.00128145       0.00023388      -0.00604046 </v>
   <v>      -0.00066666      -0.00055429      -0.00015089 </v>
   <v>       0.03692835       0.04939809       0.02617221 </v>
   <v>       0.02052260      -0.01639439       0.06523769 </v>
   <v>      -0.00223129      -0.00108819      -0.00169318 </v>
   <v>       0.00764689       0.01040191       0.02617445 </v>
  </varray>
  <varray name="stress" >
   <v>       2.43094884       0.76200699      -0.00869093 </v>
   <v>       0.76200548       0.95652224      -0.02099748 </v>
   <v>      -0.00869056      -0.02099611      -0.24807609 </v>
  </varray>
  <energy>
   <i name="e_fr_energy">   -859.59487433 </i>
   <i name="e_wo_entrp">   -859.59487432 </i>
   <i name="e_0_energy">   -859.59487433 </i>
  </energy>
  <time name="totalsc">  526.41  529.66</time>
 </calculation>
 <calculation>
  <scstep>
   <time name="dav">   79.92   80.51</time>
   <time name="total">   91.83   92.54</time>
   <energy>
    <i name="alphaZ">    181.20502200 </i>
    <i name="ewald">  37026.74864987 </i>
    <i name="hartreedc"> -49141.37553922 </i>
    <i name="XCdc">   1302.11597022 </i>
    <i name="pawpsdc">  37848.00806282 </i>
    <i name="pawaedc"> -37915.74902082 </i>
    <i name="eentropy">     -0.00000001 </i>
    <i name="bandstr">  -4306.11535674 </i>
    <i name="atom">  14153.45850732 </i>
    <i name="e_fr_energy">   -851.70370454 </i>
    <i name="e_wo_entrp">   -851.70370453 </i>
    <i name="e_0_energy">   -851.70370454 </i>
[...]
       <r>   -17.2150     8.1629    34.8188 </r>
       <r>   -17.0902    10.7716    36.1631 </r>
       <r>   -16.9654     4.3134    36.7014 </r>
       <r>   -16.8406     8.2688    37.7334 </r>
       <r>   -16.7158     9.1774    38.8788 </r>
       <r>   -16.5910     3.1890    39.2768 </r>
       <r>   -16.4662     5.8460    40.0064 </r>
       <r>   -16.3414    10.3220    41.2946 </r>
       <r>   -16.2166    13.7331    43.0085 </r>
       <r>   -16.0918     7.3029    43.9199 </r>
       <r>   -15.9670     1.7966    44.1442 </r>
       <r>   -15.8422     3.0284    44.5221 </r>
       <r>   -15.7174     2.1817    44.7944 </r>
       <r>   -15.5926     3.5583    45.2385 </r>
       <r>   -15.4678     1.8214    45.4658 </r>
       <r>   -15.3430     7.8138    46.4410 </r>
       <r>   -15.2182     9.2063    47.5900 </r>
       <r>   -15.0934     6.6689    48.4223 </r>
       <r>   -14.9686     6.3575    49.2157 </r>
       <r>   -14.8438    16.4373    51.2672 </r>
       <r>   -14.7190     5.9416    52.0087 </r>
       <r>   -14.5941     3.5213    52.4482 </r>
       <r>   -14.4693    12.4295    53.9994 </r>
       <r>   -14.3445     9.7140    55.2117 </r>
       <r>   -14.2197     8.5577    56.2798 </r>
       <r>   -14.0949    10.4031    57.5781 </r>
       <r>   -13.9701     9.3853    58.7494 </r>
       <r>   -13.8453     6.1062    59.5115 </r>
       <r>   -13.7205     3.7699    59.9820 </r>
       <r>   -13.5957     5.7135    60.6951 </r>
       <r>   -13.4709     9.4826    61.8785 </r>
       <r>   -13.3461     7.4630    62.8100 </r>
       <r>   -13.2213     8.5203    63.8733 </r>
       <r>   -13.0965     6.3209    64.6622 </r>
       <r>   -12.9717     6.1377    65.4282 </r>
       <r>   -12.8469     2.9063    65.7909 </r>
       <r>   -12.7221     9.2392    66.9440 </r>
       <r>   -12.5973     5.8321    67.6719 </r>
       <r>   -12.4725    11.4689    69.1032 </r>
       <r>   -12.3477    15.0128    70.9769 </r>
       <r>   -12.2229    10.1650    72.2455 </r>
       <r>   -12.0981     6.6129    73.0708 </r>
       <r>   -11.9733     5.6676    73.7781 </r>
       <r>   -11.8485     6.5252    74.5925 </r>
       <r>   -11.7237    11.6630    76.0481 </r>
       <r>   -11.5989     9.4751    77.2306 </r>
       <r>   -11.4741     8.5940    78.3032 </r>
       <r>   -11.3493    12.9415    79.9183 </r>
       <r>   -11.2245     9.8209    81.1440 </r>
       <r>   -11.0997    14.8273    82.9945 </r>
       <r>   -10.9748     6.8309    83.8470 </r>
       <r>   -10.8500    10.0880    85.1060 </r>
       <r>   -10.7252    14.2260    86.8815 </r>
       <r>   -10.6004     6.3994    87.6802 </r>
       <r>   -10.4756     4.7429    88.2721 </r>
       <r>   -10.3508     7.6680    89.2291 </r>
       <r>   -10.2260    12.7748    90.8234 </r>
       <r>   -10.1012    11.2302    92.2250 </r>
       <r>    -9.9764    17.0586    94.3540 </r>
       <r>    -9.8516    17.7563    96.5700 </r>
       <r>    -9.7268    18.5609    98.8865 </r>
       <r>    -9.6020    16.9531   101.0023 </r>
       <r>    -9.4772     9.8495   102.2315 </r>
       <r>    -9.3524    19.6268   104.6810 </r>
       <r>    -9.2276    15.7553   106.6473 </r>
       <r>    -9.1028    16.8598   108.7515 </r>
       <r>    -8.9780    21.6168   111.4494 </r>
       <r>    -8.8532    25.3293   114.6105 </r>
       <r>    -8.7284    30.6605   118.4371 </r>
       <r>    -8.6036    22.5739   121.2544 </r>
       <r>    -8.4788    17.3478   123.4195 </r>
       <r>    -8.3540    19.4831   125.8510 </r>
       <r>    -8.2292    19.4071   128.2731 </r>
       <r>    -8.1044    19.4784   130.7041 </r>
       <r>    -7.9796    24.3314   133.7407 </r>
       <r>    -7.8548    16.1726   135.7591 </r>
       <r>    -7.7300    20.2860   138.2909 </r>
       <r>    -7.6052    15.3847   140.2109 </r>
       <r>    -7.4803    13.2329   141.8624 </r>
       <r>    -7.3555     6.0943   142.6230 </r>
       <r>    -7.2307    16.0650   144.6280 </r>
       <r>    -7.1059    23.3042   147.5364 </r>
       <r>    -6.9811    19.3463   149.9509 </r>
       <r>    -6.8563    14.8394   151.8029 </r>
       <r>    -6.7315    11.2800   153.2107 </r>
       <r>    -6.6067     9.8002   154.4338 </r>
       <r>    -6.4819    11.6946   155.8934 </r>
       <r>    -6.3571    12.6768   157.4755 </r>
       <r>    -6.2323    12.1393   158.9905 </r>
       <r>    -6.1075    17.6453   161.1927 </r>
       <r>    -5.9827    22.4331   163.9924 </r>
       <r>    -5.8579    11.4437   165.4206 </r>
       <r>    -5.7331    15.7953   167.3919 </r>
       <r>    -5.6083    14.6121   169.2156 </r>
       <r>    -5.4835    10.0878   170.4746 </r>
       <r>    -5.3587     6.5430   171.2912 </r>
       <r>    -5.2339     3.7027   171.7533 </r>
       <r>    -5.1091     2.0880   172.0139 </r>
       <r>    -4.9843    13.4018   173.6865 </r>
       <r>    -4.8595    20.9733   176.3040 </r>
       <r>    -4.7347    14.8224   178.1539 </r>
       <r>    -4.6099     5.8327   178.8818 </r>
       <r>    -4.4851     9.3224   180.0453 </r>
       <r>    -4.3603     1.6461   180.2507 </r>
       <r>    -4.2355     2.8874   180.6111 </r>
       <r>    -4.1107     8.3187   181.6493 </r>
       <r>    -3.9859     6.9463   182.5162 </r>
       <r>    -3.8610     7.1400   183.4073 </r>
       <r>    -3.7362     7.4361   184.3354 </r>
       <r>    -3.6114     5.2600   184.9918 </r>
       <r>    -3.4866     0.0656   185.0000 </r>
       <r>    -3.3618     0.6613   185.0825 </r>
       <r>    -3.2370     2.5852   185.4052 </r>
       <r>    -3.1122     6.3924   186.2030 </r>
       <r>    -2.9874     1.0417   186.3330 </r>
       <r>    -2.8626     1.3362   186.4998 </r>
       <r>    -2.7378     0.0020   186.5000 </r>
       <r>    -2.6130     0.6645   186.5829 </r>
       <r>    -2.4882     3.3189   186.9971 </r>
       <r>    -2.3634     0.0229   187.0000 </r>
       <r>    -2.2386     0.2824   187.0352 </r>
       <r>    -2.1138     3.6266   187.4879 </r>
       <r>    -1.9890     0.0973   187.5000 </r>
       <r>    -1.8642     0.0039   187.5005 </r>
       <r>    -1.7394     1.6187   187.7025 </r>
       <r>    -1.6146     2.8431   188.0573 </r>
       <r>    -1.4898     6.4173   188.8582 </r>
       <r>    -1.3650     1.1356   189.0000 </r>
       <r>    -1.2402     0.3698   189.0461 </r>
       <r>    -1.1154     7.4266   189.9730 </r>
       <r>    -0.9906     4.2832   190.5075 </r>
       <r>    -0.8658     5.2503   191.1628 </r>
       <r>    -0.7410    16.0423   193.1649 </r>
       <r>    -0.6162     6.8869   194.0245 </r>
       <r>    -0.4914     9.4050   195.1982 </r>
       <r>    -0.3665    10.1537   196.4655 </r>
       <r>    -0.2417     5.9422   197.2071 </r>
       <r>    -0.1169     5.5832   197.9039 </r>
       <r>     0.0079     9.1332   199.0437 </r>
       <r>     0.1327     8.6907   200.1284 </r>
       <r>     0.2575    11.9863   201.6243 </r>
       <r>     0.3823     8.6832   202.7080 </r>
       <r>     0.5071     2.3327   202.9991 </r>
       <r>     0.6319     4.1415   203.5160 </r>
       <r>     0.7567    13.7470   205.2317 </r>
       <r>     0.8815     9.0552   206.3618 </r>
       <r>     1.0063     4.3890   206.9095 </r>
       <r>     1.1311    10.5007   208.2201 </r>
       <r>     1.2559     7.4956   209.1555 </r>
       <r>     1.3807     7.6909   210.1154 </r>
       <r>     1.5055    12.1474   211.6314 </r>
       <r>     1.6303    19.2651   214.0358 </r>
       <r>     1.7551    17.1046   216.1705 </r>
       <r>     1.8799     7.9039   217.1569 </r>
       <r>     2.0047    11.4000   218.5797 </r>
       <r>     2.1295    22.1071   221.3387 </r>
       <r>     2.2543    16.2163   223.3626 </r>
       <r>     2.3791    20.8256   225.9617 </r>
       <r>     2.5039    22.4661   228.7656 </r>
       <r>     2.6287     7.4752   229.6985 </r>
       <r>     2.7535    16.3519   231.7393 </r>
       <r>     2.8783    26.1783   235.0064 </r>
       <r>     3.0031    37.4131   239.6757 </r>
       <r>     3.1279    19.0720   242.0559 </r>
       <r>     3.2528    25.3523   245.2200 </r>
       <r>     3.3776    17.9862   247.4647 </r>
       <r>     3.5024    21.8454   250.1911 </r>
       <r>     3.6272    19.4065   252.6131 </r>
       <r>     3.7520    16.4173   254.6621 </r>
       <r>     3.8768    25.9071   257.8953 </r>
       <r>     4.0016    23.3598   260.8107 </r>
       <r>     4.1264    18.5439   263.1251 </r>
       <r>     4.2512    18.1044   265.3846 </r>
       <r>     4.3760    26.7436   268.7223 </r>
       <r>     4.5008    10.1993   269.9952 </r>
       <r>     4.6256     0.0386   270.0000 </r>
       <r>     4.7504     0.0000   270.0000 </r>
       <r>     4.8752     0.0000   270.0000 </r>
       <r>     5.0000     0.0000   270.0000 </r>
       <r>     5.1248     0.0000   270.0000 </r>
       <r>     5.2496     0.0000   270.0000 </r>
       <r>     5.3744     0.0000   270.0000 </r>
       <r>     5.4992     0.0000   270.0000 </r>
       <r>     5.6240     0.0000   270.0000 </r>
       <r>     5.7488     0.0000   270.0000 </r>
       <r>     5.8736     0.0000   270.0000 </r>
       <r>     5.9984     0.0000   270.0000 </r>
       <r>     6.1232     0.0000   270.0000 </r>
      </set>
     </set>
    </array>
   </total>
  </dos>
 </calculation>
 <structure name="finalpos" >
  <crystal>
   <varray name="basis" >
    <v>      17.27103806       0.00000000       0.00000000 </v>
    <v>      -8.63551903      14.95715771       0.00000000 </v>
    <v>       0.00000000       0.00000000      15.00000000 </v>
   </varray>
   <i name="volume">   3874.88459904 </i>
   <varray name="rec_basis" >
    <v>       0.05790040       0.03342881       0.00000000 </v>
    <v>       0.00000000       0.06685762       0.00000000 </v>
    <v>       0.00000000       0.00000000       0.06666667 </v>
   </varray>
  </crystal>
  <varray name="positions" >
   <v>       0.99885565       0.99960017       0.49884407 </v>
   <v>       0.99835306       0.14220741       0.50227951 </v>
   <v>       0.99817761       0.28509486       0.50464897 </v>
   <v>       0.99858602       0.42822148       0.50395944 </v>
   <v>       0.99931519       0.57136988       0.50110673 </v>
   <v>       0.00040278       0.71466301       0.49720025 </v>
   <v>       0.00020294       0.85766577       0.49608700 </v>
   <v>       0.14212400       0.00018038       0.50778262 </v>
   <v>       0.14122989       0.14245880       0.51111929 </v>
   <v>       0.14026103       0.28456600       0.51527967 </v>
   <v>       0.14043484       0.42777112       0.51560099 </v>
   <v>       0.14161531       0.57093260       0.51198468 </v>
   <v>       0.14233430       0.71416556       0.50859401 </v>
   <v>       0.14250876       0.85735175       0.50657181 </v>
   <v>       0.28495995       0.99996279       0.51021143 </v>
   <v>       0.28459811       0.14261035       0.51489218 </v>
   <v>       0.28381752       0.28620472       0.52465361 </v>
   <v>       0.28137510       0.42662044       0.53122537 </v>
   <v>       0.28431642       0.56983819       0.52453359 </v>
   <v>       0.28479888       0.71425538       0.51486919 </v>
   <v>       0.28499281       0.85730303       0.51031238 </v>
   <v>       0.42788334       0.00019849       0.50647195 </v>
   <v>       0.42770825       0.14298426       0.50842527 </v>
   <v>       0.42583808       0.28264253       0.51551764 </v>
   <v>       0.42603477       0.71576009       0.51416662 </v>
   <v>       0.42769417       0.85720590       0.50783593 </v>
   <v>       0.57041424       0.00021687       0.50011270 </v>
   <v>       0.57045258       0.14288032       0.50074750 </v>
   <v>       0.57133192       0.28668624       0.49875075 </v>
   <v>       0.57122259       0.85756247       0.49642445 </v>
   <v>       0.71320293       0.99973668       0.49160983 </v>
   <v>       0.71326888       0.14276091       0.49618649 </v>
   <v>       0.71328264       0.28576118       0.49414958 </v>
   <v>       0.71321048       0.42795693       0.48363631 </v>
   <v>       0.72010116       0.57367131       0.45565186 </v>
   <v>       0.72339357       0.71861574       0.45024490 </v>
   <v>       0.71250776       0.85717646       0.47799093 </v>
   <v>       0.85616536       0.99987636       0.48966343 </v>
   <v>       0.85576082       0.14249279       0.49585198 </v>
   <v>       0.85582467       0.28536484       0.49708898 </v>
   <v>       0.85644159       0.42843151       0.49317737 </v>
   <v>       0.85766129       0.57192711       0.48564582 </v>
   <v>       0.85967013       0.71562314       0.47853556 </v>
   <v>       0.85716800       0.85715773       0.48221822 </v>
   <v>       0.04624542       0.09478392       0.50418601 </v>
   <v>       0.04531616       0.23706747       0.50735945 </v>
   <v>       0.04545815       0.38026604       0.50809738 </v>
   <v>       0.04662781       0.52356253       0.50594502 </v>
   <v>       0.04724959       0.66671552       0.50276714 </v>
   <v>       0.04748988       0.80980423       0.50026008 </v>
   <v>       0.04701453       0.95246539       0.50131782 </v>
   <v>       0.18928900       0.09495918       0.51203137 </v>
   <v>       0.18825354       0.23740291       0.51703448 </v>
   <v>       0.18668510       0.37932716       0.52048590 </v>
   <v>       0.18864077       0.52299220       0.51733939 </v>
   <v>       0.18952751       0.66654145       0.51261827 </v>
   <v>       0.18996246       0.80965202       0.50909048 </v>
   <v>       0.18991100       0.95249272       0.50873945 </v>
   <v>       0.33255152       0.09542683       0.51158689 </v>
   <v>       0.33274709       0.23781852       0.51944155 </v>
   <v>       0.32737870       0.37849231       0.53480364 </v>
   <v>       0.32762221       0.52083559       0.53484203 </v>
   <v>       0.33304830       0.66720849       0.51893209 </v>
   <v>       0.33258783       0.80943548       0.51146093 </v>
   <v>       0.33250007       0.95242473       0.50919720 </v>
   <v>       0.47536266       0.09531002       0.50492150 </v>
   <v>       0.47468083       0.23829441       0.50784370 </v>
   <v>       0.47472824       0.80899156       0.50642133 </v>
   <v>       0.47534420       0.95256636       0.50454555 </v>
   <v>       0.61790355       0.09525111       0.49873589 </v>
   <v>       0.61818570       0.23825363       0.49752159 </v>
   <v>       0.62020275       0.37995386       0.49015658 </v>
   <v>       0.61952183       0.81299259       0.48542546 </v>
   <v>       0.61811759       0.95262438       0.49581634 </v>
   <v>       0.76079439       0.09513448       0.49432240 </v>
   <v>       0.76083674       0.23785463       0.49558140 </v>
   <v>       0.76125345       0.38085541       0.48985468 </v>
   <v>       0.76251662       0.52502611       0.47442886 </v>
   <v>       0.76618064       0.66786625       0.45974438 </v>
   <v>       0.76172810       0.80935047       0.46888984 </v>
   <v>       0.76100115       0.95242100       0.48572173 </v>
   <v>       0.90331814       0.09460664       0.49576085 </v>
   <v>       0.90318200       0.23760686       0.49903069 </v>
   <v>       0.90352033       0.38078454       0.49800393 </v>
   <v>       0.90441498       0.52397226       0.49387271 </v>
   <v>       0.90566661       0.66713191       0.48708219 </v>
   <v>       0.90547150       0.81026779       0.48534374 </v>
   <v>       0.90386874       0.95199078       0.49062245 </v>
   <v>       0.46173738       0.35525167       0.51745746 </v>
   <v>       0.39939008       0.41714750       0.54425016 </v>
   <v>       0.39956440       0.55393690       0.54534001 </v>
   <v>       0.64942761       0.53867650       0.43911525 </v>
   <v>       0.58441087       0.41684247       0.49006470 </v>
   <v>       0.58285028       0.74079747       0.48313142 </v>
   <v>       0.46212013       0.67925692       0.51555373 </v>
   <v>       0.55054191       0.57170290       0.49618931 </v>
   <v>       0.58585568       0.55886927       0.58530479 </v>
   <v>       0.63512225       0.67046337       0.42249764 </v>
   <v>       0.53118189       0.53617901       0.55065845 </v>
  </varray>
  <varray name="selective"  type="logical" >
   <v type="logical" >  T  T  T </v>
   <v type="logical" >  T  T  T </v>
   <v type="logical" >  T  T  T </v>
   <v type="logical" >  T  T  T </v>
   <v type="logical" >  T  T  T </v>
   <v type="logical" >  T  T  T </v>
   <v type="logical" >  T  T  T </v>
   <v type="logical" >  T  T  T </v>
   <v type="logical" >  T  T  T </v>
   <v type="logical" >  T  T  T </v>
   <v type="logical" >  T  T  T </v>
   <v type="logical" >  T  T  T </v>
   <v type="logical" >  T  T  T </v>
   <v type="logical" >  T  T  T </v>
   <v type="logical" >  T  T  T </v>
   <v type="logical" >  T  T  T </v>
   <v type="logical" >  T  T  T </v>
   <v type="logical" >  T  T  T </v>
   <v type="logical" >  T  T  T </v>
   <v type="logical" >  T  T  T </v>
   <v type="logical" >  T  T  T </v>
   <v type="logical" >  T  T  T </v>
   <v type="logical" >  T  T  T </v>
   <v type="logical" >  T  T  T </v>
   <v type="logical" >  T  T  T </v>
   <v type="logical" >  T  T  T </v>
   <v type="logical" >  T  T  T </v>
   <v type="logical" >  T  T  T </v>
   <v type="logical" >  T  T  T </v>
   <v type="logical" >  T  T  T </v>
   <v type="logical" >  T  T  T </v>
   <v type="logical" >  T  T  T </v>
   <v type="logical" >  T  T  T </v>
   <v type="logical" >  T  T  T </v>
   <v type="logical" >  T  T  T </v>
   <v type="logical" >  T  T  T </v>
   <v type="logical" >  T  T  T </v>
   <v type="logical" >  T  T  T </v>
   <v type="logical" >  T  T  T </v>
   <v type="logical" >  T  T  T </v>
   <v type="logical" >  T  T  T </v>
   <v type="logical" >  T  T  T </v>
   <v type="logical" >  T  T  T </v>
   <v type="logical" >  T  T  T </v>
   <v type="logical" >  T  T  T </v>
   <v type="logical" >  T  T  T </v>
   <v type="logical" >  T  T  T </v>
   <v type="logical" >  T  T  T </v>
   <v type="logical" >  T  T  T </v>
   <v type="logical" >  T  T  T </v>
   <v type="logical" >  T  T  T </v>
   <v type="logical" >  T  T  T </v>
   <v type="logical" >  T  T  T </v>
   <v type="logical" >  T  T  T </v>
   <v type="logical" >  T  T  T </v>
   <v type="logical" >  T  T  T </v>
   <v type="logical" >  T  T  T </v>
   <v type="logical" >  T  T  T </v>
   <v type="logical" >  T  T  T </v>
   <v type="logical" >  T  T  T </v>
   <v type="logical" >  T  T  T </v>
   <v type="logical" >  T  T  T </v>
   <v type="logical" >  T  T  T </v>
   <v type="logical" >  T  T  T </v>
   <v type="logical" >  T  T  T </v>
   <v type="logical" >  T  T  T </v>
   <v type="logical" >  T  T  T </v>
   <v type="logical" >  T  T  T </v>
   <v type="logical" >  T  T  T </v>
   <v type="logical" >  T  T  T </v>
   <v type="logical" >  T  T  T </v>
   <v type="logical" >  T  T  T </v>
   <v type="logical" >  T  T  T </v>
   <v type="logical" >  T  T  T </v>
   <v type="logical" >  T  T  T </v>
   <v type="logical" >  T  T  T </v>
   <v type="logical" >  T  T  T </v>
   <v type="logical" >  T  T  T </v>
   <v type="logical" >  T  T  T </v>
   <v type="logical" >  T  T  T </v>
   <v type="logical" >  T  T  T </v>
   <v type="logical" >  T  T  T </v>
   <v type="logical" >  T  T  T </v>
   <v type="logical" >  T  T  T </v>
   <v type="logical" >  T  T  T </v>
   <v type="logical" >  T  T  T </v>
   <v type="logical" >  T  T  T </v>
   <v type="logical" >  T  T  T </v>
   <v type="logical" >  T  T  T </v>
   <v type="logical" >  T  T  T </v>
   <v type="logical" >  T  T  T </v>
   <v type="logical" >  T  T  T </v>
   <v type="logical" >  T  T  T </v>
   <v type="logical" >  T  T  T </v>
   <v type="logical" >  T  T  T </v>
   <v type="logical" >  T  T  T </v>
   <v type="logical" >  T  T  T </v>
   <v type="logical" >  T  T  T </v>
   <v type="logical" >  T  T  T </v>
  </varray>
  <nose>
   <v>      -3.00000000       0.00000000       0.00010000       0.00010000 </v>
  </nose>
 </structure>
</modeling>
