unknown system                          
           1
    17.271038    0.000000    0.000000
    -8.635519   14.957158    0.000000
     0.000000    0.000000   15.000000
   C    H    F    O 
    88     9     1     1
Direct configuration=     1
   0.99895947  0.99966886  0.49883810
   0.99846527  0.14227936  0.50150263
   0.99832488  0.28518146  0.50343587
   0.99871850  0.42829066  0.50308163
   0.99942745  0.57142424  0.50115586
   0.00041673  0.71468729  0.49805007
   0.00023387  0.85769705  0.49677593
   0.14222406  0.00023427  0.50760600
   0.14134583  0.14253055  0.51031053
   0.14039378  0.28464253  0.51411629
   0.14058933  0.42783668  0.51436443
   0.14176833  0.57098976  0.51114521
   0.14243702  0.71421547  0.50845549
   0.14256035  0.85738949  0.50669995
   0.28503174  0.99999903  0.51014422
   0.28468884  0.14266729  0.51456161
   0.28385487  0.28621986  0.52420585
   0.28144280  0.42664818  0.53068562
   0.28440667  0.56987200  0.52393122
   0.28490881  0.71430517  0.51450266
   0.28506778  0.85734512  0.51019681
   0.42796995  0.00024006  0.50661318
   0.42778905  0.14301745  0.50865425
   0.42591578  0.28268518  0.51572812
   0.42612321  0.71581048  0.51411507
   0.42777584  0.85726086  0.50793850
   0.57050299  0.00027341  0.50029516
   0.57055341  0.14292879  0.50118635
   0.57142588  0.28671516  0.49948599
   0.57132642  0.85763370  0.49702698
   0.71329138  0.99983058  0.49185282
   0.71336659  0.14283294  0.49625793
   0.71338419  0.28582185  0.49460903
   0.71327970  0.42800448  0.48471970
   0.72006178  0.57368090  0.45707221
   0.72339229  0.71867398  0.45134804
   0.71259945  0.85724657  0.47898006
   0.85624996  0.99994403  0.48985316
   0.85587667  0.14258238  0.49539292
   0.85593089  0.28543152  0.49661683
   0.85653143  0.42849158  0.49340581
   0.85768042  0.57197084  0.48685653
   0.85960358  0.71561347  0.47996692
   0.85722834  0.85721085  0.48322656
   0.04635809  0.09486151  0.50359632
   0.04545250  0.23714924  0.50619528
   0.04561346  0.38034659  0.50682302
   0.04677873  0.52362078  0.50527960
   0.04732763  0.66676018  0.50304207
   0.04751314  0.80982925  0.50086053
   0.04710191  0.95252136  0.50146283
   0.18939621  0.09502458  0.51150434
   0.18835512  0.23746271  0.51608533
   0.18681759  0.37939036  0.51938080
   0.18877675  0.52304213  0.51633775
   0.18965164  0.66658829  0.51213169
   0.19003793  0.80969912  0.50902775
   0.18998855  0.95253143  0.50868057
   0.33262682  0.09546220  0.51151683
   0.33281444  0.23785733  0.51924572
   0.32734428  0.37843940  0.53472521
   0.32764318  0.52085151  0.53456585
   0.33313882  0.66724155  0.51860221
   0.33266985  0.80948462  0.51132512
   0.33257295  0.95246098  0.50919217
   0.47545770  0.09535663  0.50525901
   0.47475328  0.23831887  0.50823627
   0.47481517  0.80906158  0.50668218
   0.47543187  0.95262160  0.50471095
   0.61800314  0.09530991  0.49898562
   0.61829100  0.23830586  0.49810054
   0.62029113  0.37999273  0.49126277
   0.61965364  0.81304140  0.48662229
   0.61821254  0.95269487  0.49611821
   0.76090094  0.09523120  0.49426309
   0.76093725  0.23792372  0.49560757
   0.76133586  0.38091245  0.49048137
   0.76253987  0.52508685  0.47578278
   0.76611243  0.66786488  0.46111368
   0.76179718  0.80940297  0.47006084
   0.76108267  0.95250573  0.48619184
   0.90341776  0.09469017  0.49539434
   0.90330732  0.23769326  0.49817969
   0.90363428  0.38085633  0.49757269
   0.90449535  0.52402728  0.49441489
   0.90563514  0.66716016  0.48844176
   0.90546996  0.81027976  0.48649076
   0.90395673  0.95206548  0.49105366
   0.46180705  0.35528649  0.51781437
   0.39922447  0.41688421  0.54495453
   0.39950172  0.55398816  0.54562547
   0.64942702  0.53863980  0.44040993
   0.58451302  0.41689005  0.49155757
   0.58312069  0.74081740  0.48502730
   0.46219945  0.67929968  0.51537724
   0.54279093  0.56550767  0.49116484
   0.58691906  0.56139143  0.57798265
   0.63538725  0.67084674  0.42305352
   0.52934844  0.53389482  0.54788818
Direct configuration=     2
   0.99895979  0.99966857  0.49883820
   0.99846558  0.14227899  0.50150726
   0.99832548  0.28518137  0.50344136
   0.99871902  0.42828968  0.50308622
   0.99942736  0.57142420  0.50115709
   0.00041628  0.71468752  0.49804713
   0.00023436  0.85769727  0.49677254
   0.14222440  0.00023453  0.50760634
   0.14134546  0.14253015  0.51031446
   0.14039250  0.28464069  0.51412221
   0.14058883  0.42783559  0.51437276
   0.14176815  0.57098900  0.51114880
   0.14243654  0.71421535  0.50845700
   0.14256045  0.85738997  0.50669925
   0.28503103  0.99999828  0.51014466
   0.28468905  0.14266700  0.51456264
   0.28385470  0.28621957  0.52420991
   0.28144238  0.42664634  0.53068874
   0.28440661  0.56987035  0.52393594
   0.28490835  0.71430549  0.51450458
   0.28506778  0.85734561  0.51019773
   0.42796986  0.00024032  0.50661281
   0.42778829  0.14301676  0.50865316
   0.42591519  0.28268483  0.51572730
   0.42612357  0.71581028  0.51411595
   0.42777631  0.85726066  0.50793787
   0.57050238  0.00027275  0.50029409
   0.57055290  0.14292855  0.50118483
   0.57142579  0.28671533  0.49948250
   0.57132558  0.85763272  0.49702281
   0.71329050  0.99982844  0.49185219
   0.71336634  0.14283264  0.49625802
   0.71338217  0.28581984  0.49460732
   0.71328002  0.42800516  0.48471535
   0.72006204  0.57368124  0.45706518
   0.72339342  0.71867571  0.45134298
   0.71259929  0.85724760  0.47897520
   0.85625013  0.99994436  0.48985251
   0.85587592  0.14258164  0.49539582
   0.85593067  0.28543083  0.49661903
   0.85653084  0.42849064  0.49340567
   0.85768030  0.57197132  0.48685045
   0.85960439  0.71561619  0.47995959
   0.85722835  0.85721150  0.48322213
   0.04635873  0.09486164  0.50359775
   0.04545238  0.23714905  0.50620242
   0.04561360  0.38034686  0.50683121
   0.04677945  0.52362073  0.50528271
   0.04732748  0.66676030  0.50304228
   0.04751297  0.80982895  0.50085780
   0.04710187  0.95252123  0.50146205
   0.18939608  0.09502463  0.51150616
   0.18835513  0.23746225  0.51609155
   0.18681571  0.37938860  0.51938721
   0.18877628  0.52304140  0.51634283
   0.18965148  0.66658787  0.51213396
   0.19003802  0.80969881  0.50902852
   0.18998824  0.95253099  0.50868031
   0.33262750  0.09546397  0.51151699
   0.33281547  0.23785793  0.51924713
   0.32734568  0.37844007  0.53472792
   0.32764118  0.52085058  0.53456880
   0.33313836  0.66724253  0.51860290
   0.33266810  0.80948294  0.51132559
   0.33257384  0.95246008  0.50919247
   0.47545771  0.09535663  0.50525810
   0.47475252  0.23831903  0.50823436
   0.47481419  0.80906094  0.50668007
   0.47543130  0.95262092  0.50470995
   0.61800338  0.09530995  0.49898527
   0.61829111  0.23830640  0.49809763
   0.62029146  0.37999335  0.49125882
   0.61965343  0.81304190  0.48661866
   0.61821381  0.95269607  0.49611737
   0.76090004  0.09523167  0.49426399
   0.76093703  0.23792361  0.49560799
   0.76133602  0.38091301  0.49047841
   0.76253845  0.52508678  0.47577611
   0.76611282  0.66786524  0.46110638
   0.76179839  0.80940389  0.47005761
   0.76108251  0.95250617  0.48618853
   0.90341694  0.09469069  0.49539518
   0.90330742  0.23769300  0.49818430
   0.90363420  0.38085589  0.49757626
   0.90449515  0.52402706  0.49441323
   0.90563403  0.66716027  0.48843583
   0.90546999  0.81027958  0.48648497
   0.90395676  0.95206575  0.49105175
   0.46180716  0.35528652  0.51781335
   0.39922475  0.41688433  0.54495554
   0.39950167  0.55398793  0.54562836
   0.64942754  0.53864074  0.44040615
   0.58451309  0.41689014  0.49155143
   0.58312031  0.74081833  0.48501848
   0.46219888  0.67929958  0.51537941
   0.54280678  0.56552323  0.49117488
   0.58691570  0.56138479  0.57799844
   0.63538689  0.67084737  0.42305073
   0.52935131  0.53389725  0.54788886
Direct configuration=     3
   0.99896003  0.99966823  0.49883819
   0.99846640  0.14227912  0.50151282
   0.99832571  0.28518141  0.50345004
   0.99871932  0.42828921  0.50309334
   0.99942733  0.57142397  0.50115886
   0.00041519  0.71468721  0.49804267
   0.00023448  0.85769699  0.49676740
   0.14222449  0.00023469  0.50760684
   0.14134545  0.14252987  0.51032032
   0.14038982  0.28463875  0.51413105
   0.14058783  0.42783506  0.51438513
   0.14176827  0.57098860  0.51115427
   0.14243627  0.71421490  0.50845930
   0.14256023  0.85738958  0.50669819
   0.28503123  0.99999805  0.51014530
   0.28468943  0.14266768  0.51456428
   0.28385519  0.28621941  0.52421599
   0.28144207  0.42664522  0.53069381
   0.28440461  0.56987183  0.52394232
   0.28490709  0.71430521  0.51450730
   0.28506760  0.85734496  0.51019911
   0.42797015  0.00024034  0.50661224
   0.42778816  0.14301704  0.50865154
   0.42591537  0.28268542  0.51572608
   0.42612268  0.71581090  0.51411739
   0.42777518  0.85725947  0.50793689
   0.57050177  0.00027213  0.50029324
   0.57055275  0.14292865  0.50118255
   0.57142541  0.28671605  0.49947734
   0.57132431  0.85763222  0.49701700
   0.71329054  0.99982921  0.49185031
   0.71336610  0.14283276  0.49625827
   0.71338127  0.28581921  0.49460463
   0.71328035  0.42800610  0.48470872
   0.72006278  0.57368203  0.45705596
   0.72339508  0.71867737  0.45133534
   0.71259957  0.85724875  0.47896815
   0.85625025  0.99994517  0.48985132
   0.85587482  0.14258158  0.49540009
   0.85593046  0.28543029  0.49662263
   0.85653047  0.42848990  0.49340544
   0.85767964  0.57197154  0.48684144
   0.85960421  0.71561507  0.47994813
   0.85722941  0.85721263  0.48321569
   0.04635907  0.09486129  0.50360026
   0.04545091  0.23714844  0.50621283
   0.04561571  0.38034785  0.50684120
   0.04677955  0.52362010  0.50528748
   0.04732681  0.66676047  0.50304257
   0.04751306  0.80982916  0.50085376
   0.04710224  0.95252082  0.50146142
   0.18939606  0.09502457  0.51150894
   0.18835511  0.23746139  0.51610074
   0.18681529  0.37938580  0.51939692
   0.18877661  0.52303903  0.51635026
   0.18965071  0.66658736  0.51213743
   0.19003790  0.80969917  0.50902966
   0.18998822  0.95253099  0.50867997
   0.33262697  0.09546250  0.51151656
   0.33281523  0.23785787  0.51924929
   0.32734643  0.37844013  0.53473173
   0.32764111  0.52084761  0.53457366
   0.33313844  0.66724237  0.51860446
   0.33266733  0.80948252  0.51132637
   0.33257325  0.95246064  0.50919318
   0.47545732  0.09535646  0.50525673
   0.47475193  0.23831876  0.50823136
   0.47481377  0.80906022  0.50667690
   0.47543064  0.95262033  0.50470847
   0.61800266  0.09530938  0.49898471
   0.61829001  0.23830595  0.49809343
   0.62029159  0.37999371  0.49125277
   0.61965326  0.81304241  0.48661267
   0.61821321  0.95269467  0.49611634
   0.76089886  0.09522828  0.49426460
   0.76093633  0.23792306  0.49560860
   0.76133534  0.38091243  0.49047417
   0.76253767  0.52508689  0.47576633
   0.76611342  0.66786677  0.46109532
   0.76179775  0.80940555  0.47005221
   0.76108257  0.95250637  0.48618376
   0.90341715  0.09469010  0.49539774
   0.90330770  0.23769246  0.49819109
   0.90363417  0.38085502  0.49758144
   0.90449477  0.52402701  0.49441070
   0.90563244  0.66716175  0.48842752
   0.90547091  0.81028122  0.48647646
   0.90395711  0.95206645  0.49104898
   0.46180720  0.35528642  0.51781182
   0.39922595  0.41688503  0.54495693
   0.39950048  0.55398714  0.54563233
   0.64942773  0.53864197  0.44040041
   0.58451312  0.41689042  0.49154237
   0.58311968  0.74081957  0.48500551
   0.46219844  0.67929906  0.51538264
   0.54283143  0.56554788  0.49118830
   0.58690948  0.56137422  0.57802178
   0.63538582  0.67084830  0.42304597
   0.52935709  0.53390057  0.54789285
Direct configuration=     4
   0.99896009  0.99966790  0.49883798
   0.99846675  0.14227896  0.50151952
   0.99832537  0.28518152  0.50346250
   0.99871925  0.42828914  0.50310329
   0.99942699  0.57142343  0.50116112
   0.00041351  0.71468672  0.49803663
   0.00023425  0.85769658  0.49676041
   0.14222434  0.00023450  0.50760756
   0.14134584  0.14252963  0.51032824
   0.14038707  0.28463687  0.51414358
   0.14058762  0.42783420  0.51440160
   0.14176842  0.57098788  0.51116178
   0.14243578  0.71421442  0.50846241
   0.14255967  0.85738866  0.50669680
   0.28503174  0.99999815  0.51014608
   0.28468951  0.14266840  0.51456654
   0.28385621  0.28621793  0.52422304
   0.28144000  0.42664280  0.53070067
   0.28440246  0.56987425  0.52395058
   0.28490542  0.71430421  0.51451075
   0.28506707  0.85734388  0.51020099
   0.42797016  0.00023995  0.50661148
   0.42778828  0.14301759  0.50864931
   0.42591589  0.28268635  0.51572442
   0.42612094  0.71580990  0.51411856
   0.42777268  0.85725768  0.50793539
   0.57050115  0.00027123  0.50029262
   0.57055246  0.14292867  0.50117950
   0.57142449  0.28671674  0.49947044
   0.57132292  0.85763196  0.49700977
   0.71329185  0.99983009  0.49184893
   0.71336544  0.14283216  0.49625873
   0.71338139  0.28582004  0.49460087
   0.71328024  0.42800658  0.48469954
   0.72006345  0.57368351  0.45704400
   0.72339641  0.71867923  0.45132489
   0.71259973  0.85724973  0.47895902
   0.85625016  0.99994583  0.48984940
   0.85587387  0.14258128  0.49540579
   0.85593021  0.28542974  0.49662800
   0.85653027  0.42848939  0.49340511
   0.85767857  0.57197145  0.48682948
   0.85960402  0.71561551  0.47993275
   0.85723096  0.85721426  0.48320707
   0.04635898  0.09486052  0.50360425
   0.04544943  0.23714662  0.50622670
   0.04561794  0.38034850  0.50685339
   0.04677888  0.52361910  0.50529422
   0.04732546  0.66676030  0.50304292
   0.04751306  0.80982920  0.50084831
   0.04710259  0.95252163  0.50145965
   0.18939629  0.09502446  0.51151281
   0.18835563  0.23746052  0.51611188
   0.18681536  0.37938270  0.51941018
   0.18877702  0.52303672  0.51636051
   0.18964929  0.66658648  0.51214231
   0.19003741  0.80969943  0.50903124
   0.18998827  0.95253120  0.50867962
   0.33262584  0.09546065  0.51151633
   0.33281414  0.23785734  0.51925226
   0.32734654  0.37843919  0.53473671
   0.32764160  0.52084449  0.53458027
   0.33313785  0.66724118  0.51860733
   0.33266745  0.80948310  0.51132757
   0.33257272  0.95246122  0.50919405
   0.47545673  0.09535626  0.50525478
   0.47475167  0.23831853  0.50822713
   0.47481339  0.80905960  0.50667272
   0.47542972  0.95261954  0.50470657
   0.61800124  0.09530843  0.49898385
   0.61828785  0.23830474  0.49808786
   0.62029142  0.37999388  0.49124423
   0.61965301  0.81304304  0.48660364
   0.61821244  0.95269504  0.49611396
   0.76089794  0.09522667  0.49426559
   0.76093536  0.23792215  0.49560942
   0.76133395  0.38091088  0.49046865
   0.76253818  0.52508728  0.47575335
   0.76611411  0.66786858  0.46108031
   0.76179824  0.80940749  0.47004431
   0.76108297  0.95250680  0.48617766
   0.90341782  0.09468996  0.49540137
   0.90330760  0.23769184  0.49820019
   0.90363415  0.38085389  0.49758824
   0.90449405  0.52402709  0.49440725
   0.90563253  0.66716285  0.48841620
   0.90547220  0.81028347  0.48646495
   0.90395785  0.95206750  0.49104529
   0.46180724  0.35528637  0.51780975
   0.39922799  0.41688631  0.54495846
   0.39949859  0.55398571  0.54563728
   0.64942736  0.53864332  0.44039270
   0.58451299  0.41689082  0.49153045
   0.58311862  0.74082082  0.48498857
   0.46219777  0.67929838  0.51538693
   0.54286544  0.56558174  0.49120630
   0.58690129  0.56135989  0.57805381
   0.63538416  0.67084945  0.42303906
   0.52936549  0.53390499  0.54789980
Direct configuration=     5
   0.99896012  0.99966800  0.49883746
   0.99846618  0.14227776  0.50152765
   0.99832472  0.28518137  0.50347899
   0.99871899  0.42828884  0.50311610
   0.99942597  0.57142269  0.50116376
   0.00041208  0.71468647  0.49802901
   0.00023441  0.85769703  0.49675150
   0.14222423  0.00023416  0.50760845
   0.14134625  0.14252917  0.51033810
   0.14038493  0.28463355  0.51415901
   0.14058909  0.42783211  0.51442184
   0.14176795  0.57098605  0.51117140
   0.14243435  0.71421408  0.50846626
   0.14255903  0.85738815  0.50669506
   0.28503161  0.99999811  0.51014689
   0.28468908  0.14266796  0.51456939
   0.28385706  0.28621595  0.52423108
   0.28143973  0.42664106  0.53071029
   0.28440350  0.56987135  0.52396102
   0.28490413  0.71430310  0.51451482
   0.28506639  0.85734368  0.51020333
   0.42796945  0.00023926  0.50661051
   0.42778788  0.14301737  0.50864639
   0.42591579  0.28268641  0.51572225
   0.42611968  0.71580771  0.51411929
   0.42777346  0.85725796  0.50793184
   0.57050022  0.00027027  0.50029204
   0.57055143  0.14292812  0.50117563
   0.57142316  0.28671664  0.49946174
   0.57132195  0.85763216  0.49700123
   0.71329280  0.99982968  0.49184769
   0.71336395  0.14283043  0.49625941
   0.71338109  0.28582060  0.49459603
   0.71327921  0.42800682  0.48468873
   0.72006385  0.57368537  0.45702893
   0.72339815  0.71868288  0.45131273
   0.71259952  0.85725052  0.47894797
   0.85625030  0.99994614  0.48984665
   0.85587375  0.14258044  0.49541288
   0.85592963  0.28542874  0.49663537
   0.85653001  0.42848889  0.49340461
   0.85767871  0.57197265  0.48681583
   0.85960481  0.71561874  0.47991347
   0.85723241  0.85721648  0.48319611
   0.04635880  0.09485978  0.50360996
   0.04544660  0.23714623  0.50624253
   0.04561855  0.38034820  0.50686838
   0.04677794  0.52361828  0.50530324
   0.04732381  0.66675963  0.50304330
   0.04751252  0.80982861  0.50084136
   0.04710276  0.95252113  0.50145783
   0.18939673  0.09502429  0.51151784
   0.18835531  0.23745961  0.51612350
   0.18681403  0.37937991  0.51942696
   0.18877671  0.52303610  0.51637393
   0.18964905  0.66658662  0.51214765
   0.19003660  0.80969872  0.50903323
   0.18998805  0.95253098  0.50867926
   0.33262516  0.09546032  0.51151634
   0.33281394  0.23785679  0.51925588
   0.32734668  0.37843733  0.53474278
   0.32763882  0.52084408  0.53458833
   0.33313569  0.66723983  0.51861171
   0.33266701  0.80948299  0.51132930
   0.33257259  0.95246074  0.50919499
   0.47545615  0.09535614  0.50525214
   0.47475152  0.23831904  0.50822158
   0.47481198  0.80905851  0.50666764
   0.47542834  0.95261809  0.50470433
   0.61799983  0.09530748  0.49898262
   0.61828593  0.23830404  0.49808085
   0.62029102  0.37999426  0.49123284
   0.61965261  0.81304404  0.48659104
   0.61821026  0.95269315  0.49611094
   0.76089788  0.09522814  0.49426722
   0.76093457  0.23792136  0.49561043
   0.76133292  0.38090978  0.49046184
   0.76253942  0.52508796  0.47573704
   0.76611485  0.66787008  0.46106130
   0.76179910  0.80940872  0.47003452
   0.76108365  0.95250766  0.48617051
   0.90341829  0.09469058  0.49540617
   0.90330690  0.23769140  0.49821162
   0.90363404  0.38085309  0.49759656
   0.90449301  0.52402702  0.49440280
   0.90563190  0.66716306  0.48840185
   0.90547310  0.81028483  0.48645021
   0.90395866  0.95206863  0.49104056
   0.46180746  0.35528676  0.51780706
   0.39923027  0.41688788  0.54495962
   0.39949717  0.55398390  0.54564305
   0.64942643  0.53864476  0.44038309
   0.58451269  0.41689129  0.49151580
   0.58311709  0.74082189  0.48496789
   0.46219670  0.67929768  0.51539211
   0.54290923  0.56562416  0.49123140
   0.58689313  0.56134246  0.57809614
   0.63538217  0.67085089  0.42302981
   0.52937452  0.53391155  0.54790663
Direct configuration=     6
   0.99896039  0.99966834  0.49883675
   0.99846479  0.14227623  0.50153775
   0.99832326  0.28518098  0.50349970
   0.99871889  0.42828671  0.50313072
   0.99942406  0.57142168  0.50116680
   0.00041109  0.71468606  0.49801983
   0.00023516  0.85769799  0.49674063
   0.14222424  0.00023359  0.50760968
   0.14134609  0.14252806  0.51034981
   0.14038300  0.28462851  0.51417630
   0.14059047  0.42783081  0.51444405
   0.14176695  0.57098390  0.51118341
   0.14243208  0.71421342  0.50847090
   0.14255827  0.85738790  0.50669305
   0.28503070  0.99999752  0.51014780
   0.28468848  0.14266632  0.51457302
   0.28385689  0.28621392  0.52424020
   0.28143878  0.42663784  0.53072248
   0.28440451  0.56986819  0.52397334
   0.28490354  0.71430241  0.51451961
   0.28506563  0.85734387  0.51020626
   0.42796807  0.00023824  0.50660938
   0.42778685  0.14301646  0.50864280
   0.42591505  0.28268558  0.51571964
   0.42612035  0.71580926  0.51411886
   0.42777272  0.85725725  0.50792798
   0.57050023  0.00027013  0.50028988
   0.57054973  0.14292700  0.50117099
   0.57142187  0.28671588  0.49945112
   0.57132075  0.85763174  0.49699155
   0.71329206  0.99982825  0.49184634
   0.71336192  0.14282871  0.49626042
   0.71337952  0.28581950  0.49459020
   0.71327808  0.42800681  0.48467590
   0.72006545  0.57368656  0.45701162
   0.72339916  0.71868661  0.45129817
   0.71259881  0.85725038  0.47893648
   0.85625108  0.99994650  0.48984318
   0.85587450  0.14258005  0.49542153
   0.85592844  0.28542727  0.49664507
   0.85652938  0.42848819  0.49340394
   0.85767997  0.57197435  0.48680039
   0.85960654  0.71562299  0.47989015
   0.85723345  0.85721876  0.48318273
   0.04635973  0.09486100  0.50361638
   0.04544495  0.23714547  0.50626084
   0.04561756  0.38034694  0.50688732
   0.04677693  0.52361767  0.50531494
   0.04732195  0.66675854  0.50304374
   0.04751149  0.80982770  0.50083292
   0.04710260  0.95251959  0.50145583
   0.18939686  0.09502361  0.51152417
   0.18835416  0.23745809  0.51613602
   0.18681104  0.37937666  0.51944638
   0.18877585  0.52303583  0.51639112
   0.18964892  0.66658669  0.51215382
   0.19003536  0.80969719  0.50903574
   0.18998749  0.95253007  0.50867899
   0.33262527  0.09546149  0.51151664
   0.33281510  0.23785589  0.51926012
   0.32734528  0.37843592  0.53474861
   0.32763592  0.52084511  0.53459660
   0.33313331  0.66723799  0.51861795
   0.33266609  0.80948186  0.51133153
   0.33257259  0.95245933  0.50919606
   0.47545525  0.09535558  0.50524882
   0.47475098  0.23831972  0.50821473
   0.47480997  0.80905647  0.50666163
   0.47542727  0.95261682  0.50470177
   0.61799846  0.09530621  0.49898113
   0.61828498  0.23830421  0.49807242
   0.62029008  0.37999459  0.49121841
   0.61965208  0.81304520  0.48657451
   0.61821068  0.95269440  0.49610632
   0.76089934  0.09522875  0.49426850
   0.76093374  0.23792063  0.49561177
   0.76133533  0.38091428  0.49045401
   0.76254027  0.52508899  0.47571742
   0.76611414  0.66787162  0.46103938
   0.76180040  0.80941001  0.47002239
   0.76108438  0.95250854  0.48616268
   0.90341793  0.09469073  0.49541228
   0.90330573  0.23769079  0.49822573
   0.90363357  0.38085272  0.49760652
   0.90449199  0.52402667  0.49439751
   0.90563062  0.66716330  0.48838418
   0.90547366  0.81028583  0.48643221
   0.90395928  0.95206969  0.49103466
   0.46180775  0.35528733  0.51780380
   0.39923218  0.41688929  0.54496012
   0.39949583  0.55398158  0.54564938
   0.64942495  0.53864624  0.44037170
   0.58451218  0.41689170  0.49149852
   0.58311510  0.74082280  0.48494371
   0.46219549  0.67929655  0.51539822
   0.54296380  0.56567568  0.49126433
   0.58688416  0.56132119  0.57814916
   0.63538036  0.67085291  0.42301814
   0.52938548  0.53392108  0.54791448
Direct configuration=     7
   0.99896155  0.99966919  0.49883566
   0.99846327  0.14227594  0.50155161
   0.99832085  0.28518012  0.50352751
   0.99871842  0.42828387  0.50314937
   0.99942154  0.57142029  0.50117061
   0.00041001  0.71468518  0.49800750
   0.00023586  0.85769832  0.49672595
   0.14222418  0.00023272  0.50761146
   0.14134531  0.14252642  0.51036446
   0.14038079  0.28462379  0.51419808
   0.14058927  0.42783057  0.51447082
   0.14176570  0.57098316  0.51119976
   0.14242961  0.71421176  0.50847676
   0.14255705  0.85738702  0.50669044
   0.28502984  0.99999670  0.51014881
   0.28468840  0.14266478  0.51457804
   0.28385538  0.28621200  0.52425129
   0.28143529  0.42663533  0.53073724
   0.28440266  0.56986850  0.52398850
   0.28490324  0.71430172  0.51452581
   0.28506457  0.85734290  0.51021015
   0.42796686  0.00023699  0.50660780
   0.42778595  0.14301627  0.50863784
   0.42591486  0.28268541  0.51571613
   0.42612003  0.71580971  0.51411665
   0.42776944  0.85725489  0.50792347
   0.57049847  0.00026933  0.50028739
   0.57054783  0.14292596  0.50116474
   0.57142097  0.28671584  0.49943671
   0.57131944  0.85763131  0.49697909
   0.71329100  0.99982786  0.49184389
   0.71336075  0.14282794  0.49626172
   0.71337839  0.28581936  0.49458238
   0.71327818  0.42800836  0.48465832
   0.72006928  0.57368998  0.45699214
   0.72339848  0.71868870  0.45127818
   0.71259882  0.85725062  0.47892263
   0.85625122  0.99994431  0.48983987
   0.85587569  0.14258075  0.49543282
   0.85592790  0.28542676  0.49665696
   0.85652955  0.42848882  0.49340284
   0.85768305  0.57197481  0.48678084
   0.85960786  0.71562594  0.47985902
   0.85723295  0.85722014  0.48316633
   0.04635590  0.09485980  0.50362398
   0.04544414  0.23714285  0.50628424
   0.04561616  0.38034507  0.50691394
   0.04677534  0.52361756  0.50532940
   0.04731960  0.66675730  0.50304411
   0.04751060  0.80982730  0.50082167
   0.04710255  0.95251878  0.50145298
   0.18939609  0.09502186  0.51153271
   0.18835317  0.23745512  0.51615155
   0.18680799  0.37937209  0.51947144
   0.18877667  0.52303382  0.51641416
   0.18964744  0.66658577  0.51216201
   0.19003360  0.80969601  0.50903904
   0.18998692  0.95252893  0.50867872
   0.33262554  0.09546225  0.51151711
   0.33281620  0.23785412  0.51926533
   0.32734460  0.37843567  0.53475525
   0.32763574  0.52084340  0.53460718
   0.33313335  0.66723678  0.51862680
   0.33266510  0.80948066  0.51133425
   0.33257180  0.95245805  0.50919727
   0.47545352  0.09535421  0.50524414
   0.47474903  0.23831614  0.50820684
   0.47480963  0.80905710  0.50665465
   0.47542700  0.95261646  0.50469829
   0.61799703  0.09530506  0.49897894
   0.61828480  0.23830452  0.49806130
   0.62028820  0.37999404  0.49119860
   0.61965065  0.81304605  0.48655148
   0.61821066  0.95269294  0.49610054
   0.76090083  0.09522712  0.49427004
   0.76093180  0.23791959  0.49561366
   0.76133523  0.38091552  0.49044404
   0.76254082  0.52509040  0.47569215
   0.76611370  0.66787469  0.46101174
   0.76180126  0.80941292  0.47000892
   0.76108466  0.95250843  0.48615355
   0.90341697  0.09468958  0.49542048
   0.90330448  0.23769003  0.49824490
   0.90363246  0.38085196  0.49761940
   0.90449156  0.52402671  0.49439064
   0.90563003  0.66716540  0.48836038
   0.90547500  0.81028865  0.48640825
   0.90396030  0.95207115  0.49102646
   0.46180779  0.35528760  0.51779933
   0.39923278  0.41689025  0.54495919
   0.39949402  0.55397864  0.54565640
   0.64942362  0.53864834  0.44035719
   0.58451131  0.41689232  0.49147626
   0.58311257  0.74082410  0.48491287
   0.46219417  0.67929548  0.51540571
   0.54303833  0.56574531  0.49130797
   0.58687062  0.56129185  0.57821915
   0.63537877  0.67085634  0.42300189
   0.52940290  0.53393585  0.54792904
Direct configuration=     8
   0.99896183  0.99966905  0.49883365
   0.99846030  0.14227531  0.50156987
   0.99831874  0.28517689  0.50356366
   0.99871629  0.42828245  0.50317328
   0.99941970  0.57141889  0.50117507
   0.00040995  0.71468709  0.49799241
   0.00023525  0.85769760  0.49670630
   0.14222313  0.00023073  0.50761395
   0.14134129  0.14252224  0.51038163
   0.14037857  0.28462091  0.51422568
   0.14058480  0.42782824  0.51450355
   0.14176412  0.57098304  0.51122147
   0.14242697  0.71420899  0.50848369
   0.14255493  0.85738481  0.50668701
   0.28502969  0.99999585  0.51014984
   0.28468837  0.14266370  0.51458487
   0.28385429  0.28621095  0.52426446
   0.28143053  0.42663467  0.53075531
   0.28440023  0.56987122  0.52400765
   0.28490225  0.71429998  0.51453385
   0.28506211  0.85733968  0.51021495
   0.42796621  0.00023561  0.50660542
   0.42778482  0.14301510  0.50863122
   0.42591791  0.28268611  0.51571313
   0.42611583  0.71580426  0.51411550
   0.42776590  0.85725271  0.50791833
   0.57049574  0.00026672  0.50028409
   0.57054631  0.14292552  0.50115633
   0.57141968  0.28671562  0.49941752
   0.57131827  0.85763072  0.49696275
   0.71329123  0.99982789  0.49183891
   0.71336135  0.14282702  0.49626298
   0.71337854  0.28582124  0.49457210
   0.71327846  0.42801103  0.48463619
   0.72007023  0.57369421  0.45696731
   0.72339653  0.71869044  0.45125133
   0.71260101  0.85725115  0.47890930
   0.85625133  0.99994580  0.48983507
   0.85587481  0.14257979  0.49544247
   0.85592624  0.28542664  0.49667171
   0.85652960  0.42848961  0.49340099
   0.85768472  0.57197432  0.48675499
   0.85961000  0.71563292  0.47982007
   0.85723135  0.85721970  0.48314790
   0.04635707  0.09486053  0.50363467
   0.04544004  0.23714015  0.50631370
   0.04561460  0.38034302  0.50695034
   0.04677291  0.52361595  0.50534728
   0.04731648  0.66675544  0.50304408
   0.04751148  0.80982730  0.50080916
   0.04710312  0.95251985  0.50144853
   0.18939407  0.09501896  0.51154379
   0.18835221  0.23745015  0.51617130
   0.18680321  0.37936736  0.51949614
   0.18877826  0.52303255  0.51644196
   0.18964438  0.66658326  0.51217325
   0.19003123  0.80969488  0.50904306
   0.18998628  0.95252750  0.50867837
   0.33262379  0.09545664  0.51151640
   0.33281526  0.23785218  0.51927153
   0.32734715  0.37843471  0.53476310
   0.32763952  0.52084200  0.53462042
   0.33313562  0.66723759  0.51863799
   0.33266264  0.80947860  0.51133723
   0.33256917  0.95245681  0.50919844
   0.47545090  0.09535183  0.50523751
   0.47474707  0.23831144  0.50819720
   0.47480971  0.80905931  0.50664592
   0.47542547  0.95261542  0.50469356
   0.61799540  0.09530428  0.49897568
   0.61828394  0.23830369  0.49804683
   0.62028809  0.37999767  0.49118001
   0.61964797  0.81304589  0.48652107
   0.61820837  0.95268944  0.49609349
   0.76089861  0.09522749  0.49427453
   0.76092950  0.23791857  0.49561603
   0.76133468  0.38091156  0.49043285
   0.76254365  0.52509215  0.47566147
   0.76611571  0.66787882  0.46097979
   0.76179984  0.80941496  0.46999188
   0.76108349  0.95250648  0.48614359
   0.90341652  0.09468897  0.49542996
   0.90330363  0.23768983  0.49827034
   0.90363107  0.38085075  0.49763533