  95  95   0   0
  0.4078826E+02  0.1727104E-08  0.1727104E-08  0.1500000E-08  0.0000000E+00
  1.000000000000000E-004
  CAR 
 unknown system                          
      5.96183752    -30.92781010  301     -2.69430580      1.00000000
    -30.928  0.0000E+00  0.0000E+00  0.0000E+00  0.0000E+00
    -30.805  0.0000E+00  0.0000E+00  0.0000E+00  0.0000E+00
    -30.682  0.0000E+00  0.0000E+00  0.0000E+00  0.0000E+00
    -30.559  0.0000E+00  0.0000E+00  0.0000E+00  0.0000E+00
    -30.436  0.0000E+00  0.0000E+00  0.0000E+00  0.0000E+00
    -30.313  0.0000E+00  0.0000E+00  0.0000E+00  0.0000E+00
    -30.190  0.0000E+00  0.0000E+00  0.0000E+00  0.0000E+00
    -30.067  0.0000E+00  0.0000E+00  0.0000E+00  0.0000E+00
    -29.944  0.0000E+00  0.0000E+00  0.0000E+00  0.0000E+00
    -29.821  0.0000E+00  0.0000E+00  0.0000E+00  0.0000E+00
    -29.698  0.0000E+00  0.0000E+00  0.0000E+00  0.0000E+00
    -29.575  0.0000E+00  0.0000E+00  0.0000E+00  0.0000E+00
    -29.452  0.6121E-10  0.6121E-10  0.7526E-11  0.7526E-11
    -29.329  0.1621E-03  0.1621E-03  0.1993E-04  0.1993E-04
    -29.206  0.1676E-01  0.1676E-01  0.2081E-02  0.2081E-02
    -29.083  0.1541E-01  0.1541E-01  0.3975E-02  0.3975E-02
    -28.960  0.2017E-03  0.2017E-03  0.4000E-02  0.4000E-02
    -28.837  0.1766E-09  0.1766E-09  0.4000E-02  0.4000E-02
    -28.714  0.0000E+00  0.0000E+00  0.4000E-02  0.4000E-02
    -28.591  0.0000E+00  0.0000E+00  0.4000E-02  0.4000E-02
    -28.469  0.0000E+00  0.0000E+00  0.4000E-02  0.4000E-02
    -28.346  0.0000E+00  0.0000E+00  0.4000E-02  0.4000E-02
    -28.223  0.0000E+00  0.0000E+00  0.4000E-02  0.4000E-02
    -28.100  0.0000E+00  0.0000E+00  0.4000E-02  0.4000E-02
    -27.977  0.0000E+00  0.0000E+00  0.4000E-02  0.4000E-02
    -27.854  0.0000E+00  0.0000E+00  0.4000E-02  0.4000E-02
    -27.731  0.0000E+00  0.0000E+00  0.4000E-02  0.4000E-02
    -27.608  0.0000E+00  0.0000E+00  0.4000E-02  0.4000E-02
    -27.485  0.0000E+00  0.0000E+00  0.4000E-02  0.4000E-02
    -27.362  0.0000E+00  0.0000E+00  0.4000E-02  0.4000E-02
    -27.239  0.0000E+00  0.0000E+00  0.4000E-02  0.4000E-02
    -27.116  0.0000E+00  0.0000E+00  0.4000E-02  0.4000E-02
    -26.993  0.0000E+00  0.0000E+00  0.4000E-02  0.4000E-02
    -26.870  0.0000E+00  0.0000E+00  0.4000E-02  0.4000E-02
    -26.747  0.0000E+00  0.0000E+00  0.4000E-02  0.4000E-02
    -26.624  0.0000E+00  0.0000E+00  0.4000E-02  0.4000E-02
    -26.501  0.0000E+00  0.0000E+00  0.4000E-02  0.4000E-02
    -26.378  0.0000E+00  0.0000E+00  0.4000E-02  0.4000E-02
    -26.255  0.0000E+00  0.0000E+00  0.4000E-02  0.4000E-02
    -26.132  0.0000E+00  0.0000E+00  0.4000E-02  0.4000E-02
    -26.009  0.0000E+00  0.0000E+00  0.4000E-02  0.4000E-02
    -25.886  0.0000E+00  0.0000E+00  0.4000E-02  0.4000E-02
    -25.763  0.0000E+00  0.0000E+00  0.4000E-02  0.4000E-02
    -25.640  0.0000E+00  0.0000E+00  0.4000E-02  0.4000E-02
    -25.517  0.0000E+00  0.0000E+00  0.4000E-02  0.4000E-02
    -25.394  0.0000E+00  0.0000E+00  0.4000E-02  0.4000E-02
    -25.271  0.0000E+00  0.0000E+00  0.4000E-02  0.4000E-02
    -25.148  0.0000E+00  0.0000E+00  0.4000E-02  0.4000E-02
    -25.025  0.0000E+00  0.0000E+00  0.4000E-02  0.4000E-02
    -24.903  0.0000E+00  0.0000E+00  0.4000E-02  0.4000E-02
    -24.780  0.0000E+00  0.0000E+00  0.4000E-02  0.4000E-02
    -24.657  0.0000E+00  0.0000E+00  0.4000E-02  0.4000E-02
    -24.534  0.0000E+00  0.0000E+00  0.4000E-02  0.4000E-02
    -24.411  0.0000E+00  0.0000E+00  0.4000E-02  0.4000E-02
    -24.288  0.0000E+00  0.0000E+00  0.4000E-02  0.4000E-02
    -24.165  0.0000E+00  0.0000E+00  0.4000E-02  0.4000E-02
    -24.042  0.0000E+00  0.0000E+00  0.4000E-02  0.4000E-02
    -23.919  0.0000E+00  0.0000E+00  0.4000E-02  0.4000E-02
    -23.796  0.0000E+00  0.0000E+00  0.4000E-02  0.4000E-02
    -23.673  0.0000E+00  0.0000E+00  0.4000E-02  0.4000E-02
    -23.550  0.0000E+00  0.0000E+00  0.4000E-02  0.4000E-02
    -23.427  0.0000E+00  0.0000E+00  0.4000E-02  0.4000E-02
    -23.304  0.0000E+00  0.0000E+00  0.4000E-02  0.4000E-02
    -23.181  0.0000E+00  0.0000E+00  0.4000E-02  0.4000E-02
    -23.058  0.0000E+00  0.0000E+00  0.4000E-02  0.4000E-02
    -22.935  0.0000E+00  0.0000E+00  0.4000E-02  0.4000E-02
    -22.812  0.0000E+00  0.0000E+00  0.4000E-02  0.4000E-02
    -22.689  0.1873E-16  0.1873E-16  0.4000E-02  0.4000E-02
    -22.566  0.3263E-07  0.3263E-07  0.4000E-02  0.4000E-02
    -22.443  0.1145E-02  0.1145E-02  0.4141E-02  0.4141E-02
    -22.320  0.2164E-01  0.2164E-01  0.6802E-02  0.6802E-02
    -22.197  0.9729E-02  0.9729E-02  0.7998E-02  0.7998E-02
    -22.074  0.1532E-04  0.1532E-04  0.8000E-02  0.8000E-02
    -21.951  0.1013E-04  0.1013E-04  0.8001E-02  0.8001E-02
    -21.828  0.5487E-02  0.5487E-02  0.8676E-02  0.8676E-02
    -21.705  0.9217E-02  0.9217E-02  0.9809E-02  0.9809E-02
    -21.582  0.9620E-02  0.9620E-02  0.1099E-01  0.1099E-01
    -21.459  0.4951E-02  0.4951E-02  0.1160E-01  0.1160E-01
    -21.337  0.3428E-02  0.3428E-02  0.1202E-01  0.1202E-01
    -21.214  0.4949E-02  0.4949E-02  0.1263E-01  0.1263E-01
    -21.091  0.7082E-02  0.7082E-02  0.1350E-01  0.1350E-01
    -20.968  0.5345E-02  0.5345E-02  0.1416E-01  0.1416E-01
    -20.845  0.6672E-02  0.6672E-02  0.1498E-01  0.1498E-01
    -20.722  0.8457E-02  0.8457E-02  0.1602E-01  0.1602E-01
    -20.599  0.4728E-02  0.4728E-02  0.1660E-01  0.1660E-01
    -20.476  0.7286E-02  0.7286E-02  0.1750E-01  0.1750E-01
    -20.353  0.8624E-02  0.8624E-02  0.1856E-01  0.1856E-01
    -20.230  0.6443E-02  0.6443E-02  0.1935E-01  0.1935E-01
    -20.107  0.1237E-02  0.1237E-02  0.1950E-01  0.1950E-01
    -19.984  0.7786E-02  0.7786E-02  0.2046E-01  0.2046E-01
    -19.861  0.6437E-02  0.6437E-02  0.2125E-01  0.2125E-01
    -19.738  0.5831E-02  0.5831E-02  0.2197E-01  0.2197E-01
    -19.615  0.1190E-01  0.1190E-01  0.2343E-01  0.2343E-01
    -19.492  0.9096E-02  0.9096E-02  0.2455E-01  0.2455E-01
    -19.369  0.6131E-02  0.6131E-02  0.2530E-01  0.2530E-01
    -19.246  0.2401E-02  0.2401E-02  0.2560E-01  0.2560E-01
    -19.123  0.7015E-02  0.7015E-02  0.2646E-01  0.2646E-01
    -19.000  0.3601E-02  0.3601E-02  0.2690E-01  0.2690E-01
    -18.877  0.3391E-02  0.3391E-02  0.2732E-01  0.2732E-01
    -18.754  0.1612E-01  0.1612E-01  0.2930E-01  0.2930E-01
    -18.631  0.1149E-01  0.1149E-01  0.3072E-01  0.3072E-01
    -18.508  0.2442E-02  0.2442E-02  0.3102E-01  0.3102E-01
    -18.385  0.8312E-02  0.8312E-02  0.3204E-01  0.3204E-01
    -18.262  0.7437E-02  0.7437E-02  0.3295E-01  0.3295E-01
    -18.139  0.2825E-02  0.2825E-02  0.3330E-01  0.3330E-01
    -18.016  0.6028E-02  0.6028E-02  0.3404E-01  0.3404E-01
    -17.893  0.7074E-02  0.7074E-02  0.3491E-01  0.3491E-01
    -17.771  0.6638E-02  0.6638E-02  0.3573E-01  0.3573E-01
    -17.648  0.1213E-01  0.1213E-01  0.3722E-01  0.3722E-01
    -17.525  0.1284E-01  0.1284E-01  0.3880E-01  0.3880E-01
    -17.402  0.1013E-01  0.1013E-01  0.4004E-01  0.4004E-01
    -17.279  0.5856E-02  0.5856E-02  0.4076E-01  0.4076E-01
    -17.156  0.6933E-02  0.6933E-02  0.4162E-01  0.4162E-01
    -17.033  0.5280E-02  0.5280E-02  0.4227E-01  0.4227E-01
    -16.910  0.4898E-02  0.4898E-02  0.4287E-01  0.4287E-01
    -16.787  0.6053E-02  0.6053E-02  0.4361E-01  0.4361E-01
    -16.664  0.1041E-01  0.1041E-01  0.4489E-01  0.4489E-01
    -16.541  0.1852E-01  0.1852E-01  0.4717E-01  0.4717E-01
    -16.418  0.4915E-02  0.4915E-02  0.4777E-01  0.4777E-01
    -16.295  0.1833E-02  0.1833E-02  0.4800E-01  0.4800E-01
    -16.172  0.8442E-06  0.8442E-06  0.4800E-01  0.4800E-01
    -16.049  0.3958E-03  0.3958E-03  0.4805E-01  0.4805E-01
    -15.926  0.3606E-02  0.3606E-02  0.4849E-01  0.4849E-01
    -15.803  0.6064E-02  0.6064E-02  0.4924E-01  0.4924E-01
    -15.680  0.4500E-02  0.4500E-02  0.4979E-01  0.4979E-01
    -15.557  0.8025E-02  0.8025E-02  0.5078E-01  0.5078E-01
    -15.434  0.5845E-02  0.5845E-02  0.5150E-01  0.5150E-01
    -15.311  0.1028E-01  0.1028E-01  0.5276E-01  0.5276E-01
    -15.188  0.1282E-01  0.1282E-01  0.5434E-01  0.5434E-01
    -15.065  0.5602E-02  0.5602E-02  0.5503E-01  0.5503E-01
    -14.942  0.5969E-02  0.5969E-02  0.5576E-01  0.5576E-01
    -14.819  0.1136E-01  0.1136E-01  0.5716E-01  0.5716E-01
    -14.696  0.7779E-02  0.7779E-02  0.5811E-01  0.5811E-01
    -14.573  0.1078E-01  0.1078E-01  0.5944E-01  0.5944E-01
    -14.450  0.1394E-01  0.1394E-01  0.6115E-01  0.6115E-01
    -14.327  0.5269E-02  0.5269E-02  0.6180E-01  0.6180E-01
    -14.205  0.5977E-02  0.5977E-02  0.6253E-01  0.6253E-01
    -14.082  0.2656E-02  0.2656E-02  0.6286E-01  0.6286E-01
    -13.959  0.5150E-02  0.5150E-02  0.6349E-01  0.6349E-01
    -13.836  0.9023E-02  0.9023E-02  0.6460E-01  0.6460E-01
    -13.713  0.1163E-01  0.1163E-01  0.6603E-01  0.6603E-01
    -13.590  0.8845E-02  0.8845E-02  0.6712E-01  0.6712E-01
    -13.467  0.7013E-02  0.7013E-02  0.6798E-01  0.6798E-01
    -13.344  0.4041E-02  0.4041E-02  0.6848E-01  0.6848E-01
    -13.221  0.2964E-02  0.2964E-02  0.6885E-01  0.6885E-01
    -13.098  0.5570E-02  0.5570E-02  0.6953E-01  0.6953E-01
    -12.975  0.6380E-02  0.6380E-02  0.7031E-01  0.7031E-01
    -12.852  0.9686E-02  0.9686E-02  0.7151E-01  0.7151E-01
    -12.729  0.1893E-01  0.1893E-01  0.7383E-01  0.7383E-01
    -12.606  0.6196E-02  0.6196E-02  0.7460E-01  0.7460E-01
    -12.483  0.9436E-02  0.9436E-02  0.7576E-01  0.7576E-01
    -12.360  0.9010E-02  0.9010E-02  0.7686E-01  0.7686E-01
    -12.237  0.7243E-02  0.7243E-02  0.7775E-01  0.7775E-01
    -12.114  0.2739E-02  0.2739E-02  0.7809E-01  0.7809E-01
    -11.991  0.1055E-01  0.1055E-01  0.7939E-01  0.7939E-01
    -11.868  0.9479E-02  0.9479E-02  0.8055E-01  0.8055E-01
    -11.745  0.1333E-01  0.1333E-01  0.8219E-01  0.8219E-01
    -11.622  0.1074E-01  0.1074E-01  0.8351E-01  0.8351E-01
    -11.499  0.1393E-01  0.1393E-01  0.8523E-01  0.8523E-01
    -11.376  0.9336E-02  0.9336E-02  0.8637E-01  0.8637E-01
    -11.253  0.1191E-01  0.1191E-01  0.8784E-01  0.8784E-01
    -11.130  0.1065E-01  0.1065E-01  0.8915E-01  0.8915E-01
    -11.007  0.9420E-02  0.9420E-02  0.9031E-01  0.9031E-01
    -10.884  0.7361E-02  0.7361E-02  0.9121E-01  0.9121E-01
    -10.761  0.4126E-02  0.4126E-02  0.9172E-01  0.9172E-01
    -10.639  0.8060E-02  0.8060E-02  0.9271E-01  0.9271E-01
    -10.516  0.1326E-01  0.1326E-01  0.9434E-01  0.9434E-01
    -10.393  0.1436E-01  0.1436E-01  0.9611E-01  0.9611E-01
    -10.270  0.1631E-01  0.1631E-01  0.9811E-01  0.9811E-01
    -10.147  0.1897E-01  0.1897E-01  0.1004E+00  0.1004E+00
    -10.024  0.1919E-01  0.1919E-01  0.1028E+00  0.1028E+00
     -9.901  0.1778E-01  0.1778E-01  0.1050E+00  0.1050E+00
     -9.778  0.1950E-01  0.1950E-01  0.1074E+00  0.1074E+00
     -9.655  0.2426E-01  0.2426E-01  0.1104E+00  0.1104E+00
     -9.532  0.2202E-01  0.2202E-01  0.1131E+00  0.1131E+00
     -9.409  0.2169E-01  0.2169E-01  0.1157E+00  0.1157E+00
     -9.286  0.2088E-01  0.2088E-01  0.1183E+00  0.1183E+00
     -9.163  0.2158E-01  0.2158E-01  0.1210E+00  0.1210E+00
     -9.040  0.2309E-01  0.2309E-01  0.1238E+00  0.1238E+00
     -8.917  0.2029E-01  0.2029E-01  0.1263E+00  0.1263E+00
     -8.794  0.2940E-01  0.2940E-01  0.1299E+00  0.1299E+00
     -8.671  0.1093E-01  0.1093E-01  0.1313E+00  0.1313E+00
     -8.548  0.1115E-01  0.1115E-01  0.1326E+00  0.1326E+00
     -8.425  0.2095E-01  0.2095E-01  0.1352E+00  0.1352E+00
     -8.302  0.2377E-01  0.2377E-01  0.1381E+00  0.1381E+00
     -8.179  0.1946E-01  0.1946E-01  0.1405E+00  0.1405E+00
     -8.056  0.1537E-01  0.1537E-01  0.1424E+00  0.1424E+00
     -7.933  0.8376E-02  0.8376E-02  0.1434E+00  0.1434E+00
     -7.810  0.1475E-01  0.1475E-01  0.1453E+00  0.1453E+00
     -7.687  0.9246E-02  0.9246E-02  0.1464E+00  0.1464E+00
     -7.564  0.1113E-01  0.1113E-01  0.1478E+00  0.1478E+00
     -7.441  0.2742E-01  0.2742E-01  0.1511E+00  0.1511E+00
     -7.318  0.1905E-01  0.1905E-01  0.1535E+00  0.1535E+00
     -7.195  0.2165E-01  0.2165E-01  0.1561E+00  0.1561E+00
     -7.073  0.1378E-01  0.1378E-01  0.1578E+00  0.1578E+00
     -6.950  0.1560E-01  0.1560E-01  0.1598E+00  0.1598E+00
     -6.827  0.7318E-02  0.7318E-02  0.1606E+00  0.1606E+00
     -6.704  0.1052E-01  0.1052E-01  0.1619E+00  0.1619E+00
     -6.581  0.1431E-01  0.1431E-01  0.1637E+00  0.1637E+00
     -6.458  0.9597E-02  0.9597E-02  0.1649E+00  0.1649E+00
     -6.335  0.2089E-01  0.2089E-01  0.1675E+00  0.1675E+00
     -6.212  0.1503E-01  0.1503E-01  0.1693E+00  0.1693E+00
     -6.089  0.1043E-01  0.1043E-01  0.1706E+00  0.1706E+00
     -5.966  0.9743E-02  0.9743E-02  0.1718E+00  0.1718E+00
     -5.843  0.1407E-01  0.1407E-01  0.1735E+00  0.1735E+00
     -5.720  0.1080E-01  0.1080E-01  0.1748E+00  0.1748E+00
     -5.597  0.6430E-02  0.6430E-02  0.1756E+00  0.1756E+00
     -5.474  0.1296E-02  0.1296E-02  0.1758E+00  0.1758E+00
     -5.351  0.4565E-02  0.4565E-02  0.1763E+00  0.1763E+00
     -5.228  0.1699E-01  0.1699E-01  0.1784E+00  0.1784E+00
     -5.105  0.1716E-01  0.1716E-01  0.1805E+00  0.1805E+00
     -4.982  0.1475E-01  0.1475E-01  0.1824E+00  0.1824E+00
     -4.859  0.9331E-02  0.9331E-02  0.1835E+00  0.1835E+00
     -4.736  0.4015E-02  0.4015E-02  0.1840E+00  0.1840E+00
     -4.613  0.2590E-02  0.2590E-02  0.1843E+00  0.1843E+00
     -4.490  0.1197E-01  0.1197E-01  0.1858E+00  0.1858E+00
     -4.367  0.1490E-01  0.1490E-01  0.1876E+00  0.1876E+00
     -4.244  0.1029E-01  0.1029E-01  0.1889E+00  0.1889E+00
     -4.121  0.1326E-01  0.1326E-01  0.1905E+00  0.1905E+00
     -3.998  0.1648E-01  0.1648E-01  0.1925E+00  0.1925E+00
     -3.875  0.3656E-02  0.3656E-02  0.1930E+00  0.1930E+00
     -3.752  0.6837E-02  0.6837E-02  0.1938E+00  0.1938E+00
     -3.629  0.4487E-02  0.4487E-02  0.1944E+00  0.1944E+00
     -3.507  0.3119E-02  0.3119E-02  0.1948E+00  0.1948E+00
     -3.384  0.3343E-02  0.3343E-02  0.1952E+00  0.1952E+00
     -3.261  0.7473E-03  0.7473E-03  0.1953E+00  0.1953E+00
     -3.138  0.1795E-02  0.1795E-02  0.1955E+00  0.1955E+00
     -3.015  0.5533E-03  0.5533E-03  0.1956E+00  0.1956E+00
     -2.892  0.1880E-02  0.1880E-02  0.1958E+00  0.1958E+00
     -2.769  0.1650E-02  0.1650E-02  0.1960E+00  0.1960E+00
     -2.646  0.1085E-04  0.1085E-04  0.1960E+00  0.1960E+00
     -2.523  0.1335E-02  0.1335E-02  0.1962E+00  0.1962E+00
     -2.400  0.2698E-02  0.2698E-02  0.1965E+00  0.1965E+00
     -2.277  0.3371E-04  0.3371E-04  0.1965E+00  0.1965E+00
     -2.154  0.1289E-02  0.1289E-02  0.1967E+00  0.1967E+00
     -2.031  0.2490E-02  0.2490E-02  0.1970E+00  0.1970E+00
     -1.908  0.2239E-02  0.2239E-02  0.1972E+00  0.1972E+00
     -1.785  0.4628E-02  0.4628E-02  0.1978E+00  0.1978E+00
     -1.662  0.1549E-02  0.1549E-02  0.1980E+00  0.1980E+00
     -1.539  0.1978E-03  0.1978E-03  0.1980E+00  0.1980E+00
     -1.416  0.5910E-02  0.5910E-02  0.1988E+00  0.1988E+00
     -1.293  0.5017E-02  0.5017E-02  0.1994E+00  0.1994E+00
     -1.170  0.4615E-02  0.4615E-02  0.1999E+00  0.1999E+00
     -1.047  0.1725E-01  0.1725E-01  0.2021E+00  0.2021E+00
     -0.924  0.6842E-02  0.6842E-02  0.2029E+00  0.2029E+00
     -0.801  0.5832E-02  0.5832E-02  0.2036E+00  0.2036E+00
     -0.678  0.1406E-01  0.1406E-01  0.2053E+00  0.2053E+00
     -0.555  0.5596E-02  0.5596E-02  0.2060E+00  0.2060E+00
     -0.432  0.5184E-02  0.5184E-02  0.2067E+00  0.2067E+00
     -0.309  0.7729E-02  0.7729E-02  0.2076E+00  0.2076E+00
     -0.186  0.8602E-02  0.8602E-02  0.2087E+00  0.2087E+00
     -0.063  0.1196E-01  0.1196E-01  0.2101E+00  0.2101E+00
      0.059  0.1212E-01  0.1212E-01  0.2116E+00  0.2116E+00
      0.182  0.2930E-02  0.2930E-02  0.2120E+00  0.2120E+00
      0.305  0.1453E-02  0.1453E-02  0.2122E+00  0.2122E+00
      0.428  0.6805E-02  0.6805E-02  0.2130E+00  0.2130E+00
      0.551  0.7507E-02  0.7507E-02  0.2139E+00  0.2139E+00
      0.674  0.5489E-02  0.5489E-02  0.2146E+00  0.2146E+00
      0.797  0.4145E-02  0.4145E-02  0.2151E+00  0.2151E+00
      0.920  0.7925E-02  0.7925E-02  0.2161E+00  0.2161E+00
      1.043  0.1123E-01  0.1123E-01  0.2175E+00  0.2175E+00
      1.166  0.3992E-02  0.3992E-02  0.2180E+00  0.2180E+00
      1.289  0.1432E-01  0.1432E-01  0.2197E+00  0.2197E+00
      1.412  0.1996E-01  0.1996E-01  0.2222E+00  0.2222E+00
      1.535  0.1078E-01  0.1078E-01  0.2235E+00  0.2235E+00
      1.658  0.6924E-02  0.6924E-02  0.2244E+00  0.2244E+00
      1.781  0.6824E-02  0.6824E-02  0.2252E+00  0.2252E+00
      1.904  0.1386E-01  0.1386E-01  0.2269E+00  0.2269E+00
      2.027  0.2682E-01  0.2682E-01  0.2302E+00  0.2302E+00
      2.150  0.1030E-01  0.1030E-01  0.2315E+00  0.2315E+00
      2.273  0.1115E-01  0.1115E-01  0.2328E+00  0.2328E+00
      2.396  0.2202E-01  0.2202E-01  0.2355E+00  0.2355E+00
      2.519  0.1998E-01  0.1998E-01  0.2380E+00  0.2380E+00
      2.642  0.1053E-01  0.1053E-01  0.2393E+00  0.2393E+00
      2.765  0.1726E-01  0.1726E-01  0.2414E+00  0.2414E+00
      2.888  0.3530E-01  0.3530E-01  0.2458E+00  0.2458E+00
      3.011  0.4305E-01  0.4305E-01  0.2511E+00  0.2511E+00
      3.134  0.1292E-01  0.1292E-01  0.2526E+00  0.2526E+00
      3.257  0.1317E-01  0.1317E-01  0.2543E+00  0.2543E+00
      3.380  0.1825E-01  0.1825E-01  0.2565E+00  0.2565E+00
      3.503  0.2405E-01  0.2405E-01  0.2595E+00  0.2595E+00
      3.625  0.1398E-01  0.1398E-01  0.2612E+00  0.2612E+00
      3.748  0.1728E-01  0.1728E-01  0.2633E+00  0.2633E+00
      3.871  0.2938E-01  0.2938E-01  0.2669E+00  0.2669E+00
      3.994  0.3076E-01  0.3076E-01  0.2707E+00  0.2707E+00
      4.117  0.1621E-01  0.1621E-01  0.2727E+00  0.2727E+00
      4.240  0.1231E-01  0.1231E-01  0.2742E+00  0.2742E+00
      4.363  0.6368E-02  0.6368E-02  0.2750E+00  0.2750E+00
      4.486  0.4267E-04  0.4268E-04  0.2750E+00  0.2750E+00
      4.609  0.1565E-10  0.1567E-10  0.2750E+00  0.2750E+00
      4.732  0.0000E+00  0.0000E+00  0.2750E+00  0.2750E+00
      4.855  0.0000E+00  0.0000E+00  0.2750E+00  0.2750E+00
      4.978  0.0000E+00  0.0000E+00  0.2750E+00  0.2750E+00
      5.101  0.0000E+00  0.0000E+00  0.2750E+00  0.2750E+00
      5.224  0.0000E+00  0.0000E+00  0.2750E+00  0.2750E+00
      5.347  0.0000E+00  0.0000E+00  0.2750E+00  0.2750E+00
      5.470  0.0000E+00  0.0000E+00  0.2750E+00  0.2750E+00
      5.593  0.0000E+00  0.0000E+00  0.2750E+00  0.2750E+00
      5.716  0.0000E+00  0.0000E+00  0.2750E+00  0.2750E+00
      5.839  0.0000E+00  0.0000E+00  0.2750E+00  0.2750E+00
      5.962  0.0000E+00  0.0000E+00  0.2750E+00  0.2750E+00
