 vasp.6.4.2 20Jul23 (build Aug 26 2025 15:10:52) complex                        
  
 POSCAR found type information on POSCAR C F N H O 
 02/POSCAR found :  5 types and      95 ions
 Reading from existing POTCAR
 scaLAPACK will be used
 -----------------------------------------------------------------------------
|                                                                             |
|           W    W    AA    RRRRR   N    N  II  N    N   GGGG   !!!           |
|           W    W   A  A   R    R  NN   N  II  NN   N  G    G  !!!           |
|           W    W  A    A  R    R  N N  N  II  N N  N  G       !!!           |
|           W WW W  AAAAAA  RRRRR   N  N N  II  N  N N  G  GGG   !            |
|           WW  WW  A    A  R   R   N   NN  II  N   NN  G    G                |
|           W    W  A    A  R    R  N    N  II  N    N   GGGG   !!!           |
|                                                                             |
|     For optimal performance we recommend to set                             |
|       NCORE = 2 up to number-of-cores-per-socket                            |
|     NCORE specifies how many cores store one orbital (NPAR=cpu/NCORE).      |
|     This setting can greatly improve the performance of VASP for DFT.       |
|     The default, NCORE=1 might be grossly inefficient on modern             |
|     multi-core architectures or massively parallel machines. Do your        |
|     own testing! More info at https://www.vasp.at/wiki/index.php/NCORE      |
|     Unfortunately you need to use the default for GW and RPA                |
|     calculations (for HF NCORE is supported but not extensively tested      |
|     yet).                                                                   |
|                                                                             |
 -----------------------------------------------------------------------------

 Reading from existing POTCAR
 LDA part: xc-table for Pade appr. of Perdew
 POSCAR found type information on POSCAR C F N H O 
 00/POSCAR found :  5 types and      95 ions
 POSCAR found type information on POSCAR C F N H O 
 06/POSCAR found :  5 types and      95 ions
 Jacobian:    33.5511073471780     
 POSCAR found type information on POSCAR C F N H O 
 00/POSCAR found :  5 types and      95 ions
 POSCAR found type information on POSCAR C F N H O 
 06/POSCAR found :  5 types and      95 ions
 POSCAR, INCAR and KPOINTS ok, starting setup
 FFT: planning ... GRIDC
 FFT: planning ... GRID_SOFT
 FFT: planning ... GRID
 WAVECAR not read
 entering main loop
       N       E                     dE             d eps       ncg     rms          rms(c)
DAV:   1     0.363791646650E+04    0.36379E+04   -0.14930E+05  4740   0.109E+03
DAV:   2    -0.178933170237E+03   -0.38168E+04   -0.36014E+04  6600   0.270E+02
DAV:   3    -0.850964517534E+03   -0.67203E+03   -0.66881E+03  5470   0.118E+02
DAV:   4    -0.873458881157E+03   -0.22494E+02   -0.22385E+02  5470   0.270E+01
DAV:   5    -0.874157664535E+03   -0.69878E+00   -0.69780E+00  6260   0.404E+00    0.518E+01
DAV:   6    -0.857237558407E+03    0.16920E+02   -0.21141E+01  5360   0.844E+00    0.335E+01
DAV:   7    -0.837001593230E+03    0.20236E+02   -0.32597E+01  5200   0.931E+00    0.203E+01
DAV:   8    -0.832352866677E+03    0.46487E+01   -0.20496E+01  5230   0.691E+00    0.812E+00
DAV:   9    -0.832458090704E+03   -0.10522E+00   -0.98434E-01  5160   0.189E+00    0.357E+00
DAV:  10    -0.832295100513E+03    0.16299E+00   -0.48336E-01  5060   0.126E+00    0.109E+00
DAV:  11    -0.832281094124E+03    0.14006E-01   -0.10611E-01  5070   0.597E-01    0.286E-01
DAV:  12    -0.832281132092E+03   -0.37968E-04   -0.10996E-02  5270   0.254E-01    0.130E-01
DAV:  13    -0.832281342142E+03   -0.21005E-03   -0.18477E-03  5240   0.880E-02    0.983E-02
DAV:  14    -0.832281371850E+03   -0.29708E-04   -0.27902E-04  5220   0.372E-02    0.606E-02
DAV:  15    -0.832281434422E+03   -0.62572E-04   -0.20911E-04  4940   0.312E-02    0.260E-02
DAV:  16    -0.832281431574E+03    0.28479E-05   -0.40357E-05  4510   0.168E-02
   1 F= -.83995008E+03 E0= -.83995008E+03  d E =-.839950E+03  mag=     0.0004
quench:  g(F)=  0.000E+00 g(S)=  0.000E+00 dE (1.order)= 0.000E+00
 bond charge predicted
       N       E                     dE             d eps       ncg     rms          rms(c)
DAV:   1    -0.832282909879E+03   -0.14755E-02   -0.94469E-02  4760   0.348E-01    0.665E-02
DAV:   2    -0.832283008939E+03   -0.99060E-04   -0.16526E-03  4810   0.455E-02    0.420E-02
DAV:   3    -0.832282995730E+03    0.13209E-04   -0.54490E-05  4150   0.114E-02    0.275E-02
DAV:   4    -0.832283000168E+03   -0.44386E-05   -0.22010E-05  3550   0.768E-03
   2 F= -.83995161E+03 E0= -.83995161E+03  d E =-.152778E-02  mag=     0.0000
quench:  g(F)=  0.000E+00 g(S)=  0.000E+00 dE (1.order)= 0.000E+00
 bond charge predicted
       N       E                     dE             d eps       ncg     rms          rms(c)
DAV:   1    -0.832284976455E+03   -0.19807E-02   -0.29191E-01  4640   0.565E-01    0.110E-01
DAV:   2    -0.832285263518E+03   -0.28706E-03   -0.44693E-03  4710   0.690E-02    0.673E-02
DAV:   3    -0.832285241787E+03    0.21732E-04   -0.10552E-04  4400   0.147E-02    0.473E-02
DAV:   4    -0.832285269654E+03   -0.27867E-04   -0.68057E-05  3890   0.126E-02    0.164E-02
DAV:   5    -0.832285283966E+03   -0.14312E-04   -0.23959E-05  3520   0.575E-03    0.747E-03
DAV:   6    -0.832285283845E+03    0.12173E-06   -0.48431E-06  3240   0.460E-03
   3 F= -.83995382E+03 E0= -.83995382E+03  d E =-.220408E-02  mag=    -0.0000
quench:  g(F)=  0.000E+00 g(S)=  0.000E+00 dE (1.order)= 0.000E+00
 bond charge predicted
       N       E                     dE             d eps       ncg     rms          rms(c)
DAV:   1    -0.832287987750E+03   -0.27038E-02   -0.48725E-01  4640   0.706E-01    0.124E-01
DAV:   2    -0.832288462216E+03   -0.47447E-03   -0.65300E-03  4680   0.812E-02    0.814E-02
DAV:   3    -0.832288431927E+03    0.30289E-04   -0.10953E-04  4340   0.158E-02    0.613E-02
DAV:   4    -0.832288482881E+03   -0.50955E-04   -0.19781E-04  4220   0.206E-02    0.135E-02
DAV:   5    -0.832288490328E+03   -0.74470E-05   -0.32600E-05  3640   0.711E-03
   4 F= -.83995691E+03 E0= -.83995691E+03  d E =-.309190E-02  mag=     0.0000
quench:  g(F)=  0.000E+00 g(S)=  0.000E+00 dE (1.order)= 0.000E+00
 bond charge predicted
       N       E                     dE             d eps       ncg     rms          rms(c)
DAV:   1    -0.832291635794E+03   -0.31529E-02   -0.69656E-01  4620   0.859E-01    0.142E-01
DAV:   2    -0.832292373437E+03   -0.73764E-03   -0.93175E-03  4690   0.985E-02    0.102E-01
DAV:   3    -0.832292329857E+03    0.43579E-04   -0.13842E-04  4615   0.187E-02    0.789E-02
DAV:   4    -0.832292416684E+03   -0.86827E-04   -0.47230E-04  4320   0.315E-02    0.245E-02
DAV:   5    -0.832292414598E+03    0.20860E-05   -0.60399E-05  3990   0.105E-02
   5 F= -.83996069E+03 E0= -.83996069E+03  d E =-.377896E-02  mag=    -0.0000
quench:  g(F)=  0.000E+00 g(S)=  0.000E+00 dE (1.order)= 0.000E+00
 bond charge predicted
       N       E                     dE             d eps       ncg     rms          rms(c)
DAV:   1    -0.832295347927E+03   -0.29312E-02   -0.99631E-01  4610   0.105E+00    0.168E-01
DAV:   2    -0.832296454074E+03   -0.11061E-02   -0.13596E-02  4660   0.123E-01    0.122E-01
DAV:   3    -0.832296385109E+03    0.68964E-04   -0.19609E-04  4670   0.222E-02    0.951E-02
DAV:   4    -0.832296502316E+03   -0.11721E-03   -0.74624E-04  4320   0.389E-02    0.321E-02
DAV:   5    -0.832296497542E+03    0.47732E-05   -0.91956E-05  4420   0.128E-02
   6 F= -.83996460E+03 E0= -.83996460E+03  d E =-.391514E-02  mag=    -0.0000
quench:  g(F)=  0.000E+00 g(S)=  0.000E+00 dE (1.order)= 0.000E+00
 bond charge predicted
       N       E                     dE             d eps       ncg     rms          rms(c)
DAV:   1    -0.832299119357E+03   -0.26170E-02   -0.14072E+00  4610   0.133E+00    0.208E-01
DAV:   2    -0.832300819898E+03   -0.17005E-02   -0.20913E-02  4680   0.162E-01    0.141E-01
DAV:   3    -0.832300724389E+03    0.95509E-04   -0.28834E-04  4900   0.270E-02    0.110E-01
DAV:   4    -0.832300857926E+03   -0.13354E-03   -0.85118E-04  4400   0.434E-02    0.299E-02
DAV:   5    -0.832300864153E+03   -0.62266E-05   -0.11855E-04  4780   0.146E-02    0.274E-02
DAV:   6    -0.832300852585E+03    0.11568E-04   -0.69843E-05  3930   0.155E-02    0.102E-02
DAV:   7    -0.832300852638E+03   -0.53129E-07   -0.10369E-05  3640   0.556E-03
   7 F= -.83996878E+03 E0= -.83996878E+03  d E =-.418199E-02  mag=     0.0000
quench:  g(F)=  0.000E+00 g(S)=  0.000E+00 dE (1.order)= 0.000E+00
 bond charge predicted
       N       E                     dE             d eps       ncg     rms          rms(c)
DAV:   1    -0.832303011131E+03   -0.21585E-02   -0.22206E+00  4590   0.179E+00    0.275E-01
DAV:   2    -0.832305973727E+03   -0.29626E-02   -0.36487E-02  4680   0.225E-01    0.175E-01
DAV:   3    -0.832305813011E+03    0.16072E-03   -0.52222E-04  5060   0.358E-02    0.134E-01
DAV:   4    -0.832305925517E+03   -0.11251E-03   -0.10135E-03  4440   0.475E-02    0.316E-02
DAV:   5    -0.832305960597E+03   -0.35080E-04   -0.17079E-04  4890   0.167E-02    0.263E-02
DAV:   6    -0.832305952873E+03    0.77243E-05   -0.56177E-05  4030   0.148E-02
   8 F= -.83997371E+03 E0= -.83997371E+03  d E =-.492201E-02  mag=    -0.0000
quench:  g(F)=  0.000E+00 g(S)=  0.000E+00 dE (1.order)= 0.000E+00
 bond charge predicted
       N       E                     dE             d eps       ncg     rms          rms(c)
DAV:   1    -0.832306958661E+03   -0.99806E-03   -0.31515E+00  4570   0.231E+00    0.325E-01
DAV:   2    -0.832311659334E+03   -0.47007E-02   -0.55306E-02  4615   0.297E-01    0.210E-01
DAV:   3    -0.832311450776E+03    0.20856E-03   -0.71604E-04  5130   0.445E-02    0.163E-01
DAV:   4    -0.832311636880E+03   -0.18610E-03   -0.16762E-03  4480   0.644E-02    0.422E-02
DAV:   5    -0.832311665302E+03   -0.28421E-04   -0.26245E-04  4940   0.224E-02    0.374E-02
DAV:   6    -0.832311648141E+03    0.17160E-04   -0.13425E-04  4240   0.215E-02    0.150E-02
DAV:   7    -0.832311649108E+03   -0.96692E-06   -0.19373E-05  3920   0.754E-03
   9 F= -.83997922E+03 E0= -.83997922E+03  d E =-.551256E-02  mag=     0.0000
quench:  g(F)=  0.000E+00 g(S)=  0.000E+00 dE (1.order)= 0.000E+00
 bond charge predicted
       N       E                     dE             d eps       ncg     rms          rms(c)
DAV:   1    -0.832310952441E+03    0.69570E-03   -0.42962E+00  4560   0.293E+00    0.364E-01
DAV:   2    -0.832317905135E+03   -0.69527E-02   -0.78626E-02  4620   0.382E-01    0.249E-01
DAV:   3    -0.832317578560E+03    0.32658E-03   -0.94816E-04  5260   0.529E-02    0.197E-01
DAV:   4    -0.832317838834E+03   -0.26027E-03   -0.30861E-03  4600   0.855E-02    0.628E-02
DAV:   5    -0.832317840685E+03   -0.18506E-05   -0.43275E-04  4940   0.295E-02    0.566E-02
DAV:   6    -0.832317804663E+03    0.36022E-04   -0.35474E-04  4240   0.297E-02    0.173E-02
DAV:   7    -0.832317807262E+03   -0.25988E-05   -0.30930E-05  4130   0.924E-03
  10 F= -.83998519E+03 E0= -.83998519E+03  d E =-.596782E-02  mag=     0.0000
quench:  g(F)=  0.000E+00 g(S)=  0.000E+00 dE (1.order)= 0.000E+00
 bond charge predicted
       N       E                     dE             d eps       ncg     rms          rms(c)
DAV:   1    -0.832312120160E+03    0.56845E-02   -0.64627E+00  4560   0.391E+00    0.460E-01
DAV:   2    -0.832323988855E+03   -0.11869E-01   -0.13299E-01  4640   0.523E-01    0.301E-01
DAV:   3    -0.832323556667E+03    0.43219E-03   -0.15091E-03  5280   0.685E-02    0.237E-01
DAV:   4    -0.832323896467E+03   -0.33980E-03   -0.37229E-03  4740   0.983E-02    0.675E-02
DAV:   5    -0.832323923788E+03   -0.27321E-04   -0.56469E-04  4960   0.352E-02    0.588E-02
DAV:   6    -0.832323888007E+03    0.35781E-04   -0.38207E-04  4220   0.314E-02    0.203E-02
DAV:   7    -0.832323891170E+03   -0.31622E-05   -0.36284E-05  4280   0.101E-02
  11 F= -.83999112E+03 E0= -.83999112E+03  d E =-.593253E-02  mag=     0.0000
quench:  g(F)=  0.000E+00 g(S)=  0.000E+00 dE (1.order)= 0.000E+00
 bond charge predicted
       N       E                     dE             d eps       ncg     rms          rms(c)
DAV:   1    -0.832310797561E+03    0.13090E-01   -0.98444E+00  4540   0.507E+00    0.593E-01
DAV:   2    -0.832330355462E+03   -0.19558E-01   -0.22134E-01  4630   0.699E-01    0.370E-01
DAV:   3    -0.832329721292E+03    0.63417E-03   -0.27960E-03  5220   0.921E-02    0.289E-01
DAV:   4    -0.832330047284E+03   -0.32599E-03   -0.41418E-03  4960   0.110E-01    0.781E-02
DAV:   5    -0.832330199961E+03   -0.15268E-03   -0.77970E-04  4980   0.417E-02    0.595E-02
DAV:   6    -0.832330170502E+03    0.29458E-04   -0.39116E-04  4240   0.324E-02    0.245E-02
DAV:   7    -0.832330175724E+03   -0.52214E-05   -0.43761E-05  4360   0.110E-02
  12 F= -.83999726E+03 E0= -.83999726E+03  d E =-.613807E-02  mag=     0.0000
quench:  g(F)=  0.000E+00 g(S)=  0.000E+00 dE (1.order)= 0.000E+00
 bond charge predicted
       N       E                     dE             d eps       ncg     rms          rms(c)
DAV:   1    -0.832312075701E+03    0.18095E-01   -0.11931E+01  4540   0.590E+00    0.631E-01
DAV:   2    -0.832337163147E+03   -0.25087E-01   -0.27574E-01  4655   0.813E-01    0.423E-01
DAV:   3    -0.832336303241E+03    0.85991E-03   -0.30909E-03  5340   0.104E-01    0.335E-01
DAV:   4    -0.832336975001E+03   -0.67176E-03   -0.76894E-03  5200   0.148E-01    0.108E-01
DAV:   5    -0.832336965325E+03    0.96759E-05   -0.10855E-03  4960   0.535E-02    0.896E-02
DAV:   6    -0.832336904206E+03    0.61119E-04   -0.10991E-03  4380   0.478E-02    0.273E-02
DAV:   7    -0.832336911400E+03   -0.71938E-05   -0.76689E-05  4620   0.142E-02
  13 F= -.84000389E+03 E0= -.84000389E+03  d E =-.662868E-02  mag=     0.0000
quench:  g(F)=  0.000E+00 g(S)=  0.000E+00 dE (1.order)= 0.000E+00
 bond charge predicted
       N       E                     dE             d eps       ncg     rms          rms(c)
DAV:   1    -0.832302788651E+03    0.34116E-01   -0.18006E+01  4520   0.739E+00    0.832E-01
DAV:   2    -0.832341956126E+03   -0.39167E-01   -0.44460E-01  4650   0.106E+00    0.522E-01
DAV:   3    -0.832340690778E+03    0.12653E-02   -0.64581E-03  5510   0.145E-01    0.405E-01
DAV:   4    -0.832340780440E+03   -0.89662E-04   -0.64154E-03  5040   0.153E-01    0.128E-01
DAV:   5    -0.832341221971E+03   -0.44153E-03   -0.15850E-03  4880   0.644E-02    0.812E-02
DAV:   6    -0.832341174241E+03    0.47730E-04   -0.76107E-04  4800   0.452E-02    0.331E-02
DAV:   7    -0.832341187633E+03   -0.13392E-04   -0.83971E-05  4840   0.155E-02    0.224E-02
DAV:   8    -0.832341182083E+03    0.55503E-05   -0.30459E-05  3890   0.102E-02
  14 F= -.84000807E+03 E0= -.84000807E+03  d E =-.417996E-02  mag=     0.0000
quench:  g(F)=  0.000E+00 g(S)=  0.000E+00 dE (1.order)= 0.000E+00
 bond charge predicted
       N       E                     dE             d eps       ncg     rms          rms(c)
DAV:   1    -0.832346595260E+03   -0.54076E-02   -0.27648E-01  4495   0.109E+00    0.122E-01
DAV:   2    -0.832347095678E+03   -0.50042E-03   -0.72514E-03  5340   0.165E-01    0.106E-01
DAV:   3    -0.832346960504E+03    0.13517E-03   -0.35461E-04  5840   0.374E-02    0.791E-02
DAV:   4    -0.832346851561E+03    0.10894E-03   -0.22393E-04  4570   0.325E-02    0.358E-02
DAV:   5    -0.832346843697E+03    0.78644E-05   -0.72136E-05  4570   0.165E-02
  15 F= -.84001374E+03 E0= -.84001374E+03  d E =-.567377E-02  mag=     0.0000
quench:  g(F)=  0.000E+00 g(S)=  0.000E+00 dE (1.order)= 0.000E+00
 bond charge predicted
       N       E                     dE             d eps       ncg     rms          rms(c)
DAV:   1    -0.832343272662E+03    0.35789E-02   -0.27594E-01  4470   0.110E+00    0.121E-01
DAV:   2    -0.832343805783E+03   -0.53312E-03   -0.72782E-03  5280   0.167E-01    0.104E-01
DAV:   3    -0.832343694080E+03    0.11170E-03   -0.32475E-04  5580   0.361E-02    0.774E-02
DAV:   4    -0.832343611240E+03    0.82840E-04   -0.21669E-04  4570   0.314E-02    0.354E-02
DAV:   5    -0.832343607895E+03    0.33445E-05   -0.61993E-05  4500   0.156E-02
  16 F= -.84001053E+03 E0= -.84001053E+03  d E =0.321092E-02  mag=     0.0000
quench:  g(F)=  0.000E+00 g(S)=  0.000E+00 dE (1.order)= 0.000E+00
 bond charge predicted
       N       E                     dE             d eps       ncg     rms          rms(c)
DAV:   1    -0.832345459818E+03   -0.18486E-02   -0.14660E-02  4510   0.251E-01    0.279E-02
DAV:   2    -0.832345484210E+03   -0.24392E-04   -0.40132E-04  5290   0.388E-02    0.246E-02
DAV:   3    -0.832345475646E+03    0.85643E-05   -0.18195E-05  3230   0.911E-03
  17 F= -.84001240E+03 E0= -.84001240E+03  d E =-.187523E-02  mag=    -0.0000
quench:  g(F)=  0.000E+00 g(S)=  0.000E+00 dE (1.order)= 0.000E+00
 bond charge predicted
       N       E                     dE             d eps       ncg     rms          rms(c)
DAV:   1    -0.832347473073E+03   -0.19889E-02   -0.44732E-02  4510   0.439E-01    0.532E-02
DAV:   2    -0.832347545169E+03   -0.72096E-04   -0.11079E-03  5440   0.649E-02    0.458E-02
DAV:   3    -0.832347520485E+03    0.24684E-04   -0.57198E-05  5330   0.153E-02    0.330E-02
DAV:   4    -0.832347504563E+03    0.15922E-04   -0.38239E-05  4310   0.138E-02    0.135E-02
DAV:   5    -0.832347504366E+03    0.19649E-06   -0.11250E-05  2900   0.654E-03
  18 F= -.84001445E+03 E0= -.84001445E+03  d E =-.204188E-02  mag=    -0.0000
quench:  g(F)=  0.000E+00 g(S)=  0.000E+00 dE (1.order)= 0.000E+00
 bond charge predicted
       N       E                     dE             d eps       ncg     rms          rms(c)
DAV:   1    -0.832347873250E+03   -0.36869E-03   -0.65894E-02  4490   0.534E-01    0.583E-02
DAV:   2    -0.832348000395E+03   -0.12715E-03   -0.17413E-03  5370   0.808E-02    0.492E-02
DAV:   3    -0.832347974103E+03    0.26292E-04   -0.76084E-05  5510   0.173E-02    0.366E-02
DAV:   4    -0.832347954779E+03    0.19324E-04   -0.45007E-05  4360   0.147E-02    0.166E-02
DAV:   5    -0.832347954181E+03    0.59834E-06   -0.14187E-05  3040   0.760E-03
  19 F= -.84001491E+03 E0= -.84001491E+03  d E =-.466122E-03  mag=    -0.0000
quench:  g(F)=  0.000E+00 g(S)=  0.000E+00 dE (1.order)= 0.000E+00
 bond charge predicted
       N       E                     dE             d eps       ncg     rms          rms(c)
DAV:   1    -0.832347993479E+03   -0.38700E-04   -0.82214E-05  4250   0.185E-02    0.348E-03
DAV:   2    -0.832347993553E+03   -0.74571E-07   -0.25795E-06  2320   0.330E-03
  20 F= -.84001495E+03 E0= -.84001495E+03  d E =-.401656E-04  mag=     0.0000
quench:  g(F)=  0.000E+00 g(S)=  0.000E+00 dE (1.order)= 0.000E+00
 bond charge predicted
       N       E                     dE             d eps       ncg     rms          rms(c)
DAV:   1    -0.832348066409E+03   -0.72930E-04   -0.28837E-04  4420   0.346E-02    0.425E-03
DAV:   2    -0.832348066819E+03   -0.40958E-06   -0.68045E-06  2460   0.516E-03
  21 F= -.84001503E+03 E0= -.84001503E+03  d E =-.748432E-04  mag=     0.0000
quench:  g(F)=  0.000E+00 g(S)=  0.000E+00 dE (1.order)= 0.000E+00
 bond charge predicted
       N       E                     dE             d eps       ncg     rms          rms(c)
DAV:   1    -0.832348165177E+03   -0.98768E-04   -0.62492E-04  4470   0.508E-02    0.705E-03
DAV:   2    -0.832348165961E+03   -0.78376E-06   -0.14599E-05  3020   0.747E-03
  22 F= -.84001513E+03 E0= -.84001513E+03  d E =-.101508E-03  mag=     0.0000
quench:  g(F)=  0.000E+00 g(S)=  0.000E+00 dE (1.order)= 0.000E+00
 bond charge predicted
       N       E                     dE             d eps       ncg     rms          rms(c)
DAV:   1    -0.832348280033E+03   -0.11486E-03   -0.10378E-03  4450   0.648E-02    0.976E-03
DAV:   2    -0.832348281325E+03   -0.12921E-05   -0.24574E-05  3680   0.948E-03
  23 F= -.84001525E+03 E0= -.84001525E+03  d E =-.118495E-03  mag=     0.0000
quench:  g(F)=  0.000E+00 g(S)=  0.000E+00 dE (1.order)= 0.000E+00
 bond charge predicted
       N       E                     dE             d eps       ncg     rms          rms(c)
DAV:   1    -0.832348403792E+03   -0.12376E-03   -0.15022E-03  4490   0.768E-02    0.122E-02
DAV:   2    -0.832348405631E+03   -0.18395E-05   -0.35094E-05  4110   0.110E-02
  24 F= -.84001538E+03 E0= -.84001538E+03  d E =-.128219E-03  mag=     0.0000
quench:  g(F)=  0.000E+00 g(S)=  0.000E+00 dE (1.order)= 0.000E+00
 bond charge predicted
       N       E                     dE             d eps       ncg     rms          rms(c)
DAV:   1    -0.832348533705E+03   -0.12991E-03   -0.19764E-03  4495   0.862E-02    0.143E-02
DAV:   2    -0.832348535981E+03   -0.22763E-05   -0.44374E-05  4490   0.121E-02
  25 F= -.84001551E+03 E0= -.84001551E+03  d E =-.135035E-03  mag=     0.0000
quench:  g(F)=  0.000E+00 g(S)=  0.000E+00 dE (1.order)= 0.000E+00
 bond charge predicted
       N       E                     dE             d eps       ncg     rms          rms(c)
DAV:   1    -0.832348689461E+03   -0.15576E-03   -0.30206E-03  4505   0.103E-01    0.170E-02
DAV:   2    -0.832348693291E+03   -0.38302E-05   -0.67754E-05  4610   0.145E-02
  26 F= -.84001567E+03 E0= -.84001567E+03  d E =-.163283E-03  mag=     0.0000
quench:  g(F)=  0.000E+00 g(S)=  0.000E+00 dE (1.order)= 0.000E+00
 bond charge predicted
       N       E                     dE             d eps       ncg     rms          rms(c)
DAV:   1    -0.832348891133E+03   -0.20167E-03   -0.44905E-03  4545   0.121E-01    0.204E-02
DAV:   2    -0.832348896752E+03   -0.56193E-05   -0.97432E-05  4740   0.168E-02
  27 F= -.84001588E+03 E0= -.84001588E+03  d E =-.210819E-03  mag=     0.0000
quench:  g(F)=  0.000E+00 g(S)=  0.000E+00 dE (1.order)= 0.000E+00
 bond charge predicted
       N       E                     dE             d eps       ncg     rms          rms(c)
DAV:   1    -0.832349171835E+03   -0.28070E-03   -0.67045E-03  4575   0.142E-01    0.247E-02
DAV:   2    -0.832349180258E+03   -0.84237E-05   -0.14106E-04  4500   0.194E-02    0.190E-02
DAV:   3    -0.832349180539E+03   -0.28056E-06   -0.29534E-06  2900   0.372E-03
  28 F= -.84001618E+03 E0= -.84001618E+03  d E =-.292666E-03  mag=     0.0000
quench:  g(F)=  0.000E+00 g(S)=  0.000E+00 dE (1.order)= 0.000E+00
 bond charge predicted
       N       E                     dE             d eps       ncg     rms          rms(c)
DAV:   1    -0.832349570849E+03   -0.39059E-03   -0.10059E-02  4550   0.168E-01    0.212E-02
DAV:   2    -0.832349586906E+03   -0.16057E-04   -0.20429E-04  4510   0.225E-02    0.141E-02
DAV:   3    -0.832349586828E+03    0.77365E-07   -0.26112E-06  2595   0.314E-03
  29 F= -.84001659E+03 E0= -.84001659E+03  d E =-.416705E-03  mag=     0.0000
quench:  g(F)=  0.000E+00 g(S)=  0.000E+00 dE (1.order)= 0.000E+00
 bond charge predicted
       N       E                     dE             d eps       ncg     rms          rms(c)
DAV:   1    -0.832350125196E+03   -0.53829E-03   -0.16060E-02  4550   0.208E-01    0.268E-02
DAV:   2    -0.832350151541E+03   -0.26346E-04   -0.33170E-04  4490   0.282E-02    0.180E-02
DAV:   3    -0.832350150916E+03    0.62500E-06   -0.46192E-06  3180   0.406E-03
  30 F= -.84001717E+03 E0= -.84001717E+03  d E =-.576100E-03  mag=     0.0000
quench:  g(F)=  0.000E+00 g(S)=  0.000E+00 dE (1.order)= 0.000E+00
 bond charge predicted
       N       E                     dE             d eps       ncg     rms          rms(c)
DAV:   1    -0.832350856160E+03   -0.70462E-03   -0.25856E-02  4540   0.258E-01    0.350E-02
DAV:   2    -0.832350897873E+03   -0.41713E-04   -0.52948E-04  4530   0.349E-02    0.235E-02
DAV:   3    -0.832350896789E+03    0.10837E-05   -0.78173E-06  3495   0.516E-03
  31 F= -.84001793E+03 E0= -.84001793E+03  d E =-.758946E-03  mag=     0.0000
quench:  g(F)=  0.000E+00 g(S)=  0.000E+00 dE (1.order)= 0.000E+00
 bond charge predicted
       N       E                     dE             d eps       ncg     rms          rms(c)
DAV:   1    -0.832351803200E+03   -0.90533E-03   -0.41655E-02  4540   0.315E-01    0.452E-02
DAV:   2    -0.832351868463E+03   -0.65263E-04   -0.83347E-04  4480   0.422E-02    0.302E-02
DAV:   3    -0.832351866830E+03    0.16329E-05   -0.12589E-05  3895   0.631E-03
  32 F= -.84001891E+03 E0= -.84001891E+03  d E =-.983293E-03  mag=     0.0000
quench:  g(F)=  0.000E+00 g(S)=  0.000E+00 dE (1.order)= 0.000E+00
 bond charge predicted
       N       E                     dE             d eps       ncg     rms          rms(c)
DAV:   1    -0.832353040763E+03   -0.11723E-02   -0.67913E-02  4540   0.382E-01    0.581E-02
DAV:   2    -0.832353142900E+03   -0.10214E-03   -0.13170E-03  4460   0.506E-02    0.385E-02
DAV:   3    -0.832353140817E+03    0.20827E-05   -0.19720E-05  4040   0.750E-03
  33 F= -.84002020E+03 E0= -.84002020E+03  d E =-.128604E-02  mag=     0.0000
quench:  g(F)=  0.000E+00 g(S)=  0.000E+00 dE (1.order)= 0.000E+00
 bond charge predicted
       N       E                     dE             d eps       ncg     rms          rms(c)
DAV:   1    -0.832354699238E+03   -0.15563E-02   -0.11215E-01  4560   0.474E-01    0.748E-02
DAV:   2    -0.832354862990E+03   -0.16375E-03   -0.21209E-03  4440   0.620E-02    0.493E-02
DAV:   3    -0.832354859827E+03    0.31633E-05   -0.31334E-05  4160   0.914E-03
  34 F= -.84002193E+03 E0= -.84002193E+03  d E =-.172788E-02  mag=     0.0000
quench:  g(F)=  0.000E+00 g(S)=  0.000E+00 dE (1.order)= 0.000E+00
 bond charge predicted
       N       E                     dE             d eps       ncg     rms          rms(c)
DAV:   1    -0.832356917519E+03   -0.20545E-02   -0.19082E-01  4530   0.610E-01    0.975E-02
DAV:   2    -0.832357195536E+03   -0.27802E-03   -0.35817E-03  4440   0.798E-02    0.642E-02
DAV:   3    -0.832357189914E+03    0.56220E-05   -0.53835E-05  4495   0.119E-02
  35 F= -.84002426E+03 E0= -.84002426E+03  d E =-.233356E-02  mag=     0.0000
quench:  g(F)=  0.000E+00 g(S)=  0.000E+00 dE (1.order)= 0.000E+00
 bond charge predicted
       N       E                     dE             d eps       ncg     rms          rms(c)
DAV:   1    -0.832359784379E+03   -0.25888E-02   -0.32968E-01  4520   0.802E-01    0.128E-01
DAV:   2    -0.832360265306E+03   -0.48093E-03   -0.61567E-03  4440   0.105E-01    0.846E-02
DAV:   3    -0.832360255405E+03    0.99009E-05   -0.93114E-05  4750   0.155E-02
  36 F= -.84002732E+03 E0= -.84002732E+03  d E =-.306052E-02  mag=     0.0000
quench:  g(F)=  0.000E+00 g(S)=  0.000E+00 dE (1.order)= 0.000E+00
 bond charge predicted
       N       E                     dE             d eps       ncg     rms          rms(c)
DAV:   1    -0.832363435834E+03   -0.31705E-02   -0.51115E-01  4540   0.101E+00    0.159E-01
DAV:   2    -0.832364195587E+03   -0.75975E-03   -0.95190E-03  4430   0.132E-01    0.106E-01
DAV:   3    -0.832364180629E+03    0.14958E-04   -0.13721E-04  4875   0.188E-02    0.811E-02
DAV:   4    -0.832364269095E+03   -0.88467E-04   -0.27108E-04  4315   0.226E-02    0.170E-02
DAV:   5    -0.832364269904E+03   -0.80876E-06   -0.31950E-05  3910   0.806E-03
  37 F= -.84003132E+03 E0= -.84003132E+03  d E =-.400451E-02  mag=     0.0000
quench:  g(F)=  0.000E+00 g(S)=  0.000E+00 dE (1.order)= 0.000E+00
 bond charge predicted
       N       E                     dE             d eps       ncg     rms          rms(c)
DAV:   1    -0.832367880931E+03   -0.36118E-02   -0.73395E-01  4560   0.123E+00    0.180E-01
DAV:   2    -0.832369122358E+03   -0.12414E-02   -0.14603E-02  4575   0.165E-01    0.124E-01
DAV:   3    -0.832369076418E+03    0.45940E-04   -0.19314E-04  5000   0.228E-02    0.966E-02
DAV:   4    -0.832369187467E+03   -0.11105E-03   -0.63389E-04  4430   0.339E-02    0.302E-02
DAV:   5    -0.832369181071E+03    0.63959E-05   -0.66113E-05  4290   0.117E-02
  38 F= -.84003623E+03 E0= -.84003623E+03  d E =-.490097E-02  mag=     0.0000
quench:  g(F)=  0.000E+00 g(S)=  0.000E+00 dE (1.order)= 0.000E+00
 bond charge predicted
       N       E                     dE             d eps       ncg     rms          rms(c)
DAV:   1    -0.832372961702E+03   -0.37742E-02   -0.92852E-01  4540   0.140E+00    0.205E-01
DAV:   2    -0.832374618125E+03   -0.16564E-02   -0.19182E-02  4575   0.190E-01    0.142E-01
DAV:   3    -0.832374560737E+03    0.57388E-04   -0.25134E-04  5160   0.261E-02    0.112E-01
DAV:   4    -0.832374706899E+03   -0.14616E-03   -0.88903E-04  4430   0.399E-02    0.372E-02
DAV:   5    -0.832374695642E+03    0.11257E-04   -0.92668E-05  4540   0.138E-02    0.316E-02
DAV:   6    -0.832374678657E+03    0.16985E-04   -0.15228E-04  4300   0.167E-02    0.842E-03
DAV:   7    -0.832374678846E+03   -0.18845E-06   -0.95755E-06  3380   0.472E-03
  39 F= -.84004172E+03 E0= -.84004172E+03  d E =-.549379E-02  mag=    -0.0000
quench:  g(F)=  0.000E+00 g(S)=  0.000E+00 dE (1.order)= 0.000E+00
 bond charge predicted
       N       E                     dE             d eps       ncg     rms          rms(c)
DAV:   1    -0.832378546212E+03   -0.38676E-02   -0.98176E-01  4540   0.148E+00    0.213E-01
DAV:   2    -0.832380334642E+03   -0.17884E-02   -0.20742E-02  4600   0.200E-01    0.147E-01
DAV:   3    -0.832380268555E+03    0.66087E-04   -0.27317E-04  5220   0.276E-02    0.115E-01
DAV:   4    -0.832380410028E+03   -0.14147E-03   -0.89814E-04  4480   0.411E-02    0.351E-02
DAV:   5    -0.832380401086E+03    0.89417E-05   -0.10133E-04  4640   0.146E-02    0.295E-02
DAV:   6    -0.832380387565E+03    0.13521E-04   -0.14725E-04  4260   0.161E-02    0.972E-03
DAV:   7    -0.832380387352E+03    0.21287E-06   -0.98482E-06  3380   0.469E-03
  40 F= -.84004745E+03 E0= -.84004744E+03  d E =-.572529E-02  mag=    -0.0000
quench:  g(F)=  0.000E+00 g(S)=  0.000E+00 dE (1.order)= 0.000E+00
 bond charge predicted
       N       E                     dE             d eps       ncg     rms          rms(c)
DAV:   1    -0.832380347810E+03    0.39755E-04   -0.10681E-03  4400   0.633E-02    0.579E-03
DAV:   2    -0.832380350093E+03   -0.22834E-05   -0.25939E-05  3520   0.925E-03
  41 F= -.84004741E+03 E0= -.84004741E+03  d E =0.336303E-04  mag=     0.0000
quench:  g(F)=  0.000E+00 g(S)=  0.000E+00 dE (1.order)= 0.000E+00
 bond charge predicted
       N       E                     dE             d eps       ncg     rms          rms(c)
DAV:   1    -0.832380305097E+03    0.42713E-04   -0.34812E-03  4520   0.115E-01    0.129E-02
DAV:   2    -0.832380310974E+03   -0.58767E-05   -0.78906E-05  4480   0.160E-02
  42 F= -.84004738E+03 E0= -.84004738E+03  d E =0.326359E-04  mag=    -0.0000
quench:  g(F)=  0.000E+00 g(S)=  0.000E+00 dE (1.order)= 0.000E+00
 bond charge predicted
       N       E                     dE             d eps       ncg     rms          rms(c)
DAV:   1    -0.832380300645E+03    0.44517E-05   -0.60683E-03  4550   0.151E-01    0.199E-02
DAV:   2    -0.832380309824E+03   -0.91785E-05   -0.13779E-04  4620   0.212E-02    0.159E-02
DAV:   3    -0.832380308845E+03    0.97853E-06   -0.34488E-06  2720   0.406E-03
  43 F= -.84004738E+03 E0= -.84004738E+03  d E =-.583656E-05  mag=    -0.0000
quench:  g(F)=  0.000E+00 g(S)=  0.000E+00 dE (1.order)= 0.000E+00
 bond charge predicted
       N       E                     dE             d eps       ncg     rms          rms(c)
DAV:   1    -0.832380367580E+03   -0.57757E-04   -0.82989E-03  4540   0.173E-01    0.190E-02
DAV:   2    -0.832380382046E+03   -0.14466E-04   -0.18330E-04  4540   0.237E-02    0.141E-02
DAV:   3    -0.832380381496E+03    0.55046E-06   -0.27214E-06  2840   0.356E-03
  44 F= -.84004747E+03 E0= -.84004747E+03  d E =-.810679E-04  mag=    -0.0000
quench:  g(F)=  0.000E+00 g(S)=  0.000E+00 dE (1.order)= 0.000E+00
 bond charge predicted
       N       E                     dE             d eps       ncg     rms          rms(c)
DAV:   1    -0.832380530264E+03   -0.14822E-03   -0.10620E-02  4510   0.190E-01    0.218E-02
DAV:   2    -0.832380548490E+03   -0.18227E-04   -0.23539E-04  4470   0.261E-02    0.155E-02
DAV:   3    -0.832380547863E+03    0.62699E-06   -0.38491E-06  3010   0.399E-03
  45 F= -.84004764E+03 E0= -.84004764E+03  d E =-.174245E-03  mag=    -0.0000
quench:  g(F)=  0.000E+00 g(S)=  0.000E+00 dE (1.order)= 0.000E+00
 bond charge predicted
       N       E                     dE             d eps       ncg     rms          rms(c)
DAV:   1    -0.832380781934E+03   -0.23344E-03   -0.12982E-02  4510   0.208E-01    0.245E-02
DAV:   2    -0.832380803764E+03   -0.21830E-04   -0.28366E-04  4530   0.284E-02    0.173E-02
DAV:   3    -0.832380803230E+03    0.53390E-06   -0.40644E-06  2980   0.420E-03
  46 F= -.84004790E+03 E0= -.84004790E+03  d E =-.262890E-03  mag=    -0.0000
quench:  g(F)=  0.000E+00 g(S)=  0.000E+00 dE (1.order)= 0.000E+00
 bond charge predicted
       N       E                     dE             d eps       ncg     rms          rms(c)
DAV:   1    -0.832381102829E+03   -0.29907E-03   -0.19179E-02  4480   0.258E-01    0.276E-02
DAV:   2    -0.832381136549E+03   -0.33720E-04   -0.41453E-04  4430   0.352E-02    0.199E-02
DAV:   3    -0.832381135745E+03    0.80387E-06   -0.53331E-06  3235   0.490E-03
  47 F= -.84004824E+03 E0= -.84004824E+03  d E =-.341364E-03  mag=     0.0000
quench:  g(F)=  0.000E+00 g(S)=  0.000E+00 dE (1.order)= 0.000E+00
 bond charge predicted
       N       E                     dE             d eps       ncg     rms          rms(c)
DAV:   1    -0.832381363734E+03   -0.22718E-03   -0.31245E-02  4500   0.340E-01    0.328E-02
DAV:   2    -0.832381420805E+03   -0.57071E-04   -0.67635E-04  4450   0.463E-02    0.245E-02
DAV:   3    -0.832381418807E+03    0.19982E-05   -0.94198E-06  3755   0.657E-03
  48 F= -.84004854E+03 E0= -.84004854E+03  d E =-.295961E-03  mag=     0.0000
quench:  g(F)=  0.000E+00 g(S)=  0.000E+00 dE (1.order)= 0.000E+00
 bond charge predicted
       N       E                     dE             d eps       ncg     rms          rms(c)
DAV:   1    -0.832381285166E+03    0.13564E-03   -0.63596E-02  4520   0.487E-01    0.464E-02
DAV:   2    -0.832381402654E+03   -0.11749E-03   -0.13942E-03  4460   0.668E-02    0.348E-02
DAV:   3    -0.832381397345E+03    0.53096E-05   -0.21330E-05  4340   0.960E-03
  49 F= -.84004854E+03 E0= -.84004854E+03  d E =0.940285E-06  mag=     0.0000
quench:  g(F)=  0.000E+00 g(S)=  0.000E+00 dE (1.order)= 0.000E+00
 bond charge predicted
       N       E                     dE             d eps       ncg     rms          rms(c)
DAV:   1    -0.832380733815E+03    0.66884E-03   -0.12475E-01  4520   0.678E-01    0.657E-02
DAV:   2    -0.832380960241E+03   -0.22643E-03   -0.27093E-03  4460   0.931E-02    0.486E-02
DAV:   3    -0.832380950682E+03    0.95582E-05   -0.41150E-05  4840   0.132E-02
  50 F= -.84004812E+03 E0= -.84004812E+03  d E =0.416859E-03  mag=     0.0000
quench:  g(F)=  0.000E+00 g(S)=  0.000E+00 dE (1.order)= 0.000E+00
 bond charge predicted
       N       E                     dE             d eps       ncg     rms          rms(c)
DAV:   1    -0.832379830703E+03    0.11295E-02   -0.22533E-01  4520   0.912E-01    0.864E-02
DAV:   2    -0.832380240897E+03   -0.41019E-03   -0.48587E-03  4450   0.125E-01    0.633E-02
DAV:   3    -0.832380227385E+03    0.13512E-04   -0.67188E-05  5140   0.170E-02    0.489E-02
DAV:   4    -0.832380254986E+03   -0.27601E-04   -0.71812E-05  4220   0.203E-02    0.120E-02
DAV:   5    -0.832380259211E+03   -0.42250E-05   -0.24442E-05  4040   0.867E-03
  51 F= -.84004747E+03 E0= -.84004747E+03  d E =0.652712E-03  mag=     0.0000
quench:  g(F)=  0.000E+00 g(S)=  0.000E+00 dE (1.order)= 0.000E+00
 bond charge predicted
       N       E                     dE             d eps       ncg     rms          rms(c)
DAV:   1    -0.832378672473E+03    0.15825E-02   -0.38785E-01  4520   0.120E+00    0.107E-01
DAV:   2    -0.832379434088E+03   -0.76161E-03   -0.88093E-03  4450   0.168E-01    0.756E-02
DAV:   3    -0.832379403315E+03    0.30773E-04   -0.12297E-04  5220   0.230E-02    0.584E-02
DAV:   4    -0.832379429468E+03   -0.26153E-04   -0.12654E-04  4360   0.264E-02    0.169E-02
DAV:   5    -0.832379436798E+03   -0.73298E-05   -0.38645E-05  4520   0.110E-02
  52 F= -.84004669E+03 E0= -.84004669E+03  d E =0.777931E-03  mag=     0.0000
quench:  g(F)=  0.000E+00 g(S)=  0.000E+00 dE (1.order)= 0.000E+00
 bond charge predicted
       N       E                     dE             d eps       ncg     rms          rms(c)
DAV:   1    -0.832377114871E+03    0.23146E-02   -0.61867E-01  4520   0.152E+00    0.136E-01
DAV:   2    -0.832378325666E+03   -0.12108E-02   -0.14124E-02  4470   0.214E-01    0.967E-02
DAV:   3    -0.832378273615E+03    0.52051E-04   -0.20249E-04  5420   0.295E-02    0.742E-02
DAV:   4    -0.832378315059E+03   -0.41444E-04   -0.19868E-04  4420   0.331E-02    0.230E-02
DAV:   5    -0.832378329247E+03   -0.14188E-04   -0.62104E-05  4680   0.139E-02    0.112E-02
DAV:   6    -0.832378330240E+03   -0.99258E-06   -0.84394E-06  3310   0.653E-03
  53 F= -.84004563E+03 E0= -.84004563E+03  d E =0.105954E-02  mag=    -0.0000
quench:  g(F)=  0.000E+00 g(S)=  0.000E+00 dE (1.order)= 0.000E+00
 bond charge predicted
       N       E                     dE             d eps       ncg     rms          rms(c)
DAV:   1    -0.832375529551E+03    0.27997E-02   -0.85713E-01  4520   0.179E+00    0.157E-01
DAV:   2    -0.832377221083E+03   -0.16915E-02   -0.19555E-02  4470   0.252E-01    0.110E-01
DAV:   3    -0.832377152689E+03    0.68394E-04   -0.26179E-04  5380   0.338E-02    0.853E-02
DAV:   4    -0.832377212072E+03   -0.59383E-04   -0.27607E-04  4580   0.400E-02    0.233E-02
DAV:   5    -0.832377226520E+03   -0.14448E-04   -0.86416E-05  4820   0.166E-02    0.123E-02
DAV:   6    -0.832377227394E+03   -0.87419E-06   -0.92013E-06  3080   0.742E-03
  54 F= -.84004457E+03 E0= -.84004457E+03  d E =0.106535E-02  mag=    -0.0000
quench:  g(F)=  0.000E+00 g(S)=  0.000E+00 dE (1.order)= 0.000E+00
 bond charge predicted
       N       E                     dE             d eps       ncg     rms          rms(c)
DAV:   1    -0.832374453024E+03    0.27735E-02   -0.10672E+00  4520   0.201E+00    0.175E-01
DAV:   2    -0.832376574073E+03   -0.21210E-02   -0.24481E-02  4495   0.282E-01    0.125E-01
DAV:   3    -0.832376482504E+03    0.91569E-04   -0.33251E-04  5400   0.382E-02    0.966E-02
DAV:   4    -0.832376552945E+03   -0.70441E-04   -0.38766E-04  4480   0.457E-02    0.280E-02
DAV:   5    -0.832376568984E+03   -0.16039E-04   -0.10965E-04  4800   0.192E-02    0.148E-02
DAV:   6    -0.832376571881E+03   -0.28962E-05   -0.18355E-05  3640   0.893E-03
  55 F= -.84004393E+03 E0= -.84004393E+03  d E =0.633008E-03  mag=    -0.0000
quench:  g(F)=  0.000E+00 g(S)=  0.000E+00 dE (1.order)= 0.000E+00
 bond charge predicted
       N       E                     dE             d eps       ncg     rms          rms(c)
DAV:   1    -0.832373826762E+03    0.27422E-02   -0.13932E+00  4520   0.228E+00    0.204E-01
DAV:   2    -0.832376596446E+03   -0.27697E-02   -0.32071E-02  4515   0.321E-01    0.142E-01
DAV:   3    -0.832376487889E+03    0.10856E-03   -0.42096E-04  5400   0.428E-02    0.110E-01
DAV:   4    -0.832376597593E+03   -0.10970E-03   -0.50251E-04  4620   0.510E-02    0.296E-02
DAV:   5    -0.832376618566E+03   -0.20972E-04   -0.13473E-04  4900   0.212E-02    0.169E-02
DAV:   6    -0.832376621051E+03   -0.24853E-05   -0.24778E-05  3880   0.104E-02
  56 F= -.84004399E+03 E0= -.84004399E+03  d E =-.598344E-04  mag=     0.0000
quench:  g(F)=  0.000E+00 g(S)=  0.000E+00 dE (1.order)= 0.000E+00
 bond charge predicted
       N       E                     dE             d eps       ncg     rms          rms(c)
DAV:   1    -0.832374038871E+03    0.25797E-02   -0.18689E+00  4520   0.258E+00    0.251E-01
DAV:   2    -0.832377702808E+03   -0.36639E-02   -0.43296E-02  4510   0.365E-01    0.168E-01
DAV:   3    -0.832377555522E+03    0.14729E-03   -0.61109E-04  5340   0.505E-02    0.127E-01
DAV:   4    -0.832377674656E+03   -0.11913E-03   -0.55318E-04  4610   0.527E-02    0.377E-02
DAV:   5    -0.832377727592E+03   -0.52936E-04   -0.17186E-04  4780   0.224E-02    0.190E-02
DAV:   6    -0.832377729459E+03   -0.18670E-05   -0.30560E-05  4080   0.116E-02
  57 F= -.84004510E+03 E0= -.84004510E+03  d E =-.111021E-02  mag=     0.0000
quench:  g(F)=  0.000E+00 g(S)=  0.000E+00 dE (1.order)= 0.000E+00
 bond charge predicted
       N       E                     dE             d eps       ncg     rms          rms(c)
DAV:   1    -0.832376236984E+03    0.14906E-02   -0.20453E+00  4520   0.270E+00    0.264E-01
DAV:   2    -0.832380331549E+03   -0.40946E-02   -0.47433E-02  4550   0.380E-01    0.184E-01
DAV:   3    -0.832380166963E+03    0.16459E-03   -0.62945E-04  5380   0.513E-02    0.143E-01
DAV:   4    -0.832380340350E+03   -0.17339E-03   -0.10100E-03  4800   0.653E-02    0.393E-02
DAV:   5    -0.832380356314E+03   -0.15965E-04   -0.20292E-04  4960   0.259E-02    0.259E-02
DAV:   6    -0.832380361923E+03   -0.56089E-05   -0.85972E-05  4120   0.166E-02
  58 F= -.84004774E+03 E0= -.84004774E+03  d E =-.263883E-02  mag=     0.0000
quench:  g(F)=  0.000E+00 g(S)=  0.000E+00 dE (1.order)= 0.000E+00
 bond charge predicted
       N       E                     dE             d eps       ncg     rms          rms(c)
DAV:   1    -0.832379071053E+03    0.12853E-02   -0.25989E+00  4520   0.304E+00    0.304E-01
DAV:   2    -0.832384354606E+03   -0.52836E-02   -0.60478E-02  4580   0.425E-01    0.215E-01
DAV:   3    -0.832384143999E+03    0.21061E-03   -0.81494E-04  5380   0.583E-02    0.167E-01
DAV:   4    -0.832384367471E+03   -0.22347E-03   -0.14541E-03  4920   0.753E-02    0.499E-02
DAV:   5    -0.832384380870E+03   -0.13399E-04   -0.28583E-04  4880   0.309E-02    0.311E-02
DAV:   6    -0.832384394583E+03   -0.13713E-04   -0.13089E-04  4240   0.189E-02    0.127E-02
DAV:   7    -0.832384395014E+03   -0.43114E-06   -0.11675E-05  3760   0.614E-03
  59 F= -.84005178E+03 E0= -.84005178E+03  d E =-.403757E-02  mag=    -0.0000
quench:  g(F)=  0.000E+00 g(S)=  0.000E+00 dE (1.order)= 0.000E+00
 bond charge predicted
       N       E                     dE             d eps       ncg     rms          rms(c)
DAV:   1    -0.832380104895E+03    0.42897E-02   -0.39652E+00  4520   0.372E+00    0.389E-01
DAV:   2    -0.832388127576E+03   -0.80227E-02   -0.94216E-02  4640   0.528E-01    0.263E-01
DAV:   3    -0.832387766507E+03    0.36107E-03   -0.14596E-03  5420   0.758E-02    0.199E-01
DAV:   4    -0.832387882883E+03   -0.11638E-03   -0.14254E-03  5130   0.806E-02    0.589E-02
DAV:   5    -0.832387993160E+03   -0.11028E-03   -0.41779E-04  4780   0.343E-02    0.312E-02
DAV:   6    -0.832387998177E+03   -0.50176E-05   -0.76893E-05  4380   0.174E-02
  60 F= -.84005541E+03 E0= -.84005541E+03  d E =-.363073E-02  mag=    -0.0000
quench:  g(F)=  0.000E+00 g(S)=  0.000E+00 dE (1.order)= 0.000E+00
 bond charge predicted
       N       E                     dE             d eps       ncg     rms          rms(c)
DAV:   1    -0.832388836278E+03   -0.84312E-03   -0.52085E-02  4420   0.457E-01    0.571E-02
DAV:   2    -0.832388928472E+03   -0.92194E-04   -0.14161E-03  5360   0.691E-02    0.496E-02
DAV:   3    -0.832388897990E+03    0.30482E-04   -0.74301E-05  5240   0.164E-02    0.355E-02
DAV:   4    -0.832388878521E+03    0.19469E-04   -0.40990E-05  4260   0.134E-02    0.173E-02
DAV:   5    -0.832388876532E+03    0.19890E-05   -0.15930E-05  3040   0.796E-03
  61 F= -.84005629E+03 E0= -.84005629E+03  d E =-.877560E-03  mag=     0.0000
quench:  g(F)=  0.000E+00 g(S)=  0.000E+00 dE (1.order)= 0.000E+00
 bond charge predicted
       N       E                     dE             d eps       ncg     rms          rms(c)
DAV:   1    -0.832387976989E+03    0.90153E-03   -0.56887E-02  4440   0.478E-01    0.575E-02
DAV:   2    -0.832388084239E+03   -0.10725E-03   -0.15104E-03  5320   0.715E-02    0.485E-02
DAV:   3    -0.832388058801E+03    0.25437E-04   -0.70059E-05  5120   0.161E-02    0.348E-02
DAV:   4    -0.832388044654E+03    0.14147E-04   -0.44390E-05  4160   0.135E-02    0.170E-02
DAV:   5    -0.832388044008E+03    0.64670E-06   -0.12218E-05  3120   0.706E-03
  62 F= -.84005545E+03 E0= -.84005545E+03  d E =0.837216E-03  mag=     0.0000
quench:  g(F)=  0.000E+00 g(S)=  0.000E+00 dE (1.order)= 0.000E+00
 bond charge predicted
       N       E                     dE             d eps       ncg     rms          rms(c)
DAV:   1    -0.832388376974E+03   -0.33232E-03   -0.26702E-03  4430   0.103E-01    0.126E-02
DAV:   2    -0.832388381649E+03   -0.46750E-05   -0.76344E-05  5040   0.160E-02
  63 F= -.84005579E+03 E0= -.84005579E+03  d E =-.337716E-03  mag=     0.0000
quench:  g(F)=  0.000E+00 g(S)=  0.000E+00 dE (1.order)= 0.000E+00
 bond charge predicted
       N       E                     dE             d eps       ncg     rms          rms(c)
DAV:   1    -0.832388796671E+03   -0.41970E-03   -0.85734E-03  4445   0.182E-01    0.287E-02
DAV:   2    -0.832388805776E+03   -0.91047E-05   -0.22112E-04  5540   0.271E-02    0.242E-02
DAV:   3    -0.832388797310E+03    0.84661E-05   -0.16682E-05  3180   0.835E-03
  64 F= -.84005620E+03 E0= -.84005620E+03  d E =-.414618E-03  mag=     0.0000
quench:  g(F)=  0.000E+00 g(S)=  0.000E+00 dE (1.order)= 0.000E+00
 bond charge predicted
       N       E                     dE             d eps       ncg     rms          rms(c)
DAV:   1    -0.832389027927E+03   -0.22215E-03   -0.13520E-02  4430   0.219E-01    0.326E-02
DAV:   2    -0.832389046794E+03   -0.18867E-04   -0.32321E-04  5480   0.316E-02    0.267E-02
DAV:   3    -0.832389039341E+03    0.74526E-05   -0.15971E-05  3380   0.812E-03
  65 F= -.84005644E+03 E0= -.84005644E+03  d E =-.237922E-03  mag=     0.0000
quench:  g(F)=  0.000E+00 g(S)=  0.000E+00 dE (1.order)= 0.000E+00
 bond charge predicted
       N       E                     dE             d eps       ncg     rms          rms(c)
DAV:   1    -0.832389072075E+03   -0.25282E-04   -0.55055E-05  3920   0.135E-02    0.777E-03
DAV:   2    -0.832389072192E+03   -0.11633E-06   -0.34396E-06  2400   0.353E-03
  66 F= -.84005647E+03 E0= -.84005647E+03  d E =-.321364E-04  mag=     0.0000
quench:  g(F)=  0.000E+00 g(S)=  0.000E+00 dE (1.order)= 0.000E+00
 bond charge predicted
       N       E                     dE             d eps       ncg     rms          rms(c)
DAV:   1    -0.832389154060E+03   -0.81985E-04   -0.23390E-04  4080   0.221E-02    0.464E-03
DAV:   2    -0.832389154264E+03   -0.20405E-06   -0.48579E-06  2480   0.340E-03
  67 F= -.84005655E+03 E0= -.84005655E+03  d E =-.804190E-04  mag=     0.0000
quench:  g(F)=  0.000E+00 g(S)=  0.000E+00 dE (1.order)= 0.000E+00
 bond charge predicted
       N       E                     dE             d eps       ncg     rms          rms(c)
DAV:   1    -0.832389295104E+03   -0.14104E-03   -0.72817E-04  4230   0.377E-02    0.759E-03
DAV:   2    -0.832389295588E+03   -0.48418E-06   -0.14397E-05  2840   0.531E-03
  68 F= -.84005669E+03 E0= -.84005669E+03  d E =-.138508E-03  mag=     0.0000
quench:  g(F)=  0.000E+00 g(S)=  0.000E+00 dE (1.order)= 0.000E+00
 bond charge predicted
       N       E                     dE             d eps       ncg     rms          rms(c)
DAV:   1    -0.832389509574E+03   -0.21447E-03   -0.17448E-03  4420   0.575E-02    0.123E-02
DAV:   2    -0.832389510421E+03   -0.84681E-06   -0.32653E-05  3480   0.773E-03
  69 F= -.84005690E+03 E0= -.84005690E+03  d E =-.210606E-03  mag=     0.0000
quench:  g(F)=  0.000E+00 g(S)=  0.000E+00 dE (1.order)= 0.000E+00
 bond charge predicted
       N       E                     dE             d eps       ncg     rms          rms(c)
DAV:   1    -0.832389797241E+03   -0.28767E-03   -0.32781E-03  4450   0.786E-02    0.175E-02
DAV:   2    -0.832389798698E+03   -0.14571E-05   -0.60238E-05  3760   0.104E-02
  70 F= -.84005719E+03 E0= -.84005719E+03  d E =-.282615E-03  mag=     0.0000
quench:  g(F)=  0.000E+00 g(S)=  0.000E+00 dE (1.order)= 0.000E+00
 bond charge predicted
       N       E                     dE             d eps       ncg     rms          rms(c)
DAV:   1    -0.832390160148E+03   -0.36291E-03   -0.53730E-03  4495   0.101E-01    0.230E-02
DAV:   2    -0.832390162811E+03   -0.26627E-05   -0.97323E-05  3820   0.132E-02
  71 F= -.84005754E+03 E0= -.84005754E+03  d E =-.356958E-03  mag=     0.0000
quench:  g(F)=  0.000E+00 g(S)=  0.000E+00 dE (1.order)= 0.000E+00
 bond charge predicted
       N       E                     dE             d eps       ncg     rms          rms(c)
DAV:   1    -0.832390649427E+03   -0.48928E-03   -0.10062E-02  4485   0.139E-01    0.309E-02
DAV:   2    -0.832390656343E+03   -0.69153E-05   -0.18241E-04  4440   0.182E-02    0.219E-02
DAV:   3    -0.832390657744E+03   -0.14011E-05   -0.47098E-06  3200   0.360E-03
  72 F= -.84005803E+03 E0= -.84005803E+03  d E =-.485172E-03  mag=     0.0000
quench:  g(F)=  0.000E+00 g(S)=  0.000E+00 dE (1.order)= 0.000E+00
 bond charge predicted
       N       E                     dE             d eps       ncg     rms          rms(c)
DAV:   1    -0.832391297037E+03   -0.64069E-03   -0.17547E-02  4540   0.185E-01    0.303E-02
DAV:   2    -0.832391316078E+03   -0.19041E-04   -0.31348E-04  4460   0.238E-02    0.191E-02
DAV:   3    -0.832391316232E+03   -0.15393E-06   -0.50804E-06  3420   0.354E-03
  73 F= -.84005867E+03 E0= -.84005867E+03  d E =-.645521E-03  mag=     0.0000
quench:  g(F)=  0.000E+00 g(S)=  0.000E+00 dE (1.order)= 0.000E+00
 bond charge predicted
       N       E                     dE             d eps       ncg     rms          rms(c)
DAV:   1    -0.832392131455E+03   -0.81538E-03   -0.29740E-02  4580   0.245E-01    0.389E-02
DAV:   2    -0.832392166982E+03   -0.35527E-04   -0.54433E-04  4460   0.317E-02    0.247E-02
DAV:   3    -0.832392166374E+03    0.60876E-06   -0.84170E-06  3480   0.461E-03
  74 F= -.84005951E+03 E0= -.84005951E+03  d E =-.833344E-03  mag=     0.0000
quench:  g(F)=  0.000E+00 g(S)=  0.000E+00 dE (1.order)= 0.000E+00
 bond charge predicted
       N       E                     dE             d eps       ncg     rms          rms(c)
DAV:   1    -0.832393200792E+03   -0.10338E-02   -0.46994E-02  4560   0.312E-01    0.482E-02
DAV:   2    -0.832393259561E+03   -0.58769E-04   -0.85577E-04  4440   0.404E-02    0.311E-02
DAV:   3    -0.832393258508E+03    0.10535E-05   -0.12589E-05  3600   0.570E-03
  75 F= -.84006058E+03 E0= -.84006058E+03  d E =-.107069E-02  mag=     0.0000
quench:  g(F)=  0.000E+00 g(S)=  0.000E+00 dE (1.order)= 0.000E+00
 bond charge predicted
       N       E                     dE             d eps       ncg     rms          rms(c)
DAV:   1    -0.832394547239E+03   -0.12877E-02   -0.69838E-02  4560   0.388E-01    0.575E-02
DAV:   2    -0.832394639609E+03   -0.92370E-04   -0.12740E-03  4430   0.502E-02    0.378E-02
DAV:   3    -0.832394638058E+03    0.15513E-05   -0.17618E-05  3880   0.690E-03
  76 F= -.84006193E+03 E0= -.84006193E+03  d E =-.135296E-02  mag=     0.0000
quench:  g(F)=  0.000E+00 g(S)=  0.000E+00 dE (1.order)= 0.000E+00
 bond charge predicted
       N       E                     dE             d eps       ncg     rms          rms(c)
DAV:   1    -0.832396241820E+03   -0.16022E-02   -0.97238E-02  4540   0.469E-01    0.664E-02
DAV:   2    -0.832396378199E+03   -0.13638E-03   -0.17871E-03  4420   0.607E-02    0.447E-02
DAV:   3    -0.832396375946E+03    0.22523E-05   -0.23198E-05  4040   0.811E-03
  77 F= -.84006364E+03 E0= -.84006364E+03  d E =-.170606E-02  mag=     0.0000
quench:  g(F)=  0.000E+00 g(S)=  0.000E+00 dE (1.order)= 0.000E+00
 bond charge predicted
       N       E                     dE             d eps       ncg     rms          rms(c)
DAV:   1    -0.832398271666E+03   -0.18935E-02   -0.12737E-01  4560   0.547E-01    0.748E-02
DAV:   2    -0.832398459348E+03   -0.18768E-03   -0.23633E-03  4415   0.708E-02    0.516E-02
DAV:   3    -0.832398456350E+03    0.29981E-05   -0.29731E-05  4220   0.929E-03
  78 F= -.84006568E+03 E0= -.84006568E+03  d E =-.204381E-02  mag=     0.0000
quench:  g(F)=  0.000E+00 g(S)=  0.000E+00 dE (1.order)= 0.000E+00
 bond charge predicted
       N       E                     dE             d eps       ncg     rms          rms(c)
DAV:   1    -0.832400602835E+03   -0.21435E-02   -0.15892E-01  4540   0.618E-01    0.831E-02
DAV:   2    -0.832400844488E+03   -0.24165E-03   -0.29719E-03  4415   0.799E-02    0.586E-02
DAV:   3    -0.832400840558E+03    0.39300E-05   -0.37719E-05  4420   0.105E-02
  79 F= -.84006802E+03 E0= -.84006802E+03  d E =-.234401E-02  mag=     0.0000
quench:  g(F)=  0.000E+00 g(S)=  0.000E+00 dE (1.order)= 0.000E+00
 bond charge predicted
       N       E                     dE             d eps       ncg     rms          rms(c)
DAV:   1    -0.832403197663E+03   -0.23532E-02   -0.19219E-01  4540   0.676E-01    0.927E-02
DAV:   2    -0.832403488144E+03   -0.29048E-03   -0.35657E-03  4415   0.870E-02    0.654E-02
DAV:   3    -0.832403484043E+03    0.41017E-05   -0.45663E-05  4580   0.114E-02
  80 F= -.84007063E+03 E0= -.84007063E+03  d E =-.260084E-02  mag=     0.0000
quench:  g(F)=  0.000E+00 g(S)=  0.000E+00 dE (1.order)= 0.000E+00
 bond charge predicted
       N       E                     dE             d eps       ncg     rms          rms(c)
DAV:   1    -0.832406017048E+03   -0.25289E-02   -0.22129E-01  4540   0.705E-01    0.103E-01
DAV:   2    -0.832406338411E+03   -0.32136E-03   -0.40864E-03  4410   0.905E-02    0.693E-02
DAV:   3    -0.832406335903E+03    0.25072E-05   -0.53698E-05  4580   0.121E-02
  81 F= -.84007344E+03 E0= -.84007344E+03  d E =-.281093E-02  mag=     0.0000
quench:  g(F)=  0.000E+00 g(S)=  0.000E+00 dE (1.order)= 0.000E+00
 bond charge predicted
       N       E                     dE             d eps       ncg     rms          rms(c)
DAV:   1    -0.832406398365E+03   -0.59955E-04   -0.15707E-04  4210   0.206E-02    0.115E-02
DAV:   2    -0.832406396708E+03    0.16572E-05   -0.15134E-05  3620   0.635E-03
  82 F= -.84007350E+03 E0= -.84007350E+03  d E =-.613405E-04  mag=     0.0000
quench:  g(F)=  0.000E+00 g(S)=  0.000E+00 dE (1.order)= 0.000E+00
 bond charge predicted
       N       E                     dE             d eps       ncg     rms          rms(c)
DAV:   1    -0.832406405121E+03   -0.67553E-05   -0.16585E-04  4240   0.240E-02    0.407E-03
DAV:   2    -0.832406405568E+03   -0.44775E-06   -0.52668E-06  2580   0.386E-03
  83 F= -.84007351E+03 E0= -.84007351E+03  d E =-.987588E-05  mag=     0.0000
quench:  g(F)=  0.000E+00 g(S)=  0.000E+00 dE (1.order)= 0.000E+00
 bond charge predicted
       N       E                     dE             d eps       ncg     rms          rms(c)
DAV:   1    -0.832406418688E+03   -0.13567E-04   -0.33745E-04  4280   0.343E-02    0.550E-03
DAV:   2    -0.832406419217E+03   -0.52908E-06   -0.83679E-06  2660   0.515E-03
  84 F= -.84007352E+03 E0= -.84007352E+03  d E =-.150659E-04  mag=     0.0000
quench:  g(F)=  0.000E+00 g(S)=  0.000E+00 dE (1.order)= 0.000E+00
 bond charge predicted
       N       E                     dE             d eps       ncg     rms          rms(c)
DAV:   1    -0.832406435713E+03   -0.17025E-04   -0.55076E-04  4330   0.436E-02    0.781E-03
DAV:   2    -0.832406436301E+03   -0.58760E-06   -0.13121E-05  2760   0.637E-03
  85 F= -.84007354E+03 E0= -.84007354E+03  d E =-.187979E-04  mag=     0.0000
quench:  g(F)=  0.000E+00 g(S)=  0.000E+00 dE (1.order)= 0.000E+00
 bond charge predicted
       N       E                     dE             d eps       ncg     rms          rms(c)
DAV:   1    -0.832406457281E+03   -0.21568E-04   -0.77671E-04  4420   0.516E-02    0.927E-03
DAV:   2    -0.832406458034E+03   -0.75309E-06   -0.17449E-05  3060   0.725E-03
  86 F= -.84007356E+03 E0= -.84007356E+03  d E =-.236078E-04  mag=     0.0000
quench:  g(F)=  0.000E+00 g(S)=  0.000E+00 dE (1.order)= 0.000E+00
 bond charge predicted
       N       E                     dE             d eps       ncg     rms          rms(c)
DAV:   1    -0.832406488349E+03   -0.31068E-04   -0.99482E-04  4410   0.581E-02    0.105E-02
DAV:   2    -0.832406489303E+03   -0.95410E-06   -0.21914E-05  3260   0.810E-03
  87 F= -.84007360E+03 E0= -.84007360E+03  d E =-.331906E-04  mag=     0.0000
quench:  g(F)=  0.000E+00 g(S)=  0.000E+00 dE (1.order)= 0.000E+00
 bond charge predicted
       N       E                     dE             d eps       ncg     rms          rms(c)
DAV:   1    -0.832406543096E+03   -0.54747E-04   -0.14414E-03  4455   0.697E-02    0.121E-02
DAV:   2    -0.832406544584E+03   -0.14880E-05   -0.31300E-05  3600   0.966E-03
  88 F= -.84007366E+03 E0= -.84007366E+03  d E =-.572147E-04  mag=     0.0000
quench:  g(F)=  0.000E+00 g(S)=  0.000E+00 dE (1.order)= 0.000E+00
 bond charge predicted
       N       E                     dE             d eps       ncg     rms          rms(c)
DAV:   1    -0.832406640212E+03   -0.97116E-04   -0.20165E-03  4480   0.819E-02    0.141E-02
DAV:   2    -0.832406642333E+03   -0.21212E-05   -0.43501E-05  3900   0.113E-02
  89 F= -.84007375E+03 E0= -.84007375E+03  d E =-.993940E-04  mag=     0.0000
quench:  g(F)=  0.000E+00 g(S)=  0.000E+00 dE (1.order)= 0.000E+00
 bond charge predicted
       N       E                     dE             d eps       ncg     rms          rms(c)
DAV:   1    -0.832406806997E+03   -0.16679E-03   -0.28112E-03  4490   0.957E-02    0.166E-02
DAV:   2    -0.832406809910E+03   -0.29129E-05   -0.60158E-05  4080   0.131E-02
  90 F= -.84007392E+03 E0= -.84007392E+03  d E =-.168443E-03  mag=     0.0000
quench:  g(F)=  0.000E+00 g(S)=  0.000E+00 dE (1.order)= 0.000E+00
 bond charge predicted
       N       E                     dE             d eps       ncg     rms          rms(c)
DAV:   1    -0.832407080056E+03   -0.27306E-03   -0.41667E-03  4480   0.114E-01    0.204E-02
DAV:   2    -0.832407084266E+03   -0.42109E-05   -0.88037E-05  4340   0.156E-02
  91 F= -.84007420E+03 E0= -.84007420E+03  d E =-.273776E-03  mag=     0.0000
quench:  g(F)=  0.000E+00 g(S)=  0.000E+00 dE (1.order)= 0.000E+00
 bond charge predicted
       N       E                     dE             d eps       ncg     rms          rms(c)
DAV:   1    -0.832407504835E+03   -0.42478E-03   -0.69071E-03  4500   0.141E-01    0.266E-02
DAV:   2    -0.832407511382E+03   -0.65473E-05   -0.14424E-04  4380   0.193E-02    0.205E-02
DAV:   3    -0.832407514319E+03   -0.29361E-05   -0.32493E-06  2920   0.374E-03
  92 F= -.84007462E+03 E0= -.84007462E+03  d E =-.427035E-03  mag=     0.0000
quench:  g(F)=  0.000E+00 g(S)=  0.000E+00 dE (1.order)= 0.000E+00
 bond charge predicted
       N       E                     dE             d eps       ncg     rms          rms(c)
DAV:   1    -0.832408139500E+03   -0.62812E-03   -0.12688E-02  4480   0.183E-01    0.261E-02
DAV:   2    -0.832408158749E+03   -0.19249E-04   -0.26078E-04  4420   0.244E-02    0.179E-02
DAV:   3    -0.832408159256E+03   -0.50737E-06   -0.32455E-06  2980   0.333E-03
  93 F= -.84007526E+03 E0= -.84007526E+03  d E =-.638129E-03  mag=     0.0000
quench:  g(F)=  0.000E+00 g(S)=  0.000E+00 dE (1.order)= 0.000E+00
 bond charge predicted
       N       E                     dE             d eps       ncg     rms          rms(c)
DAV:   1    -0.832409015569E+03   -0.85682E-03   -0.23973E-02  4520   0.243E-01    0.347E-02
DAV:   2    -0.832409052336E+03   -0.36766E-04   -0.49060E-04  4420   0.326E-02    0.237E-02
DAV:   3    -0.832409052413E+03   -0.76994E-07   -0.61538E-06  3220   0.443E-03
  94 F= -.84007614E+03 E0= -.84007614E+03  d E =-.882075E-03  mag=     0.0000
quench:  g(F)=  0.000E+00 g(S)=  0.000E+00 dE (1.order)= 0.000E+00
 bond charge predicted
       N       E                     dE             d eps       ncg     rms          rms(c)
DAV:   1    -0.832410179841E+03   -0.11275E-02   -0.44057E-02  4520   0.322E-01    0.472E-02
DAV:   2    -0.832410245336E+03   -0.65495E-04   -0.88477E-04  4420   0.428E-02    0.317E-02
DAV:   3    -0.832410245308E+03    0.27751E-07   -0.11197E-05  3420   0.578E-03
  95 F= -.84007732E+03 E0= -.84007732E+03  d E =-.117593E-02  mag=     0.0000
quench:  g(F)=  0.000E+00 g(S)=  0.000E+00 dE (1.order)= 0.000E+00
 bond charge predicted
       N       E                     dE             d eps       ncg     rms          rms(c)
DAV:   1    -0.832411663519E+03   -0.14182E-02   -0.78256E-02  4520   0.423E-01    0.630E-02
DAV:   2    -0.832411780192E+03   -0.11667E-03   -0.15610E-03  4420   0.561E-02    0.414E-02
DAV:   3    -0.832411779173E+03    0.10193E-05   -0.20456E-05  3920   0.762E-03
  96 F= -.84007883E+03 E0= -.84007883E+03  d E =-.151129E-02  mag=     0.0000
quench:  g(F)=  0.000E+00 g(S)=  0.000E+00 dE (1.order)= 0.000E+00
 bond charge predicted
       N       E                     dE             d eps       ncg     rms          rms(c)
DAV:   1    -0.832413502011E+03   -0.17218E-02   -0.12869E-01  4520   0.536E-01    0.817E-02
DAV:   2    -0.832413693604E+03   -0.19159E-03   -0.25584E-03  4415   0.710E-02    0.529E-02
DAV:   3    -0.832413691268E+03    0.23361E-05   -0.35065E-05  4160   0.983E-03
  97 F= -.84008071E+03 E0= -.84008071E+03  d E =-.188253E-02  mag=     0.0000
quench:  g(F)=  0.000E+00 g(S)=  0.000E+00 dE (1.order)= 0.000E+00
 bond charge predicted
       N       E                     dE             d eps       ncg     rms          rms(c)
DAV:   1    -0.832415669447E+03   -0.19758E-02   -0.19236E-01  4520   0.660E-01    0.101E-01
DAV:   2    -0.832415961507E+03   -0.29206E-03   -0.38495E-03  4410   0.875E-02    0.652E-02
DAV:   3    -0.832415957102E+03    0.44049E-05   -0.53360E-05  4450   0.122E-02
  98 F= -.84008294E+03 E0= -.84008294E+03  d E =-.223115E-02  mag=     0.0000
quench:  g(F)=  0.000E+00 g(S)=  0.000E+00 dE (1.order)= 0.000E+00
 bond charge predicted
       N       E                     dE             d eps       ncg     rms          rms(c)
DAV:   1    -0.832418087058E+03   -0.21256E-02   -0.24848E-01  4520   0.774E-01    0.114E-01
DAV:   2    -0.832418477795E+03   -0.39074E-03   -0.50463E-03  4400   0.103E-01    0.757E-02
DAV:   3    -0.832418472721E+03    0.50735E-05   -0.68638E-05  4740   0.143E-02
  99 F= -.84008542E+03 E0= -.84008542E+03  d E =-.247855E-02  mag=     0.0000
quench:  g(F)=  0.000E+00 g(S)=  0.000E+00 dE (1.order)= 0.000E+00
 bond charge predicted
       N       E                     dE             d eps       ncg     rms          rms(c)
DAV:   1    -0.832420597876E+03   -0.21201E-02   -0.28732E-01  4520   0.874E-01    0.122E-01
DAV:   2    -0.832421067488E+03   -0.46961E-03   -0.59649E-03  4400   0.118E-01    0.827E-02
DAV:   3    -0.832421061711E+03    0.57775E-05   -0.83373E-05  4940   0.165E-02
 100 F= -.84008797E+03 E0= -.84008797E+03  d E =-.254709E-02  mag=     0.0000
quench:  g(F)=  0.000E+00 g(S)=  0.000E+00 dE (1.order)= 0.000E+00
 bond charge predicted
       N       E                     dE             d eps       ncg     rms          rms(c)
DAV:   1    -0.832422936489E+03   -0.18690E-02   -0.34104E-01  4520   0.989E-01    0.133E-01
DAV:   2    -0.832423494577E+03   -0.55809E-03   -0.72260E-03  4400   0.135E-01    0.889E-02
DAV:   3    -0.832423488965E+03    0.56113E-05   -0.10976E-04  5080   0.196E-02    0.674E-02
DAV:   4    -0.832423571484E+03   -0.82519E-04   -0.14100E-04  4320   0.226E-02    0.146E-02
DAV:   5    -0.832423576667E+03   -0.51828E-05   -0.28094E-05  3940   0.909E-03
 101 F= -.84009044E+03 E0= -.84009044E+03  d E =-.246937E-02  mag=     0.0000
quench:  g(F)=  0.000E+00 g(S)=  0.000E+00 dE (1.order)= 0.000E+00
 bond charge predicted
       N       E                     dE             d eps       ncg     rms          rms(c)
DAV:   1    -0.832423499004E+03    0.72480E-04   -0.74913E-04  4320   0.522E-02    0.612E-03
DAV:   2    -0.832423500644E+03   -0.16400E-05   -0.18965E-05  3320   0.806E-03
 102 F= -.84009036E+03 E0= -.84009036E+03  d E =0.757685E-04  mag=     0.0000
quench:  g(F)=  0.000E+00 g(S)=  0.000E+00 dE (1.order)= 0.000E+00
 bond charge predicted
       N       E                     dE             d eps       ncg     rms          rms(c)
DAV:   1    -0.832423359332E+03    0.13967E-03   -0.25066E-03  4460   0.950E-02    0.104E-02
DAV:   2    -0.832423363781E+03   -0.44493E-05   -0.55845E-05  4000   0.132E-02
 103 F= -.84009023E+03 E0= -.84009023E+03  d E =0.136222E-03  mag=     0.0000
quench:  g(F)=  0.000E+00 g(S)=  0.000E+00 dE (1.order)= 0.000E+00
 bond charge predicted
       N       E                     dE             d eps       ncg     rms          rms(c)
DAV:   1    -0.832423175779E+03    0.18355E-03   -0.47824E-03  4500   0.131E-01    0.163E-02
DAV:   2    -0.832423183265E+03   -0.74859E-05   -0.10439E-04  4520   0.181E-02    0.130E-02
DAV:   3    -0.832423182805E+03    0.46031E-06   -0.17156E-06  2380   0.308E-03
 104 F= -.84009005E+03 E0= -.84009005E+03  d E =0.180095E-03  mag=     0.0000
quench:  g(F)=  0.000E+00 g(S)=  0.000E+00 dE (1.order)= 0.000E+00
 bond charge predicted
       N       E                     dE             d eps       ncg     rms          rms(c)
DAV:   1    -0.832422984960E+03    0.19830E-03   -0.67218E-03  4480   0.157E-01    0.149E-02
DAV:   2    -0.832422997093E+03   -0.12133E-04   -0.14148E-04  4520   0.210E-02    0.106E-02
DAV:   3    -0.832422996869E+03    0.22470E-06   -0.14747E-06  2530   0.281E-03
 105 F= -.84008986E+03 E0= -.84008986E+03  d E =0.185446E-03  mag=     0.0000
quench:  g(F)=  0.000E+00 g(S)=  0.000E+00 dE (1.order)= 0.000E+00
 bond charge predicted
       N       E                     dE             d eps       ncg     rms          rms(c)
DAV:   1    -0.832422844120E+03    0.15297E-03   -0.79120E-03  4460   0.172E-01    0.158E-02
DAV:   2    -0.832422858561E+03   -0.14441E-04   -0.16934E-04  4510   0.233E-02    0.114E-02
DAV:   3    -0.832422858162E+03    0.39910E-06   -0.19158E-06  2450   0.321E-03
 106 F= -.84008972E+03 E0= -.84008972E+03  d E =0.138969E-03  mag=     0.0000
quench:  g(F)=  0.000E+00 g(S)=  0.000E+00 dE (1.order)= 0.000E+00
 bond charge predicted
       N       E                     dE             d eps       ncg     rms          rms(c)
DAV:   1    -0.832422806896E+03    0.51665E-04   -0.81306E-03  4460   0.174E-01    0.167E-02
DAV:   2    -0.832422821264E+03   -0.14368E-04   -0.17388E-04  4520   0.238E-02    0.122E-02
DAV:   3    -0.832422820851E+03    0.41344E-06   -0.21174E-06  2590   0.337E-03
 107 F= -.84008968E+03 E0= -.84008968E+03  d E =0.396388E-04  mag=     0.0000
quench:  g(F)=  0.000E+00 g(S)=  0.000E+00 dE (1.order)= 0.000E+00
 bond charge predicted
       N       E                     dE             d eps       ncg     rms          rms(c)
DAV:   1    -0.832422922194E+03   -0.10093E-03   -0.10463E-02  4480   0.192E-01    0.203E-02
DAV:   2    -0.832422939832E+03   -0.17638E-04   -0.22367E-04  4450   0.264E-02    0.145E-02
DAV:   3    -0.832422939296E+03    0.53611E-06   -0.30144E-06  2840   0.391E-03
 108 F= -.84008980E+03 E0= -.84008980E+03  d E =-.112459E-03  mag=     0.0000
quench:  g(F)=  0.000E+00 g(S)=  0.000E+00 dE (1.order)= 0.000E+00
 bond charge predicted
       N       E                     dE             d eps       ncg     rms          rms(c)
DAV:   1    -0.832423267078E+03   -0.32725E-03   -0.15513E-02  4500   0.221E-01    0.267E-02
DAV:   2    -0.832423291361E+03   -0.24282E-04   -0.32364E-04  4420   0.300E-02    0.186E-02
DAV:   3    -0.832423290687E+03    0.67411E-06   -0.47418E-06  2980   0.450E-03
 109 F= -.84009014E+03 E0= -.84009014E+03  d E =-.340415E-03  mag=     0.0000
quench:  g(F)=  0.000E+00 g(S)=  0.000E+00 dE (1.order)= 0.000E+00
 bond charge predicted
       N       E                     dE             d eps       ncg     rms          rms(c)
DAV:   1    -0.832423911901E+03   -0.62054E-03   -0.27253E-02  4520   0.276E-01    0.370E-02
DAV:   2    -0.832423953946E+03   -0.42046E-04   -0.56152E-04  4420   0.373E-02    0.253E-02
DAV:   3    -0.832423953103E+03    0.84362E-06   -0.79389E-06  3300   0.550E-03
 110 F= -.84009078E+03 E0= -.84009078E+03  d E =-.645309E-03  mag=     0.0000
quench:  g(F)=  0.000E+00 g(S)=  0.000E+00 dE (1.order)= 0.000E+00
 bond charge predicted
       N       E                     dE             d eps       ncg     rms          rms(c)
DAV:   1    -0.832424905853E+03   -0.95191E-03   -0.48786E-02  4520   0.354E-01    0.499E-02
DAV:   2    -0.832424980999E+03   -0.75146E-04   -0.98717E-04  4415   0.475E-02    0.339E-02
DAV:   3    -0.832424979678E+03    0.13211E-05   -0.13659E-05  3620   0.682E-03
 111 F= -.84009178E+03 E0= -.84009178E+03  d E =-.100291E-02  mag=     0.0000
quench:  g(F)=  0.000E+00 g(S)=  0.000E+00 dE (1.order)= 0.000E+00
 bond charge predicted
       N       E                     dE             d eps       ncg     rms          rms(c)
DAV:   1    -0.832426236251E+03   -0.12553E-02   -0.82000E-02  4520   0.455E-01    0.645E-02
DAV:   2    -0.832426365012E+03   -0.12876E-03   -0.16590E-03  4400   0.609E-02    0.438E-02
DAV:   3    -0.832426363018E+03    0.19940E-05   -0.22698E-05  3900   0.859E-03
 112 F= -.84009314E+03 E0= -.84009314E+03  d E =-.135741E-02  mag=     0.0000
quench:  g(F)=  0.000E+00 g(S)=  0.000E+00 dE (1.order)= 0.000E+00
 bond charge predicted
       N       E                     dE             d eps       ncg     rms          rms(c)
DAV:   1    -0.832427799196E+03   -0.14342E-02   -0.11954E-01  4520   0.557E-01    0.781E-02
DAV:   2    -0.832427988046E+03   -0.18885E-03   -0.24375E-03  4400   0.748E-02    0.529E-02
DAV:   3    -0.832427985582E+03    0.24637E-05   -0.34308E-05  4200   0.106E-02
 113 F= -.84009474E+03 E0= -.84009474E+03  d E =-.159886E-02  mag=     0.0000
quench:  g(F)=  0.000E+00 g(S)=  0.000E+00 dE (1.order)= 0.000E+00
 bond charge predicted
       N       E                     dE             d eps       ncg     rms          rms(c)
DAV:   1    -0.832429273252E+03   -0.12852E-02   -0.14793E-01  4540   0.662E-01    0.849E-02
DAV:   2    -0.832429518966E+03   -0.24571E-03   -0.31418E-03  4415   0.903E-02    0.575E-02
DAV:   3    -0.832429516690E+03    0.22754E-05   -0.44671E-05  4600   0.127E-02
 114 F= -.84009626E+03 E0= -.84009626E+03  d E =-.151437E-02  mag=     0.0000
quench:  g(F)=  0.000E+00 g(S)=  0.000E+00 dE (1.order)= 0.000E+00
 bond charge predicted
       N       E                     dE             d eps       ncg     rms          rms(c)
DAV:   1    -0.832430278078E+03   -0.75911E-03   -0.18963E-01  4520   0.812E-01    0.876E-02
DAV:   2    -0.832430614235E+03   -0.33616E-03   -0.41627E-03  4405   0.111E-01    0.610E-02
DAV:   3    -0.832430608633E+03    0.56027E-05   -0.56193E-05  4920   0.151E-02
 115 F= -.84009735E+03 E0= -.84009735E+03  d E =-.109491E-02  mag=     0.0000
quench:  g(F)=  0.000E+00 g(S)=  0.000E+00 dE (1.order)= 0.000E+00
 bond charge predicted
       N       E                     dE             d eps       ncg     rms          rms(c)
DAV:   1    -0.832430412483E+03    0.20175E-03   -0.30359E-01  4480   0.107E+00    0.998E-02
DAV:   2    -0.832430984287E+03   -0.57180E-03   -0.68240E-03  4400   0.148E-01    0.711E-02
DAV:   3    -0.832430971683E+03    0.12603E-04   -0.86243E-05  5220   0.193E-02    0.555E-02
DAV:   4    -0.832431030295E+03   -0.58611E-04   -0.10198E-04  4340   0.234E-02    0.128E-02
DAV:   5    -0.832431035244E+03   -0.49489E-05   -0.29441E-05  4320   0.968E-03
 116 F= -.84009781E+03 E0= -.84009781E+03  d E =-.457073E-03  mag=     0.0000
quench:  g(F)=  0.000E+00 g(S)=  0.000E+00 dE (1.order)= 0.000E+00
 bond charge predicted
       N       E                     dE             d eps       ncg     rms          rms(c)
DAV:   1    -0.832429331973E+03    0.16983E-02   -0.54309E-01  4480   0.144E+00    0.123E-01
DAV:   2    -0.832430447012E+03   -0.11150E-02   -0.12839E-02  4490   0.204E-01    0.851E-02
DAV:   3    -0.832430413335E+03    0.33677E-04   -0.15467E-04  5420   0.260E-02    0.666E-02
DAV:   4    -0.832430470081E+03   -0.56746E-04   -0.17186E-04  4520   0.311E-02    0.173E-02
DAV:   5    -0.832430480648E+03   -0.10567E-04   -0.51470E-05  4680   0.131E-02    0.928E-03
DAV:   6    -0.832430481647E+03   -0.99949E-06   -0.56854E-06  3060   0.534E-03
 117 F= -.84009731E+03 E0= -.84009731E+03  d E =0.497704E-03  mag=     0.0000
quench:  g(F)=  0.000E+00 g(S)=  0.000E+00 dE (1.order)= 0.000E+00
 bond charge predicted
       N       E                     dE             d eps       ncg     rms          rms(c)
DAV:   1    -0.832427221580E+03    0.32591E-02   -0.86955E-01  4480   0.182E+00    0.156E-01
DAV:   2    -0.832429011706E+03   -0.17901E-02   -0.20424E-02  4550   0.256E-01    0.107E-01
DAV:   3    -0.832428954494E+03    0.57212E-04   -0.24879E-04  5440   0.329E-02    0.838E-02
DAV:   4    -0.832429018996E+03   -0.64502E-04   -0.26602E-04  4560   0.390E-02    0.222E-02
DAV:   5    -0.832429036390E+03   -0.17394E-04   -0.82407E-05  4780   0.163E-02    0.120E-02
DAV:   6    -0.832429037867E+03   -0.14765E-05   -0.87471E-06  3160   0.704E-03
 118 F= -.84009594E+03 E0= -.84009594E+03  d E =0.136756E-02  mag=     0.0000
quench:  g(F)=  0.000E+00 g(S)=  0.000E+00 dE (1.order)= 0.000E+00
 bond charge predicted
       N       E                     dE             d eps       ncg     rms          rms(c)
DAV:   1    -0.832424815456E+03    0.42209E-02   -0.11479E+00  4480   0.209E+00    0.181E-01
DAV:   2    -0.832427126354E+03   -0.23109E-02   -0.26605E-02  4570   0.296E-01    0.127E-01
DAV:   3    -0.832427040520E+03    0.85835E-04   -0.35766E-04  5360   0.398E-02    0.991E-02
DAV:   4    -0.832427108574E+03   -0.68054E-04   -0.38262E-04  4600   0.469E-02    0.273E-02
DAV:   5    -0.832427131459E+03   -0.22885E-04   -0.12137E-04  4760   0.198E-02    0.147E-02
DAV:   6    -0.832427133418E+03   -0.19594E-05   -0.12422E-05  3200   0.824E-03
 119 F= -.84009411E+03 E0= -.84009411E+03  d E =0.183022E-02  mag=     0.0000
quench:  g(F)=  0.000E+00 g(S)=  0.000E+00 dE (1.order)= 0.000E+00
 bond charge predicted
       N       E                     dE             d eps       ncg     rms          rms(c)
DAV:   1    -0.832427420141E+03   -0.28868E-03   -0.87505E-03  4400   0.194E-01    0.222E-02
DAV:   2    -0.832427435901E+03   -0.15760E-04   -0.22844E-04  5440   0.289E-02    0.189E-02
DAV:   3    -0.832427431777E+03    0.41242E-05   -0.85519E-06  2760   0.634E-03
 120 F= -.84009441E+03 E0= -.84009441E+03  d E =-.295617E-03  mag=     0.0000
quench:  g(F)=  0.000E+00 g(S)=  0.000E+00 dE (1.order)= 0.000E+00
 bond charge predicted
       N       E                     dE             d eps       ncg     rms          rms(c)
DAV:   1    -0.832427554351E+03   -0.11845E-03   -0.14095E-02  4400   0.240E-01    0.305E-02
DAV:   2    -0.832427578092E+03   -0.23741E-04   -0.33356E-04  5520   0.345E-02    0.246E-02
DAV:   3    -0.832427573136E+03    0.49562E-05   -0.10174E-05  3180   0.715E-03
 121 F= -.84009454E+03 E0= -.84009454E+03  d E =-.132468E-03  mag=     0.0000
quench:  g(F)=  0.000E+00 g(S)=  0.000E+00 dE (1.order)= 0.000E+00
 bond charge predicted
       N       E                     dE             d eps       ncg     rms          rms(c)
DAV:   1    -0.832427650626E+03   -0.72535E-04   -0.47709E-04  4460   0.454E-02    0.709E-03
DAV:   2    -0.832427651550E+03   -0.92397E-06   -0.19788E-05  3000   0.861E-03
 122 F= -.84009462E+03 E0= -.84009462E+03  d E =-.770446E-04  mag=     0.0000
quench:  g(F)=  0.000E+00 g(S)=  0.000E+00 dE (1.order)= 0.000E+00
 bond charge predicted
       N       E                     dE             d eps       ncg     rms          rms(c)
DAV:   1    -0.832427769527E+03   -0.11890E-03   -0.13043E-03  4400   0.741E-02    0.103E-02
DAV:   2    -0.832427770765E+03   -0.12375E-05   -0.31113E-05  3980   0.110E-02
 123 F= -.84009473E+03 E0= -.84009473E+03  d E =-.116518E-03  mag=     0.0000
quench:  g(F)=  0.000E+00 g(S)=  0.000E+00 dE (1.order)= 0.000E+00
 bond charge predicted
       N       E                     dE             d eps       ncg     rms          rms(c)
DAV:   1    -0.832427879022E+03   -0.10950E-03   -0.21148E-03  4460   0.936E-02    0.152E-02
DAV:   2    -0.832427881037E+03   -0.20149E-05   -0.49886E-05  5260   0.136E-02
 124 F= -.84009484E+03 E0= -.84009484E+03  d E =-.106231E-03  mag=     0.0000
quench:  g(F)=  0.000E+00 g(S)=  0.000E+00 dE (1.order)= 0.000E+00
 bond charge predicted
       N       E                     dE             d eps       ncg     rms          rms(c)
DAV:   1    -0.832427978526E+03   -0.99504E-04   -0.21607E-03  4440   0.911E-02    0.172E-02
DAV:   2    -0.832427980119E+03   -0.15928E-05   -0.47035E-05  4580   0.129E-02
 125 F= -.84009493E+03 E0= -.84009493E+03  d E =-.939142E-04  mag=     0.0000
quench:  g(F)=  0.000E+00 g(S)=  0.000E+00 dE (1.order)= 0.000E+00
 bond charge predicted
       N       E                     dE             d eps       ncg     rms          rms(c)
DAV:   1    -0.832427990085E+03   -0.11558E-04   -0.15810E-05  2660   0.862E-03    0.828E-03
DAV:   2    -0.832427990109E+03   -0.24585E-07   -0.20219E-06  2290   0.292E-03
 126 F= -.84009494E+03 E0= -.84009494E+03  d E =-.981231E-05  mag=     0.0000
quench:  g(F)=  0.000E+00 g(S)=  0.000E+00 dE (1.order)= 0.000E+00
 bond charge predicted
       N       E                     dE             d eps       ncg     rms          rms(c)
DAV:   1    -0.832428014226E+03   -0.24141E-04   -0.42232E-05  4100   0.131E-02    0.223E-03
DAV:   2    -0.832428014338E+03   -0.11260E-06   -0.14422E-06  2290   0.237E-03
 127 F= -.84009497E+03 E0= -.84009497E+03  d E =-.238283E-04  mag=     0.0000
quench:  g(F)=  0.000E+00 g(S)=  0.000E+00 dE (1.order)= 0.000E+00
 bond charge predicted
       N       E                     dE             d eps       ncg     rms          rms(c)
DAV:   1    -0.832428050444E+03   -0.36218E-04   -0.84817E-05  4180   0.180E-02    0.272E-03
DAV:   2    -0.832428050557E+03   -0.11297E-06   -0.21445E-06  2370   0.285E-03
 128 F= -.84009500E+03 E0= -.84009500E+03  d E =-.355696E-04  mag=     0.0000
quench:  g(F)=  0.000E+00 g(S)=  0.000E+00 dE (1.order)= 0.000E+00
 bond charge predicted
       N       E                     dE             d eps       ncg     rms          rms(c)
DAV:   1    -0.832428098342E+03   -0.47898E-04   -0.14759E-04  4260   0.233E-02    0.387E-03
DAV:   2    -0.832428098509E+03   -0.16703E-06   -0.34635E-06  2450   0.354E-03
 129 F= -.84009505E+03 E0= -.84009505E+03  d E =-.470102E-04  mag=     0.0000
quench:  g(F)=  0.000E+00 g(S)=  0.000E+00 dE (1.order)= 0.000E+00
 bond charge predicted
       N       E                     dE             d eps       ncg     rms          rms(c)
DAV:   1    -0.832428158330E+03   -0.59989E-04   -0.22498E-04  4350   0.278E-02    0.500E-03
DAV:   2    -0.832428158559E+03   -0.22847E-06   -0.49389E-06  2450   0.411E-03
 130 F= -.84009511E+03 E0= -.84009511E+03  d E =-.587700E-04  mag=     0.0000
quench:  g(F)=  0.000E+00 g(S)=  0.000E+00 dE (1.order)= 0.000E+00
 bond charge predicted
       N       E                     dE             d eps       ncg     rms          rms(c)
DAV:   1    -0.832428231941E+03   -0.73611E-04   -0.31854E-04  4330   0.316E-02    0.598E-03
DAV:   2    -0.832428232264E+03   -0.32291E-06   -0.67254E-06  2420   0.460E-03
 131 F= -.84009518E+03 E0= -.84009518E+03  d E =-.720304E-04  mag=     0.0000
quench:  g(F)=  0.000E+00 g(S)=  0.000E+00 dE (1.order)= 0.000E+00
 bond charge predicted
       N       E                     dE             d eps       ncg     rms          rms(c)
DAV:   1    -0.832428332118E+03   -0.10018E-03   -0.54538E-04  4340   0.390E-02    0.747E-03
DAV:   2    -0.832428332728E+03   -0.61053E-06   -0.11338E-05  2940   0.555E-03
 132 F= -.84009528E+03 E0= -.84009528E+03  d E =-.981304E-04  mag=     0.0000
quench:  g(F)=  0.000E+00 g(S)=  0.000E+00 dE (1.order)= 0.000E+00
 bond charge predicted
       N       E                     dE             d eps       ncg     rms          rms(c)
DAV:   1    -0.832428469703E+03   -0.13759E-03   -0.94602E-04  4320   0.481E-02    0.970E-03
DAV:   2    -0.832428470735E+03   -0.10320E-05   -0.18815E-05  3070   0.668E-03
 133 F= -.84009541E+03 E0= -.84009541E+03  d E =-.134732E-03  mag=     0.0000
quench:  g(F)=  0.000E+00 g(S)=  0.000E+00 dE (1.order)= 0.000E+00
 bond charge predicted
[...]
       N       E                     dE             d eps       ncg     rms          rms(c)
DAV:   1    -0.832448272952E+03   -0.38086E-05   -0.29237E-05  3770   0.994E-03    0.403E-03
DAV:   2    -0.832448272865E+03    0.87668E-07   -0.24225E-06  2860   0.281E-03
 191 F= -.84011496E+03 E0= -.84011496E+03  d E =-.461303E-05  mag=     0.0000
quench:  g(F)=  0.000E+00 g(S)=  0.000E+00 dE (1.order)= 0.000E+00
 bond charge predicted
       N       E                     dE             d eps       ncg     rms          rms(c)
DAV:   1    -0.832448268239E+03    0.47134E-05   -0.57694E-05  4010   0.153E-02    0.220E-03
DAV:   2    -0.832448268389E+03   -0.14961E-06   -0.16578E-06  2245   0.251E-03
 192 F= -.84011496E+03 E0= -.84011496E+03  d E =0.378522E-05  mag=     0.0000
quench:  g(F)=  0.000E+00 g(S)=  0.000E+00 dE (1.order)= 0.000E+00
 bond charge predicted
       N       E                     dE             d eps       ncg     rms          rms(c)
DAV:   1    -0.832448264866E+03    0.33731E-05   -0.11399E-04  4100   0.213E-02    0.284E-03
DAV:   2    -0.832448265079E+03   -0.21308E-06   -0.28984E-06  2300   0.326E-03
 193 F= -.84011496E+03 E0= -.84011496E+03  d E =0.234961E-05  mag=     0.0000
quench:  g(F)=  0.000E+00 g(S)=  0.000E+00 dE (1.order)= 0.000E+00
 bond charge predicted
       N       E                     dE             d eps       ncg     rms          rms(c)
DAV:   1    -0.832448266742E+03   -0.18763E-05   -0.18029E-04  4160   0.264E-02    0.381E-03
DAV:   2    -0.832448267037E+03   -0.29473E-06   -0.45001E-06  2360   0.395E-03
 194 F= -.84011496E+03 E0= -.84011496E+03  d E =-.306299E-05  mag=     0.0000
quench:  g(F)=  0.000E+00 g(S)=  0.000E+00 dE (1.order)= 0.000E+00
 bond charge predicted
       N       E                     dE             d eps       ncg     rms          rms(c)
DAV:   1    -0.832448279576E+03   -0.12834E-04   -0.24190E-04  4180   0.298E-02    0.456E-03
DAV:   2    -0.832448279956E+03   -0.38013E-06   -0.59576E-06  2520   0.440E-03
 195 F= -.84011497E+03 E0= -.84011497E+03  d E =-.139526E-04  mag=     0.0000
quench:  g(F)=  0.000E+00 g(S)=  0.000E+00 dE (1.order)= 0.000E+00
 bond charge predicted
       N       E                     dE             d eps       ncg     rms          rms(c)
DAV:   1    -0.832448309926E+03   -0.30350E-04   -0.31077E-04  4180   0.326E-02    0.525E-03
DAV:   2    -0.832448310396E+03   -0.46970E-06   -0.74377E-06  2540   0.475E-03
 196 F= -.84011500E+03 E0= -.84011500E+03  d E =-.311866E-04  mag=     0.0000
quench:  g(F)=  0.000E+00 g(S)=  0.000E+00 dE (1.order)= 0.000E+00
 bond charge predicted
       N       E                     dE             d eps       ncg     rms          rms(c)
DAV:   1    -0.832448370160E+03   -0.60234E-04   -0.51520E-04  4240   0.402E-02    0.652E-03
DAV:   2    -0.832448370922E+03   -0.76189E-06   -0.11957E-05  2780   0.570E-03
 197 F= -.84011507E+03 E0= -.84011507E+03  d E =-.607899E-04  mag=     0.0000
quench:  g(F)=  0.000E+00 g(S)=  0.000E+00 dE (1.order)= 0.000E+00
 bond charge predicted
       N       E                     dE             d eps       ncg     rms          rms(c)
DAV:   1    -0.832448475871E+03   -0.10571E-03   -0.87227E-04  4260   0.499E-02    0.867E-03
DAV:   2    -0.832448477055E+03   -0.11839E-05   -0.19346E-05  3005   0.700E-03
 198 F= -.84011517E+03 E0= -.84011517E+03  d E =-.105374E-03  mag=     0.0000
quench:  g(F)=  0.000E+00 g(S)=  0.000E+00 dE (1.order)= 0.000E+00
 bond charge predicted
       N       E                     dE             d eps       ncg     rms          rms(c)
DAV:   1    -0.832448645374E+03   -0.16950E-03   -0.15833E-03  4440   0.648E-02    0.119E-02
DAV:   2    -0.832448647325E+03   -0.19510E-05   -0.33350E-05  3540   0.888E-03
 199 F= -.84011534E+03 E0= -.84011534E+03  d E =-.168131E-03  mag=     0.0000
quench:  g(F)=  0.000E+00 g(S)=  0.000E+00 dE (1.order)= 0.000E+00
 bond charge predicted
       N       E                     dE             d eps       ncg     rms          rms(c)
DAV:   1    -0.832448899649E+03   -0.25427E-03   -0.28531E-03  4480   0.844E-02    0.164E-02
DAV:   2    -0.832448902988E+03   -0.33393E-05   -0.57624E-05  3650   0.114E-02
 200 F= -.84011559E+03 E0= -.84011559E+03  d E =-.251621E-03  mag=     0.0000
quench:  g(F)=  0.000E+00 g(S)=  0.000E+00 dE (1.order)= 0.000E+00
 bond charge predicted
       N       E                     dE             d eps       ncg     rms          rms(c)
DAV:   1    -0.832449258812E+03   -0.35916E-03   -0.50111E-03  4480   0.110E-01    0.223E-02
DAV:   2    -0.832449264469E+03   -0.56572E-05   -0.98387E-05  4080   0.148E-02
 201 F= -.84011595E+03 E0= -.84011595E+03  d E =-.355257E-03  mag=     0.0000
quench:  g(F)=  0.000E+00 g(S)=  0.000E+00 dE (1.order)= 0.000E+00
 bond charge predicted
       N       E                     dE             d eps       ncg     rms          rms(c)
DAV:   1    -0.832449737432E+03   -0.47862E-03   -0.83430E-03  4480   0.142E-01    0.294E-02
DAV:   2    -0.832449746512E+03   -0.90803E-05   -0.16213E-04  4340   0.191E-02    0.225E-02
DAV:   3    -0.832449748134E+03   -0.16217E-05   -0.33255E-06  2965   0.337E-03
 202 F= -.84011642E+03 E0= -.84011642E+03  d E =-.475789E-03  mag=     0.0000
quench:  g(F)=  0.000E+00 g(S)=  0.000E+00 dE (1.order)= 0.000E+00
 bond charge predicted
       N       E                     dE             d eps       ncg     rms          rms(c)
DAV:   1    -0.832450345963E+03   -0.59945E-03   -0.13039E-02  4520   0.178E-01    0.258E-02
DAV:   2    -0.832450365840E+03   -0.19876E-04   -0.25422E-04  4380   0.236E-02    0.174E-02
DAV:   3    -0.832450365911E+03   -0.71377E-07   -0.31566E-06  2840   0.314E-03
 203 F= -.84011703E+03 E0= -.84011703E+03  d E =-.608547E-03  mag=     0.0000
quench:  g(F)=  0.000E+00 g(S)=  0.000E+00 dE (1.order)= 0.000E+00
 bond charge predicted
       N       E                     dE             d eps       ncg     rms          rms(c)
DAV:   1    -0.832451083321E+03   -0.71748E-03   -0.20402E-02  4520   0.221E-01    0.317E-02
DAV:   2    -0.832451115314E+03   -0.31993E-04   -0.40563E-04  4400   0.295E-02    0.213E-02
DAV:   3    -0.832451114797E+03    0.51683E-06   -0.50309E-06  3260   0.389E-03
 204 F= -.84011777E+03 E0= -.84011777E+03  d E =-.738328E-03  mag=     0.0000
quench:  g(F)=  0.000E+00 g(S)=  0.000E+00 dE (1.order)= 0.000E+00
 bond charge predicted
       N       E                     dE             d eps       ncg     rms          rms(c)
DAV:   1    -0.832451920919E+03   -0.80561E-03   -0.27295E-02  4520   0.249E-01    0.380E-02
DAV:   2    -0.832451961378E+03   -0.40459E-04   -0.53753E-04  4400   0.330E-02    0.250E-02
DAV:   3    -0.832451960957E+03    0.42163E-06   -0.72903E-06  3220   0.457E-03
 205 F= -.84011860E+03 E0= -.84011860E+03  d E =-.832300E-03  mag=     0.0000
quench:  g(F)=  0.000E+00 g(S)=  0.000E+00 dE (1.order)= 0.000E+00
 bond charge predicted
       N       E                     dE             d eps       ncg     rms          rms(c)
DAV:   1    -0.832452774062E+03   -0.81268E-03   -0.32121E-02  4520   0.272E-01    0.419E-02
DAV:   2    -0.832452821994E+03   -0.47932E-04   -0.64487E-04  4420   0.362E-02    0.278E-02
DAV:   3    -0.832452821308E+03    0.68671E-06   -0.92487E-06  3520   0.528E-03
 206 F= -.84011945E+03 E0= -.84011945E+03  d E =-.844770E-03  mag=     0.0000
quench:  g(F)=  0.000E+00 g(S)=  0.000E+00 dE (1.order)= 0.000E+00
 bond charge predicted
       N       E                     dE             d eps       ncg     rms          rms(c)
DAV:   1    -0.832452815573E+03    0.64217E-05   -0.73376E-05  4080   0.157E-02    0.399E-03
DAV:   2    -0.832452815722E+03   -0.14977E-06   -0.39621E-06  2920   0.350E-03
 207 F= -.84011944E+03 E0= -.84011944E+03  d E =0.534254E-05  mag=     0.0000
quench:  g(F)=  0.000E+00 g(S)=  0.000E+00 dE (1.order)= 0.000E+00
 bond charge predicted
       N       E                     dE             d eps       ncg     rms          rms(c)
DAV:   1    -0.832452786301E+03    0.29272E-04   -0.18802E-04  4160   0.265E-02    0.319E-03
DAV:   2    -0.832452786692E+03   -0.39070E-06   -0.45569E-06  2340   0.404E-03
 208 F= -.84011941E+03 E0= -.84011941E+03  d E =0.287523E-04  mag=     0.0000
quench:  g(F)=  0.000E+00 g(S)=  0.000E+00 dE (1.order)= 0.000E+00
 bond charge predicted
       N       E                     dE             d eps       ncg     rms          rms(c)
DAV:   1    -0.832452743224E+03    0.43078E-04   -0.37102E-04  4220   0.367E-02    0.447E-03
DAV:   2    -0.832452743884E+03   -0.66085E-06   -0.88000E-06  2680   0.544E-03
 209 F= -.84011937E+03 E0= -.84011937E+03  d E =0.425521E-04  mag=     0.0000
quench:  g(F)=  0.000E+00 g(S)=  0.000E+00 dE (1.order)= 0.000E+00
 bond charge predicted
       N       E                     dE             d eps       ncg     rms          rms(c)
DAV:   1    -0.832452689984E+03    0.53239E-04   -0.57362E-04  4260   0.451E-02    0.582E-03
DAV:   2    -0.832452690908E+03   -0.92325E-06   -0.13063E-05  2880   0.646E-03
 210 F= -.84011932E+03 E0= -.84011932E+03  d E =0.528353E-04  mag=     0.0000
quench:  g(F)=  0.000E+00 g(S)=  0.000E+00 dE (1.order)= 0.000E+00
 bond charge predicted
       N       E                     dE             d eps       ncg     rms          rms(c)
DAV:   1    -0.832452631654E+03    0.58330E-04   -0.79471E-04  4280   0.531E-02    0.701E-03
DAV:   2    -0.832452632906E+03   -0.12513E-05   -0.17783E-05  2950   0.747E-03
 211 F= -.84011926E+03 E0= -.84011926E+03  d E =0.580561E-04  mag=     0.0000
quench:  g(F)=  0.000E+00 g(S)=  0.000E+00 dE (1.order)= 0.000E+00
 bond charge predicted
       N       E                     dE             d eps       ncg     rms          rms(c)
DAV:   1    -0.832452573071E+03    0.58584E-04   -0.98630E-04  4340   0.593E-02    0.809E-03
DAV:   2    -0.832452574577E+03   -0.15062E-05   -0.21762E-05  3090   0.823E-03
 212 F= -.84011920E+03 E0= -.84011920E+03  d E =0.584177E-04  mag=     0.0000
quench:  g(F)=  0.000E+00 g(S)=  0.000E+00 dE (1.order)= 0.000E+00
 bond charge predicted
       N       E                     dE             d eps       ncg     rms          rms(c)
DAV:   1    -0.832452514215E+03    0.58856E-04   -0.14419E-03  4380   0.719E-02    0.969E-03
DAV:   2    -0.832452516409E+03   -0.21944E-05   -0.31425E-05  3520   0.992E-03
 213 F= -.84011914E+03 E0= -.84011914E+03  d E =0.584090E-04  mag=     0.0000
quench:  g(F)=  0.000E+00 g(S)=  0.000E+00 dE (1.order)= 0.000E+00
 bond charge predicted
       N       E                     dE             d eps       ncg     rms          rms(c)
DAV:   1    -0.832452465586E+03    0.48629E-04   -0.19541E-03  4400   0.832E-02    0.116E-02
DAV:   2    -0.832452468412E+03   -0.28263E-05   -0.41803E-05  3690   0.115E-02
 214 F= -.84011909E+03 E0= -.84011909E+03  d E =0.482504E-04  mag=     0.0000
quench:  g(F)=  0.000E+00 g(S)=  0.000E+00 dE (1.order)= 0.000E+00
 bond charge predicted
       N       E                     dE             d eps       ncg     rms          rms(c)
DAV:   1    -0.832452442695E+03    0.22890E-04   -0.25213E-03  4460   0.932E-02    0.136E-02
DAV:   2    -0.832452446096E+03   -0.34006E-05   -0.52739E-05  4010   0.127E-02
 215 F= -.84011907E+03 E0= -.84011907E+03  d E =0.229231E-04  mag=     0.0000
quench:  g(F)=  0.000E+00 g(S)=  0.000E+00 dE (1.order)= 0.000E+00
 bond charge predicted
       N       E                     dE             d eps       ncg     rms          rms(c)
DAV:   1    -0.832452466313E+03   -0.23617E-04   -0.31127E-03  4480   0.101E-01    0.159E-02
DAV:   2    -0.832452470033E+03   -0.37201E-05   -0.62750E-05  4120   0.137E-02
 216 F= -.84011909E+03 E0= -.84011909E+03  d E =-.223882E-04  mag=     0.0000
quench:  g(F)=  0.000E+00 g(S)=  0.000E+00 dE (1.order)= 0.000E+00
 bond charge predicted
       N       E                     dE             d eps       ncg     rms          rms(c)
DAV:   1    -0.832452559274E+03   -0.92961E-04   -0.40585E-03  4520   0.111E-01    0.188E-02
DAV:   2    -0.832452563612E+03   -0.43387E-05   -0.78289E-05  4360   0.147E-02
 217 F= -.84011918E+03 E0= -.84011918E+03  d E =-.906443E-04  mag=     0.0000
quench:  g(F)=  0.000E+00 g(S)=  0.000E+00 dE (1.order)= 0.000E+00
 bond charge predicted
       N       E                     dE             d eps       ncg     rms          rms(c)
DAV:   1    -0.832452748397E+03   -0.18912E-03   -0.56827E-03  4560   0.127E-01    0.231E-02
DAV:   2    -0.832452754005E+03   -0.56080E-05   -0.10710E-04  4300   0.166E-02    0.180E-02
DAV:   3    -0.832452754402E+03   -0.39673E-06   -0.28179E-06  2845   0.364E-03
 218 F= -.84011937E+03 E0= -.84011937E+03  d E =-.185920E-03  mag=     0.0000
quench:  g(F)=  0.000E+00 g(S)=  0.000E+00 dE (1.order)= 0.000E+00
 bond charge predicted
       N       E                     dE             d eps       ncg     rms          rms(c)
DAV:   1    -0.832453056486E+03   -0.30248E-03   -0.89736E-03  4560   0.154E-01    0.210E-02
DAV:   2    -0.832453069244E+03   -0.12759E-04   -0.16962E-04  4380   0.198E-02    0.146E-02
DAV:   3    -0.832453068975E+03    0.26962E-06   -0.23907E-06  2470   0.299E-03
 219 F= -.84011968E+03 E0= -.84011968E+03  d E =-.307939E-03  mag=     0.0000
quench:  g(F)=  0.000E+00 g(S)=  0.000E+00 dE (1.order)= 0.000E+00
 bond charge predicted
       N       E                     dE             d eps       ncg     rms          rms(c)
DAV:   1    -0.832453502857E+03   -0.43361E-03   -0.15152E-02  4540   0.199E-01    0.271E-02
DAV:   2    -0.832453525513E+03   -0.22655E-04   -0.29866E-04  4410   0.263E-02    0.187E-02
DAV:   3    -0.832453524720E+03    0.79265E-06   -0.42042E-06  3080   0.389E-03
 220 F= -.84012012E+03 E0= -.84012012E+03  d E =-.447868E-03  mag=     0.0000
quench:  g(F)=  0.000E+00 g(S)=  0.000E+00 dE (1.order)= 0.000E+00
 bond charge predicted
       N       E                     dE             d eps       ncg     rms          rms(c)
DAV:   1    -0.832454094216E+03   -0.56870E-03   -0.24542E-02  4520   0.248E-01    0.353E-02
DAV:   2    -0.832454129888E+03   -0.35672E-04   -0.48215E-04  4400   0.325E-02    0.239E-02
DAV:   3    -0.832454128787E+03    0.11016E-05   -0.70579E-06  3260   0.489E-03
 221 F= -.84012072E+03 E0= -.84012072E+03  d E =-.593358E-03  mag=     0.0000
quench:  g(F)=  0.000E+00 g(S)=  0.000E+00 dE (1.order)= 0.000E+00
 bond charge predicted
       N       E                     dE             d eps       ncg     rms          rms(c)
DAV:   1    -0.832454789191E+03   -0.65930E-03   -0.35396E-02  4520   0.305E-01    0.421E-02
DAV:   2    -0.832454842556E+03   -0.53365E-04   -0.70801E-04  4400   0.400E-02    0.289E-02
DAV:   3    -0.832454840926E+03    0.16305E-05   -0.10293E-05  3540   0.609E-03
 222 F= -.84012142E+03 E0= -.84012142E+03  d E =-.700206E-03  mag=     0.0000
quench:  g(F)=  0.000E+00 g(S)=  0.000E+00 dE (1.order)= 0.000E+00
 bond charge predicted
       N       E                     dE             d eps       ncg     rms          rms(c)
DAV:   1    -0.832455489431E+03   -0.64688E-03   -0.43886E-02  4520   0.360E-01    0.452E-02
DAV:   2    -0.832455559621E+03   -0.70189E-04   -0.89562E-04  4400   0.477E-02    0.320E-02
DAV:   3    -0.832455557033E+03    0.25876E-05   -0.12482E-05  3700   0.704E-03
 223 F= -.84012213E+03 E0= -.84012213E+03  d E =-.708059E-03  mag=     0.0000
quench:  g(F)=  0.000E+00 g(S)=  0.000E+00 dE (1.order)= 0.000E+00
 bond charge predicted
       N       E                     dE             d eps       ncg     rms          rms(c)
DAV:   1    -0.832456042250E+03   -0.48263E-03   -0.57650E-02  4520   0.432E-01    0.485E-02
DAV:   2    -0.832456139141E+03   -0.96891E-04   -0.12015E-03  4470   0.574E-02    0.342E-02
DAV:   3    -0.832456135540E+03    0.36015E-05   -0.15996E-05  4220   0.817E-03
 224 F= -.84012270E+03 E0= -.84012270E+03  d E =-.577574E-03  mag=     0.0000
quench:  g(F)=  0.000E+00 g(S)=  0.000E+00 dE (1.order)= 0.000E+00
 bond charge predicted
       N       E                     dE             d eps       ncg     rms          rms(c)
DAV:   1    -0.832456364709E+03   -0.22557E-03   -0.77385E-02  4500   0.520E-01    0.536E-02
DAV:   2    -0.832456497685E+03   -0.13298E-03   -0.16368E-03  4490   0.696E-02    0.384E-02
DAV:   3    -0.832456491801E+03    0.58837E-05   -0.24039E-05  4480   0.103E-02
 225 F= -.84012306E+03 E0= -.84012306E+03  d E =-.355781E-03  mag=     0.0000
quench:  g(F)=  0.000E+00 g(S)=  0.000E+00 dE (1.order)= 0.000E+00
 bond charge predicted
       N       E                     dE             d eps       ncg     rms          rms(c)
DAV:   1    -0.832456464630E+03    0.33055E-04   -0.10517E-01  4500   0.621E-01    0.610E-02
DAV:   2    -0.832456646118E+03   -0.18149E-03   -0.22368E-03  4480   0.835E-02    0.455E-02
DAV:   3    -0.832456636961E+03    0.91565E-05   -0.35239E-05  5000   0.124E-02
 226 F= -.84012322E+03 E0= -.84012322E+03  d E =-.158660E-03  mag=     0.0000
quench:  g(F)=  0.000E+00 g(S)=  0.000E+00 dE (1.order)= 0.000E+00
 bond charge predicted
       N       E                     dE             d eps       ncg     rms          rms(c)
DAV:   1    -0.832456515409E+03    0.13071E-03   -0.14963E-01  4480   0.750E-01    0.743E-02
DAV:   2    -0.832456778568E+03   -0.26316E-03   -0.32842E-03  4470   0.103E-01    0.567E-02
DAV:   3    -0.832456762749E+03    0.15819E-04   -0.58262E-05  5360   0.158E-02    0.439E-02
DAV:   4    -0.832456782077E+03   -0.19327E-04   -0.68248E-05  4320   0.191E-02    0.134E-02
DAV:   5    -0.832456786954E+03   -0.48777E-05   -0.20749E-05  3740   0.816E-03
 227 F= -.84012338E+03 E0= -.84012338E+03  d E =-.161153E-03  mag=     0.0000
quench:  g(F)=  0.000E+00 g(S)=  0.000E+00 dE (1.order)= 0.000E+00
 bond charge predicted
       N       E                     dE             d eps       ncg     rms          rms(c)
DAV:   1    -0.832456836240E+03   -0.54164E-04   -0.47012E-03  4460   0.144E-01    0.166E-02
DAV:   2    -0.832456846220E+03   -0.99793E-05   -0.14011E-04  5380   0.231E-02    0.141E-02
DAV:   3    -0.832456844021E+03    0.21983E-05   -0.50197E-06  2660   0.493E-03
 228 F= -.84012344E+03 E0= -.84012344E+03  d E =-.614766E-04  mag=     0.0000
quench:  g(F)=  0.000E+00 g(S)=  0.000E+00 dE (1.order)= 0.000E+00
 bond charge predicted
       N       E                     dE             d eps       ncg     rms          rms(c)
DAV:   1    -0.832456747568E+03    0.98652E-04   -0.55709E-03  4460   0.156E-01    0.194E-02
DAV:   2    -0.832456758542E+03   -0.10974E-04   -0.14666E-04  5560   0.236E-02    0.161E-02
DAV:   3    -0.832456756400E+03    0.21421E-05   -0.47371E-06  2680   0.492E-03
 229 F= -.84012336E+03 E0= -.84012336E+03  d E =0.833032E-04  mag=     0.0000
quench:  g(F)=  0.000E+00 g(S)=  0.000E+00 dE (1.order)= 0.000E+00
 bond charge predicted
       N       E                     dE             d eps       ncg     rms          rms(c)
DAV:   1    -0.832456782140E+03   -0.23598E-04   -0.29941E-04  4380   0.365E-02    0.494E-03
DAV:   2    -0.832456782927E+03   -0.78657E-06   -0.13550E-05  2630   0.723E-03
 230 F= -.84012338E+03 E0= -.84012338E+03  d E =-.257951E-04  mag=     0.0000
quench:  g(F)=  0.000E+00 g(S)=  0.000E+00 dE (1.order)= 0.000E+00
 bond charge predicted
       N       E                     dE             d eps       ncg     rms          rms(c)
DAV:   1    -0.832456811230E+03   -0.29090E-04   -0.80634E-04  4525   0.595E-02    0.789E-03
DAV:   2    -0.832456812344E+03   -0.11140E-05   -0.23112E-05  3620   0.963E-03
 231 F= -.84012341E+03 E0= -.84012341E+03  d E =-.283677E-04  mag=     0.0000
quench:  g(F)=  0.000E+00 g(S)=  0.000E+00 dE (1.order)= 0.000E+00
 bond charge predicted
       N       E                     dE             d eps       ncg     rms          rms(c)
DAV:   1    -0.832456811783E+03   -0.55313E-06   -0.12342E-03  4480   0.736E-02    0.119E-02
DAV:   2    -0.832456813205E+03   -0.14221E-05   -0.33730E-05  4560   0.117E-02
 232 F= -.84012341E+03 E0= -.84012341E+03  d E =0.696951E-07  mag=     0.0000
quench:  g(F)=  0.000E+00 g(S)=  0.000E+00 dE (1.order)= 0.000E+00
 reached required accuracy - stopping structural energy minimisation
