<?xml version="1.0" encoding="ISO-8859-1"?>
<modeling>
 <generator>
  <i name="program" type="string">vasp </i>
  <i name="version" type="string">6.4.2  </i>
  <i name="subversion" type="string">20Jul23 (build Aug 26 2025 15:10:52) complex                          parallel </i>
  <i name="platform" type="string">LinuxIFC </i>
  <i name="date" type="string">2025 12 07 </i>
  <i name="time" type="string">12:58:30 </i>
 </generator>
 <incar>
  <i type="int" name="ISTART">     0</i>
  <i type="string" name="ALGO">Normal</i>
  <i type="logical" name="ADDGRID"> T  </i>
  <i type="int" name="ISPIN">     2</i>
  <i type="int" name="IMIX">     4</i>
  <i name="AMIX">      0.20000000</i>
  <i name="BMIX">      0.00010000</i>
  <i name="AMIX_MAG">      0.80000000</i>
  <i name="BMIX_MAG">      0.00010000</i>
  <i type="int" name="ICHARG">     2</i>
  <i type="int" name="NELM">   200</i>
  <i type="int" name="IBRION">     3</i>
  <i name="EDIFF">      0.00001000</i>
  <i name="EDIFFG">     -0.03000000</i>
  <i type="int" name="NSW">  1000</i>
  <i type="int" name="ISIF">     2</i>
  <i type="int" name="ISYM">     0</i>
  <i name="ENCUT">    520.00000000</i>
  <i name="POTIM">      0.00000000</i>
  <v name="MAGMOM">      0.60000000      0.60000000      0.60000000      0.60000000      0.60000000      0.60000000      0.60000000      0.60000000      0.60000000      0.60000000      0.60000000      0.60000000      0.60000000      0.60000000      0.60000000      0.60000000      0.60000000      0.60000000      0.60000000      0.60000000
      0.60000000      0.60000000      0.60000000      0.60000000      0.60000000      0.60000000      0.60000000      0.60000000      0.60000000      0.60000000      0.60000000      0.60000000      0.60000000      0.60000000      0.60000000      0.60000000      0.60000000      0.60000000      0.60000000      0.60000000
      0.60000000      0.60000000      0.60000000      0.60000000      0.60000000      0.60000000      0.60000000      0.60000000      0.60000000      0.60000000      0.60000000      0.60000000      0.60000000      0.60000000      0.60000000      0.60000000      0.60000000      0.60000000      0.60000000      0.60000000
      0.60000000      0.60000000      0.60000000      0.60000000      0.60000000      0.60000000      0.60000000      0.60000000      0.60000000      0.60000000      0.60000000      0.60000000      0.60000000      0.60000000      0.60000000      0.60000000      0.60000000      0.60000000      0.60000000      0.60000000
      0.60000000      0.60000000      0.60000000      0.60000000      0.60000000      0.60000000      0.60000000      0.60000000      0.60000000      0.60000000      0.60000000      0.60000000      0.60000000      0.60000000      0.60000000</v>
  <i type="string" name="LREAL">Auto</i>
  <i type="int" name="ISMEAR">     0</i>
  <i name="SIGMA">      0.05000000</i>
  <i type="logical" name="LWAVE"> F  </i>
  <i type="logical" name="LCHARG"> F  </i>
  <i type="logical" name="LASPH"> T  </i>
  <i type="int" name="IVDW">    12</i>
  <i name="SPRING">     -5.00000000</i>
 </incar>
 <primitive_cell>
  <structure name="primitive_cell" >
   <crystal>
    <varray name="basis" >
     <v>      17.27103806       0.00000000       0.00000000 </v>
     <v>      -8.63551903      14.95715771       0.00000000 </v>
     <v>       0.00000000       0.00000000      15.00000000 </v>
    </varray>
    <i name="volume">   3874.88459904 </i>
    <varray name="rec_basis" >
     <v>       0.05790040       0.03342881       0.00000000 </v>
     <v>       0.00000000       0.06685762       0.00000000 </v>
     <v>       0.00000000       0.00000000       0.06666667 </v>
    </varray>
   </crystal>
   <varray name="positions" >
    <v>       0.00155580       0.00078308       0.50082199 </v>
    <v>       0.00019420       0.14261274       0.49819850 </v>
    <v>       0.00017069       0.28572801       0.49755905 </v>
    <v>       0.00080378       0.42894365       0.49915113 </v>
    <v>       0.00128229       0.57209351       0.50114489 </v>
    <v>       0.00235699       0.71529737       0.50328320 </v>
    <v>       0.00337862       0.85911893       0.50308387 </v>
    <v>       0.14548024       0.00253185       0.49218664 </v>
    <v>       0.14400600       0.14433915       0.48714019 </v>
    <v>       0.14179671       0.28545563       0.48284868 </v>
    <v>       0.14281281       0.42909665       0.48300786 </v>
    <v>       0.14409863       0.57189160       0.48794638 </v>
    <v>       0.14443420       0.71519583       0.49155756 </v>
    <v>       0.14508639       0.85892158       0.49376272 </v>
    <v>       0.28806609       0.00281338       0.48962704 </v>
    <v>       0.28837693       0.14679566       0.48269154 </v>
    <v>       0.28580177       0.29090464       0.46576508 </v>
    <v>       0.28136820       0.42388104       0.45424093 </v>
    <v>       0.28694542       0.57171213       0.46254240 </v>
    <v>       0.28654271       0.71537858       0.48003532 </v>
    <v>       0.28695796       0.85890055       0.48832110 </v>
    <v>       0.43018684       0.00151250       0.49281053 </v>
    <v>       0.43152492       0.14632645       0.49154138 </v>
    <v>       0.43001888       0.28542266       0.47413300 </v>
    <v>       0.42874794       0.85737768       0.48725934 </v>
    <v>       0.57193961       0.99925509       0.49771315 </v>
    <v>       0.57287111       0.14329326       0.50045935 </v>
    <v>       0.57731380       0.29052017       0.50174759 </v>
    <v>       0.56990923       0.85388194       0.49679709 </v>
    <v>       0.71389712       0.99748326       0.50542424 </v>
    <v>       0.71499760       0.14195241       0.50513944 </v>
    <v>       0.71588584       0.28570256       0.50891085 </v>
    <v>       0.71248899       0.42572845       0.51741522 </v>
    <v>       0.72188652       0.57685441       0.53780201 </v>
    <v>       0.71407214       0.85377723       0.51341586 </v>
    <v>       0.85746259       0.99898017       0.50791946 </v>
    <v>       0.85721607       0.14195259       0.50516760 </v>
    <v>       0.85791404       0.28547079       0.50628007 </v>
    <v>       0.85847877       0.42890410       0.50975167 </v>
    <v>       0.85825473       0.57194184       0.51435635 </v>
    <v>       0.86182438       0.71659542       0.51688704 </v>
    <v>       0.85979495       0.85737574       0.51321024 </v>
    <v>       0.04883588       0.09602473       0.49546938 </v>
    <v>       0.04706304       0.23766235       0.49354455 </v>
    <v>       0.04793876       0.38125909       0.49389536 </v>
    <v>       0.04889151       0.52432857       0.49639798 </v>
    <v>       0.04936980       0.66752750       0.49851098 </v>
    <v>       0.05008131       0.81085031       0.49982727 </v>
    <v>       0.05019821       0.95416092       0.49851025 </v>
    <v>       0.19275598       0.09770545       0.48672850 </v>
    <v>       0.19036798       0.23922927       0.47892053 </v>
    <v>       0.18839378       0.38014131       0.47505399 </v>
    <v>       0.19177636       0.52450364       0.47946634 </v>
    <v>       0.19149592       0.66745407       0.48580312 </v>
    <v>       0.19209794       0.81090878       0.49064911 </v>
    <v>       0.19286596       0.95454513       0.49137137 </v>
    <v>       0.33604301       0.09892031       0.48765266 </v>
    <v>       0.33596634       0.24262944       0.47288388 </v>
    <v>       0.32507976       0.51905570       0.43928240 </v>
    <v>       0.33703848       0.67055817       0.47020129 </v>
    <v>       0.33394542       0.81051010       0.48469815 </v>
    <v>       0.33488481       0.95431293       0.49014133 </v>
    <v>       0.47796939       0.09694500       0.49572902 </v>
    <v>       0.48009395       0.24230938       0.48983525 </v>
    <v>       0.47257928       0.80564169       0.48554144 </v>
    <v>       0.47702736       0.95282989       0.49282439 </v>
    <v>       0.61971471       0.09465625       0.50159044 </v>
    <v>       0.62113707       0.23882841       0.50441712 </v>
    <v>       0.62022326       0.81028777       0.50691722 </v>
    <v>       0.61843521       0.94988923       0.50008531 </v>
    <v>       0.76191500       0.09357421       0.50572230 </v>
    <v>       0.76299265       0.23738487       0.50740127 </v>
    <v>       0.76326256       0.38086121       0.51271577 </v>
    <v>       0.76209185       0.52448157       0.52422340 </v>
    <v>       0.76758830       0.67235002       0.52931821 </v>
    <v>       0.76377439       0.80529868       0.52019626 </v>
    <v>       0.76175908       0.94982285       0.50929289 </v>
    <v>       0.90482032       0.09418586       0.50425640 </v>
    <v>       0.90507321       0.23756493       0.50363127 </v>
    <v>       0.90565374       0.38117805       0.50557527 </v>
    <v>       0.90598366       0.52450336       0.50828007 </v>
    <v>       0.90732827       0.66741844       0.51181051 </v>
    <v>       0.90858439       0.81132241       0.51121151 </v>
    <v>       0.90626538       0.95240149       0.50753964 </v>
    <v>       0.47634029       0.37362310       0.45826807 </v>
    <v>       0.40355114       0.55776303       0.39655373 </v>
    <v>       0.63527433       0.53721182       0.55941291 </v>
    <v>       0.57480309       0.72098681       0.51025179 </v>
    <v>       0.42671855       0.71591910       0.47355363 </v>
    <v>       0.72078383       0.71624293       0.53093886 </v>
    <v>       0.32736948       0.37913471       0.44915474 </v>
    <v>       0.62297601       0.38045025       0.51099211 </v>
    <v>       0.53480719       0.57960041       0.51929916 </v>
    <v>       0.46247881       0.48345433       0.49144178 </v>
    <v>       0.47621807       0.53041419       0.53488800 </v>
   </varray>
  </structure>
  <varray name="primitive_index" >
   <v type="int" >        1 </v>
   <v type="int" >        2 </v>
   <v type="int" >        3 </v>
   <v type="int" >        4 </v>
   <v type="int" >        5 </v>
   <v type="int" >        6 </v>
   <v type="int" >        7 </v>
   <v type="int" >        8 </v>
   <v type="int" >        9 </v>
   <v type="int" >       10 </v>
   <v type="int" >       11 </v>
   <v type="int" >       12 </v>
   <v type="int" >       13 </v>
   <v type="int" >       14 </v>
   <v type="int" >       15 </v>
   <v type="int" >       16 </v>
   <v type="int" >       17 </v>
   <v type="int" >       18 </v>
   <v type="int" >       19 </v>
   <v type="int" >       20 </v>
   <v type="int" >       21 </v>
   <v type="int" >       22 </v>
   <v type="int" >       23 </v>
   <v type="int" >       24 </v>
   <v type="int" >       25 </v>
   <v type="int" >       26 </v>
   <v type="int" >       27 </v>
   <v type="int" >       28 </v>
   <v type="int" >       29 </v>
   <v type="int" >       30 </v>
   <v type="int" >       31 </v>
   <v type="int" >       32 </v>
   <v type="int" >       33 </v>
   <v type="int" >       34 </v>
   <v type="int" >       35 </v>
   <v type="int" >       36 </v>
   <v type="int" >       37 </v>
   <v type="int" >       38 </v>
   <v type="int" >       39 </v>
   <v type="int" >       40 </v>
   <v type="int" >       41 </v>
   <v type="int" >       42 </v>
   <v type="int" >       43 </v>
   <v type="int" >       44 </v>
   <v type="int" >       45 </v>
   <v type="int" >       46 </v>
   <v type="int" >       47 </v>
   <v type="int" >       48 </v>
   <v type="int" >       49 </v>
   <v type="int" >       50 </v>
   <v type="int" >       51 </v>
   <v type="int" >       52 </v>
   <v type="int" >       53 </v>
   <v type="int" >       54 </v>
   <v type="int" >       55 </v>
   <v type="int" >       56 </v>
   <v type="int" >       57 </v>
   <v type="int" >       58 </v>
   <v type="int" >       59 </v>
   <v type="int" >       60 </v>
   <v type="int" >       61 </v>
   <v type="int" >       62 </v>
   <v type="int" >       63 </v>
   <v type="int" >       64 </v>
   <v type="int" >       65 </v>
   <v type="int" >       66 </v>
   <v type="int" >       67 </v>
   <v type="int" >       68 </v>
   <v type="int" >       69 </v>
   <v type="int" >       70 </v>
   <v type="int" >       71 </v>
   <v type="int" >       72 </v>
   <v type="int" >       73 </v>
   <v type="int" >       74 </v>
   <v type="int" >       75 </v>
   <v type="int" >       76 </v>
   <v type="int" >       77 </v>
   <v type="int" >       78 </v>
   <v type="int" >       79 </v>
   <v type="int" >       80 </v>
   <v type="int" >       81 </v>
   <v type="int" >       82 </v>
   <v type="int" >       83 </v>
   <v type="int" >       84 </v>
   <v type="int" >       85 </v>
   <v type="int" >       86 </v>
   <v type="int" >       87 </v>
   <v type="int" >       88 </v>
   <v type="int" >       89 </v>
   <v type="int" >       90 </v>
   <v type="int" >       91 </v>
   <v type="int" >       92 </v>
   <v type="int" >       93 </v>
   <v type="int" >       94 </v>
   <v type="int" >       95 </v>
  </varray>
 </primitive_cell>
 <kpoints>
  <generation param="Gamma">
   <v type="int" name="divisions">       2        2        1 </v>
   <v name="usershift">      0.00000000       0.00000000       0.00000000 </v>
   <v name="genvec1">      0.50000000       0.00000000       0.00000000 </v>
   <v name="genvec2">      0.00000000       0.50000000       0.00000000 </v>
   <v name="genvec3">      0.00000000       0.00000000       1.00000000 </v>
   <v name="shift">      0.00000000       0.00000000       0.00000000 </v>
  </generation>
  <varray name="kpointlist" >
   <v>       0.00000000       0.00000000       0.00000000 </v>
   <v>       0.50000000       0.00000000       0.00000000 </v>
   <v>       0.00000000       0.50000000       0.00000000 </v>
   <v>       0.50000000       0.50000000       0.00000000 </v>
  </varray>
  <varray name="weights" >
   <v>       0.25000000 </v>
   <v>       0.25000000 </v>
   <v>       0.25000000 </v>
   <v>       0.25000000 </v>
  </varray>
 </kpoints>
 <parameters>
  <separator name="general" >
   <i type="string" name="SYSTEM">unknown system</i>
   <i type="logical" name="LCOMPAT"> F  </i>
  </separator>
  <separator name="electronic" >
   <i type="string" name="PREC">normal</i>
   <i name="ENMAX">    520.00000000</i>
   <i name="ENAUG">    644.87300000</i>
   <i name="EDIFF">      0.00001000</i>
   <i type="int" name="IALGO">    38</i>
   <i type="int" name="IWAVPR">    11</i>
   <i type="int" name="NBANDS">   275</i>
   <i type="int" name="NBANDSLOW">    -1</i>
   <i type="int" name="NBANDSHIGH">    -1</i>
   <i name="NELECT">    392.00000000</i>
   <i type="int" name="TURBO">     0</i>
   <i type="int" name="IRESTART">     0</i>
   <i type="int" name="NREBOOT">     0</i>
   <i type="int" name="NMIN">     0</i>
   <i name="EREF">      0.00000000</i>
   <separator name="electronic smearing" >
    <i type="int" name="ISMEAR">     0</i>
    <i name="SIGMA">      0.05000000</i>
    <i name="KSPACING">      0.50000000</i>
    <i type="logical" name="KGAMMA"> T  </i>
    <i type="logical" name="KBLOWUP"> T  </i>
   </separator>
   <separator name="electronic projectors" >
    <i type="logical" name="LREAL"> T  </i>
    <v name="ROPT">     -0.00050000     -0.00050000     -0.00050000     -0.00050000     -0.00050000</v>
    <i type="int" name="LMAXPAW">  -100</i>
    <i type="int" name="LMAXMIX">     2</i>
    <i type="logical" name="NLSPLINE"> F  </i>
   </separator>
   <separator name="electronic startup" >
    <i type="int" name="ISTART">     0</i>
    <i type="int" name="ICHARG">     2</i>
    <i type="int" name="INIWAV">     1</i>
   </separator>
   <separator name="electronic spin" >
    <i type="int" name="ISPIN">     2</i>
    <i type="logical" name="LNONCOLLINEAR"> F  </i>
    <v name="MAGMOM">      0.60000000      0.60000000      0.60000000      0.60000000      0.60000000      0.60000000      0.60000000      0.60000000      0.60000000      0.60000000      0.60000000      0.60000000      0.60000000      0.60000000      0.60000000      0.60000000      0.60000000      0.60000000      0.60000000      0.60000000
      0.60000000      0.60000000      0.60000000      0.60000000      0.60000000      0.60000000      0.60000000      0.60000000      0.60000000      0.60000000      0.60000000      0.60000000      0.60000000      0.60000000      0.60000000      0.60000000      0.60000000      0.60000000      0.60000000      0.60000000
      0.60000000      0.60000000      0.60000000      0.60000000      0.60000000      0.60000000      0.60000000      0.60000000      0.60000000      0.60000000      0.60000000      0.60000000      0.60000000      0.60000000      0.60000000      0.60000000      0.60000000      0.60000000      0.60000000      0.60000000
      0.60000000      0.60000000      0.60000000      0.60000000      0.60000000      0.60000000      0.60000000      0.60000000      0.60000000      0.60000000      0.60000000      0.60000000      0.60000000      0.60000000      0.60000000      0.60000000      0.60000000      0.60000000      0.60000000      0.60000000
      0.60000000      0.60000000      0.60000000      0.60000000      0.60000000      0.60000000      0.60000000      0.60000000      0.60000000      0.60000000      0.60000000      0.60000000      0.60000000      0.60000000      0.60000000</v>
    <i name="NUPDOWN">     -1.00000000</i>
    <i type="logical" name="LSORBIT"> F  </i>
    <v name="SAXIS">      0.00000000      0.00000000      1.00000000</v>
    <i type="logical" name="LSPIRAL"> F  </i>
    <v name="QSPIRAL">      0.00000000      0.00000000      0.00000000</v>
    <i type="logical" name="LZEROZ"> F  </i>
   </separator>
   <separator name="electronic exchange-correlation" >
    <i type="logical" name="LASPH"> T  </i>
    <i type="logical" name="LMETAGGA"> F  </i>
   </separator>
   <separator name="electronic convergence" >
    <i type="int" name="NELM">   200</i>
    <i type="int" name="NELMDL">    -5</i>
    <i type="int" name="NELMIN">     2</i>
    <i name="ENINI">    520.00000000</i>
    <separator name="electronic convergence detail" >
     <i type="logical" name="LDIAG"> T  </i>
     <i type="logical" name="LSUBROT"> F  </i>
     <i name="WEIMIN">      0.00100000</i>
     <i name="EBREAK">      0.00000001</i>
     <i name="DEPER">      0.30000000</i>
     <i type="int" name="NRMM">     4</i>
     <i name="TIME">      0.40000000</i>
    </separator>
   </separator>
   <separator name="electronic mixer" >
    <i name="AMIX">      0.20000000</i>
    <i name="BMIX">      0.00010000</i>
    <i name="AMIN">      0.10000000</i>
    <i name="AMIX_MAG">      0.80000000</i>
    <i name="BMIX_MAG">      0.00010000</i>
    <separator name="electronic mixer details" >
     <i type="int" name="IMIX">     4</i>
     <i type="logical" name="MIXFIRST"> F  </i>
     <i type="int" name="MAXMIX">   -45</i>
     <i name="WC">    100.00000000</i>
     <i type="int" name="INIMIX">     1</i>
     <i type="int" name="MIXPRE">     1</i>
     <i type="int" name="MREMOVE">     5</i>
    </separator>
   </separator>
   <separator name="electronic dipolcorrection" >
    <i type="logical" name="LDIPOL"> F  </i>
    <i type="logical" name="LMONO"> F  </i>
    <i type="int" name="IDIPOL">     0</i>
    <i name="EPSILON">      1.00000000</i>
    <v name="DIPOL">   -100.00000000   -100.00000000   -100.00000000</v>
    <i name="EFIELD">      0.00000000</i>
   </separator>
  </separator>
  <separator name="grids" >
   <i type="int" name="NGX">    96</i>
   <i type="int" name="NGY">    96</i>
   <i type="int" name="NGZ">    84</i>
   <i type="int" name="NGXF">   192</i>
   <i type="int" name="NGYF">   192</i>
   <i type="int" name="NGZF">   168</i>
   <i type="logical" name="ADDGRID"> T  </i>
  </separator>
  <separator name="ionic" >
   <i type="int" name="NSW">  1000</i>
   <i type="int" name="IBRION">     3</i>
   <i type="int" name="MDALGO">     0</i>
   <i type="int" name="ISIF">     2</i>
   <i name="PSTRESS">      0.00000000</i>
   <i name="EDIFFG">     -0.03000000</i>
   <i type="int" name="NFREE">     0</i>
   <i name="POTIM">      0.00000000</i>
   <i name="SMASS">     -3.00000000</i>
   <i name="SCALEE">      1.00000000</i>
  </separator>
  <separator name="ionic md" >
   <i name="TEBEG">      0.00010000</i>
   <i name="TEEND">      0.00010000</i>
   <i type="int" name="NBLOCK">     1</i>
   <i type="int" name="KBLOCK">  1000</i>
   <i type="int" name="NPACO">   256</i>
   <i name="APACO">     10.00000000</i>
  </separator>
  <separator name="symmetry" >
   <i type="int" name="ISYM">     0</i>
   <i name="SYMPREC">      0.00001000</i>
  </separator>
  <separator name="dos" >
   <i type="int" name="LORBIT">     0</i>
   <v name="RWIGS">     -1.00000000     -1.00000000     -1.00000000     -1.00000000     -1.00000000</v>
   <i type="int" name="NEDOS">   301</i>
   <i name="EMIN">     10.00000000</i>
   <i name="EMAX">    -10.00000000</i>
   <i name="EFERMI">      0.00000000</i>
  </separator>
  <separator name="writing" >
   <i type="int" name="NWRITE">     2</i>
   <i type="logical" name="LWAVE"> F  </i>
   <i type="logical" name="LDOWNSAMPLE"> F  </i>
   <i type="logical" name="LCHARG"> F  </i>
   <i type="logical" name="LPARD"> F  </i>
   <i type="logical" name="LVTOT"> F  </i>
   <i type="logical" name="LVHAR"> F  </i>
   <i type="logical" name="LELF"> F  </i>
   <i type="logical" name="LOPTICS"> F  </i>
   <v name="STM">      0.00000000      0.00000000      0.00000000      0.00000000      0.00000000      0.00000000      0.00000000</v>
  </separator>
  <separator name="performance" >
   <i type="int" name="NPAR">     5</i>
   <i type="int" name="NSIM">     4</i>
   <i type="int" name="NBLK">    -1</i>
   <i type="logical" name="LPLANE"> T  </i>
   <i type="logical" name="LSCALAPACK"> T  </i>
   <i type="logical" name="LSCAAWARE"> F  </i>
   <i type="logical" name="LSCALU"> F  </i>
   <i type="logical" name="LASYNC"> F  </i>
   <i type="logical" name="LORBITALREAL"> F  </i>
  </separator>
  <separator name="miscellaneous" >
   <i type="int" name="IDIOT">     3</i>
   <i type="int" name="PHON_NSTRUCT">    -1</i>
   <i type="logical" name="LMUSIC"> F  </i>
   <v name="POMASS">     12.01100000     18.99800000     14.00100000      1.00000000     16.00000000</v>
   <v name="DARWINR">      0.00000000      0.00000000      0.00000000      0.00000000      0.00000000</v>
   <v name="DARWINV">      1.00000000      1.00000000      1.00000000      1.00000000      1.00000000</v>
   <i type="logical" name="LCORR"> T  </i>
  </separator>
  <i type="logical" name="GGA_COMPAT"> T  </i>
  <i type="logical" name="LBERRY"> F  </i>
  <i type="int" name="ICORELEVEL">     0</i>
  <i type="logical" name="LDAU"> F  </i>
  <i type="int" name="I_CONSTRAINED_M">     0</i>
  <separator name="electronic exchange-correlation" >
   <i type="string" name="GGA">--</i>
   <i type="int" name="VOSKOWN">     0</i>
   <i type="logical" name="LHFCALC"> F  </i>
   <i type="string" name="PRECFOCK"></i>
   <i type="logical" name="LSYMGRAD"> F  </i>
   <i type="logical" name="LHFONE"> F  </i>
   <i type="logical" name="LRHFCALC"> F  </i>
   <i type="logical" name="LTHOMAS"> F  </i>
   <i type="logical" name="LMODELHF"> F  </i>
   <i type="logical" name="LFOCKACE"> F  </i>
   <i name="ENCUT4O">     -1.00000000</i>
   <i type="int" name="EXXOEP">     0</i>
   <i type="int" name="FOURORBIT">     0</i>
   <i name="AEXX">      0.00000000</i>
   <i name="HFALPHA">      0.00000000</i>
   <i name="MCALPHA">      0.00000000</i>
   <i name="ALDAX">      1.00000000</i>
   <i name="AGGAX">      1.00000000</i>
   <i name="ALDAC">      1.00000000</i>
   <i name="AGGAC">      1.00000000</i>
   <i type="int" name="NKREDX">     1</i>
   <i type="int" name="NKREDY">     1</i>
   <i type="int" name="NKREDZ">     1</i>
   <i type="logical" name="SHIFTRED"> F  </i>
   <i type="logical" name="ODDONLY"> F  </i>
   <i type="logical" name="EVENONLY"> F  </i>
   <i type="int" name="LMAXFOCK">     0</i>
   <i type="int" name="NMAXFOCKAE">     0</i>
   <i type="logical" name="LFOCKAEDFT"> F  </i>
   <i name="HFSCREEN">      0.00000000</i>
   <i name="HFSCREENC">      0.00000000</i>
   <i type="int" name="NBANDSGWLOW">     0</i>
  </separator>
  <separator name="vdW DFT" >
   <i type="logical" name="LUSE_VDW"> F  </i>
   <i type="int" name="IVDW_NL">     1</i>
   <i type="logical" name="LSPIN_VDW"> F  </i>
   <i name="Zab_VDW">     -0.84910000</i>
   <i name="PARAM1">      0.12340000</i>
   <i name="PARAM2">      1.00000000</i>
   <i name="PARAM3">      0.00000000</i>
  </separator>
  <separator name="model GW" >
   <i type="int" name="MODEL_GW">     0</i>
   <i name="MODEL_EPS0">     24.47295536</i>
   <i name="MODEL_ALPHA">      1.00000000</i>
  </separator>
  <separator name="linear response parameters" >
   <i type="logical" name="LEPSILON"> F  </i>
   <i type="logical" name="LRPA"> F  </i>
   <i type="logical" name="LNABLA"> F  </i>
   <i type="logical" name="LVEL"> F  </i>
   <i name="CSHIFT">      0.10000000</i>
   <i name="OMEGAMAX">     -1.00000000</i>
   <i name="DEG_THRESHOLD">      0.00200000</i>
   <i name="RTIME">     -0.10000000</i>
   <i name="WPLASMAI">      0.00000000</i>
   <v name="DFIELD">      0.00000000      0.00000000      0.00000000</v>
   <v name="WPLASMA">      0.00000000      0.00000000      0.00000000      0.00000000      0.00000000      0.00000000      0.00000000      0.00000000      0.00000000</v>
  </separator>
  <separator name="orbital magnetization" >
   <i type="logical" name="NUCIND"> F  </i>
   <v name="MAGPOS">      0.00000000      0.00000000      0.00000000</v>
   <i type="logical" name="LNICSALL"> T  </i>
   <i type="logical" name="ORBITALMAG"> F  </i>
   <i type="logical" name="LMAGBLOCH"> F  </i>
   <i type="logical" name="LCHIMAG"> F  </i>
   <i type="logical" name="LGAUGE"> T  </i>
   <i type="int" name="MAGATOM">     0</i>
   <v name="MAGDIPOL">      0.00000000      0.00000000      0.00000000</v>
   <v name="AVECCONST">      0.00000000      0.00000000      0.00000000</v>
  </separator>
  <separator name="response functions" >
   <i type="logical" name="LALL_IN_ONE"> F  </i>
   <i type="int" name="IALL_IN_ONE">    -1</i>
   <i type="int" name="NBANDS_WAVE">    -1</i>
   <i type="logical" name="LFINITE_TEMPERATURE"> F  </i>
   <i type="logical" name="LADDER"> F  </i>
   <i type="logical" name="LRPAFORCE"> F  </i>
   <i type="logical" name="LFXC"> F  </i>
   <i type="logical" name="LHARTREE"> T  </i>
   <i type="int" name="IBSE">     0</i>
   <v type="int" name="KPOINT">    -1     0     0     0</v>
   <i type="logical" name="LTCTC"> F  </i>
   <i type="logical" name="LTCTE"> F  </i>
   <i type="logical" name="LTETE"> F  </i>
   <i type="logical" name="LTRIPLET"> F  </i>
   <i type="logical" name="LFXCEPS"> F  </i>
   <i type="logical" name="LFXHEG"> F  </i>
   <i type="int" name="NATURALO">     2</i>
   <i type="logical" name="LHOLEGF"> F  </i>
   <i type="logical" name="L2ORDER"> F  </i>
   <i type="logical" name="LDMP1"> F  </i>
   <i type="logical" name="LMP2LT"> F  </i>
   <i type="logical" name="LSMP2LT"> F  </i>
   <i type="logical" name="LGWLF"> F  </i>
   <i name="ENCUTGW">     -1.60000002</i>
   <i name="ENCUTGWSOFT">     -1.60000002</i>
   <i name="ENCUTLF">     -1.00000000</i>
   <i type="logical" name="LESF_SPLINES"> F  </i>
   <i type="int" name="LMAXMP2">    -1</i>
   <i name="SCISSOR">      0.00000000</i>
   <i type="int" name="NOMEGA">     0</i>
   <i type="int" name="NOMEGAR">     0</i>
   <i type="int" name="NBANDSGW">    -1</i>
   <i type="int" name="NBANDSO">    -1</i>
   <i type="int" name="NBANDSV">    -1</i>
   <i type="int" name="NELMGW">     1</i>
   <i type="int" name="NELMHF">     1</i>
   <i type="int" name="DIM">     3</i>
   <i type="int" name="IESPILON">     4</i>
   <i type="int" name="ANTIRES">     0</i>
   <i name="OMEGAMAX">    -30.00000000</i>
   <i name="OMEGAMIN">    -30.00000000</i>
   <i name="OMEGATL">   -200.00000000</i>
   <i type="int" name="OMEGAGRID">     0</i>
   <i name="CSHIFT">     -0.10000000</i>
   <i type="logical" name="LSELFENERGY"> F  </i>
   <i type="logical" name="LSPECTRAL"> F  </i>
   <i type="logical" name="LSPECTRALGW"> F  </i>
   <i type="logical" name="LSINGLES"> F  </i>
   <i type="logical" name="LFERMIGW"> F  </i>
   <i type="logical" name="ODDONLYGW"> F  </i>
   <i type="logical" name="EVENONLYGW"> F  </i>
   <i type="int" name="NKREDLFX">     1</i>
   <i type="int" name="NKREDLFY">     1</i>
   <i type="int" name="NKREDLFZ">     1</i>
   <i type="int" name="MAXMEM">  2800</i>
   <i type="int" name="TELESCOPE">     0</i>
   <i type="int" name="NTAUPAR">    -1</i>
   <i type="int" name="NOMEGAPAR">    -1</i>
   <i name="DAMP_NEWTON">      0.80000001</i>
   <i name="LAMBDA">      1.00000000</i>
  </separator>
  <separator name="External order field" >
   <i name="OFIELD_KAPPA">      0.00000000</i>
   <v name="OFIELD_K">      0.00000000      0.00000000      0.00000000</v>
   <i name="OFIELD_Q6_NEAR">      0.00000000</i>
   <i name="OFIELD_Q6_FAR">      0.00000000</i>
   <i name="OFIELD_A">      0.00000000</i>
  </separator>
  <separator name="optional k-points parameters" >
   <i type="int" name="KPOINTS_OPT_MODE">     1</i>
   <i type="logical" name="LKPOINTS_OPT"> F  </i>
  </separator>
 </parameters>
 <atominfo>
  <atoms>      95 </atoms>
  <types>       5 </types>
  <array name="atoms" >
   <dimension dim="1">ion</dimension>
   <field type="string">element</field>
   <field type="int">atomtype</field>
   <set>
    <rc><c>C </c><c>   1</c></rc>
    <rc><c>C </c><c>   1</c></rc>
    <rc><c>C </c><c>   1</c></rc>
    <rc><c>C </c><c>   1</c></rc>
    <rc><c>C </c><c>   1</c></rc>
    <rc><c>C </c><c>   1</c></rc>
    <rc><c>C </c><c>   1</c></rc>
    <rc><c>C </c><c>   1</c></rc>
    <rc><c>C </c><c>   1</c></rc>
    <rc><c>C </c><c>   1</c></rc>
    <rc><c>C </c><c>   1</c></rc>
    <rc><c>C </c><c>   1</c></rc>
    <rc><c>C </c><c>   1</c></rc>
    <rc><c>C </c><c>   1</c></rc>
    <rc><c>C </c><c>   1</c></rc>
    <rc><c>C </c><c>   1</c></rc>
    <rc><c>C </c><c>   1</c></rc>
    <rc><c>C </c><c>   1</c></rc>
    <rc><c>C </c><c>   1</c></rc>
    <rc><c>C </c><c>   1</c></rc>
    <rc><c>C </c><c>   1</c></rc>
    <rc><c>C </c><c>   1</c></rc>
    <rc><c>C </c><c>   1</c></rc>
    <rc><c>C </c><c>   1</c></rc>
    <rc><c>C </c><c>   1</c></rc>
    <rc><c>C </c><c>   1</c></rc>
    <rc><c>C </c><c>   1</c></rc>
    <rc><c>C </c><c>   1</c></rc>
    <rc><c>C </c><c>   1</c></rc>
    <rc><c>C </c><c>   1</c></rc>
    <rc><c>C </c><c>   1</c></rc>
    <rc><c>C </c><c>   1</c></rc>
    <rc><c>C </c><c>   1</c></rc>
    <rc><c>C </c><c>   1</c></rc>
    <rc><c>C </c><c>   1</c></rc>
    <rc><c>C </c><c>   1</c></rc>
    <rc><c>C </c><c>   1</c></rc>
    <rc><c>C </c><c>   1</c></rc>
    <rc><c>C </c><c>   1</c></rc>
    <rc><c>C </c><c>   1</c></rc>
    <rc><c>C </c><c>   1</c></rc>
    <rc><c>C </c><c>   1</c></rc>
    <rc><c>C </c><c>   1</c></rc>
    <rc><c>C </c><c>   1</c></rc>
    <rc><c>C </c><c>   1</c></rc>
    <rc><c>C </c><c>   1</c></rc>
    <rc><c>C </c><c>   1</c></rc>
    <rc><c>C </c><c>   1</c></rc>
    <rc><c>C </c><c>   1</c></rc>
    <rc><c>C </c><c>   1</c></rc>
    <rc><c>C </c><c>   1</c></rc>
    <rc><c>C </c><c>   1</c></rc>
    <rc><c>C </c><c>   1</c></rc>
    <rc><c>C </c><c>   1</c></rc>
    <rc><c>C </c><c>   1</c></rc>
    <rc><c>C </c><c>   1</c></rc>
    <rc><c>C </c><c>   1</c></rc>
    <rc><c>C </c><c>   1</c></rc>
    <rc><c>C </c><c>   1</c></rc>
    <rc><c>C </c><c>   1</c></rc>
    <rc><c>C </c><c>   1</c></rc>
    <rc><c>C </c><c>   1</c></rc>
    <rc><c>C </c><c>   1</c></rc>
    <rc><c>C </c><c>   1</c></rc>
    <rc><c>C </c><c>   1</c></rc>
    <rc><c>C </c><c>   1</c></rc>
    <rc><c>C </c><c>   1</c></rc>
    <rc><c>C </c><c>   1</c></rc>
    <rc><c>C </c><c>   1</c></rc>
    <rc><c>C </c><c>   1</c></rc>
    <rc><c>C </c><c>   1</c></rc>
    <rc><c>C </c><c>   1</c></rc>
    <rc><c>C </c><c>   1</c></rc>
    <rc><c>C </c><c>   1</c></rc>
    <rc><c>C </c><c>   1</c></rc>
    <rc><c>C </c><c>   1</c></rc>
    <rc><c>C </c><c>   1</c></rc>
    <rc><c>C </c><c>   1</c></rc>
    <rc><c>C </c><c>   1</c></rc>
    <rc><c>C </c><c>   1</c></rc>
    <rc><c>C </c><c>   1</c></rc>
    <rc><c>C </c><c>   1</c></rc>
    <rc><c>C </c><c>   1</c></rc>
    <rc><c>C </c><c>   1</c></rc>
    <rc><c>F </c><c>   2</c></rc>
    <rc><c>F </c><c>   2</c></rc>
    <rc><c>F </c><c>   2</c></rc>
    <rc><c>F </c><c>   2</c></rc>
    <rc><c>N </c><c>   3</c></rc>
    <rc><c>N </c><c>   3</c></rc>
    <rc><c>N </c><c>   3</c></rc>
    <rc><c>N </c><c>   3</c></rc>
    <rc><c>H </c><c>   4</c></rc>
    <rc><c>H </c><c>   4</c></rc>
    <rc><c>O </c><c>   5</c></rc>
   </set>
  </array>
  <array name="atomtypes" >
   <dimension dim="1">type</dimension>
   <field type="int">atomspertype</field>
   <field type="string">element</field>
   <field>mass</field>
   <field>valence</field>
   <field type="string">pseudopotential</field>
   <set>
    <rc><c>  84</c><c>C </c><c>     12.01100000</c><c>      4.00000000</c><c>  PAW_PBE C 08Apr2002                   </c></rc>
    <rc><c>   4</c><c>F </c><c>     18.99800000</c><c>      7.00000000</c><c>  PAW_PBE F 08Apr2002                   </c></rc>
    <rc><c>   4</c><c>N </c><c>     14.00100000</c><c>      5.00000000</c><c>  PAW_PBE N 08Apr2002                   </c></rc>
    <rc><c>   2</c><c>H </c><c>      1.00000000</c><c>      1.00000000</c><c>  PAW_PBE H 15Jun2001                   </c></rc>
    <rc><c>   1</c><c>O </c><c>     16.00000000</c><c>      6.00000000</c><c>  PAW_PBE O 08Apr2002                   </c></rc>
   </set>
  </array>
 </atominfo>
 <structure name="initialpos" >
  <crystal>
   <varray name="basis" >
    <v>      17.27103806       0.00000000       0.00000000 </v>
    <v>      -8.63551903      14.95715771       0.00000000 </v>
    <v>       0.00000000       0.00000000      15.00000000 </v>
   </varray>
   <i name="volume">   3874.88459904 </i>
   <varray name="rec_basis" >
    <v>       0.05790040       0.03342881       0.00000000 </v>
    <v>       0.00000000       0.06685762       0.00000000 </v>
    <v>       0.00000000       0.00000000       0.06666667 </v>
   </varray>
  </crystal>
  <varray name="positions" >
   <v>       0.00155580       0.00078308       0.50082199 </v>
   <v>       0.00019420       0.14261274       0.49819850 </v>
   <v>       0.00017069       0.28572801       0.49755905 </v>
   <v>       0.00080378       0.42894365       0.49915113 </v>
   <v>       0.00128229       0.57209351       0.50114489 </v>
   <v>       0.00235699       0.71529737       0.50328320 </v>
   <v>       0.00337862       0.85911893       0.50308387 </v>
   <v>       0.14548024       0.00253185       0.49218664 </v>
   <v>       0.14400600       0.14433915       0.48714019 </v>
   <v>       0.14179671       0.28545563       0.48284868 </v>
   <v>       0.14281281       0.42909665       0.48300786 </v>
   <v>       0.14409863       0.57189160       0.48794638 </v>
   <v>       0.14443420       0.71519583       0.49155756 </v>
   <v>       0.14508639       0.85892158       0.49376272 </v>
   <v>       0.28806609       0.00281338       0.48962704 </v>
   <v>       0.28837693       0.14679566       0.48269154 </v>
   <v>       0.28580177       0.29090464       0.46576508 </v>
   <v>       0.28136820       0.42388104       0.45424093 </v>
   <v>       0.28694542       0.57171213       0.46254240 </v>
   <v>       0.28654271       0.71537858       0.48003532 </v>
   <v>       0.28695796       0.85890055       0.48832110 </v>
   <v>       0.43018684       0.00151250       0.49281053 </v>
   <v>       0.43152492       0.14632645       0.49154138 </v>
   <v>       0.43001888       0.28542266       0.47413300 </v>
   <v>       0.42874794       0.85737768       0.48725934 </v>
   <v>       0.57193961       0.99925509       0.49771315 </v>
   <v>       0.57287111       0.14329326       0.50045935 </v>
   <v>       0.57731380       0.29052017       0.50174759 </v>
   <v>       0.56990923       0.85388194       0.49679709 </v>
   <v>       0.71389712       0.99748326       0.50542424 </v>
   <v>       0.71499760       0.14195241       0.50513944 </v>
   <v>       0.71588584       0.28570256       0.50891085 </v>
   <v>       0.71248899       0.42572845       0.51741522 </v>
   <v>       0.72188652       0.57685441       0.53780201 </v>
   <v>       0.71407214       0.85377723       0.51341586 </v>
   <v>       0.85746259       0.99898017       0.50791946 </v>
   <v>       0.85721607       0.14195259       0.50516760 </v>
   <v>       0.85791404       0.28547079       0.50628007 </v>
   <v>       0.85847877       0.42890410       0.50975167 </v>
   <v>       0.85825473       0.57194184       0.51435635 </v>
   <v>       0.86182438       0.71659542       0.51688704 </v>
   <v>       0.85979495       0.85737574       0.51321024 </v>
   <v>       0.04883588       0.09602473       0.49546938 </v>
   <v>       0.04706304       0.23766235       0.49354455 </v>
   <v>       0.04793876       0.38125909       0.49389536 </v>
   <v>       0.04889151       0.52432857       0.49639798 </v>
   <v>       0.04936980       0.66752750       0.49851098 </v>
   <v>       0.05008131       0.81085031       0.49982727 </v>
   <v>       0.05019821       0.95416092       0.49851025 </v>
   <v>       0.19275598       0.09770545       0.48672850 </v>
   <v>       0.19036798       0.23922927       0.47892053 </v>
   <v>       0.18839378       0.38014131       0.47505399 </v>
   <v>       0.19177636       0.52450364       0.47946634 </v>
   <v>       0.19149592       0.66745407       0.48580312 </v>
   <v>       0.19209794       0.81090878       0.49064911 </v>
   <v>       0.19286596       0.95454513       0.49137137 </v>
   <v>       0.33604301       0.09892031       0.48765266 </v>
   <v>       0.33596634       0.24262944       0.47288388 </v>
   <v>       0.32507976       0.51905570       0.43928240 </v>
   <v>       0.33703848       0.67055817       0.47020129 </v>
   <v>       0.33394542       0.81051010       0.48469815 </v>
   <v>       0.33488481       0.95431293       0.49014133 </v>
   <v>       0.47796939       0.09694500       0.49572902 </v>
   <v>       0.48009395       0.24230938       0.48983525 </v>
   <v>       0.47257928       0.80564169       0.48554144 </v>
   <v>       0.47702736       0.95282989       0.49282439 </v>
   <v>       0.61971471       0.09465625       0.50159044 </v>
   <v>       0.62113707       0.23882841       0.50441712 </v>
   <v>       0.62022326       0.81028777       0.50691722 </v>
   <v>       0.61843521       0.94988923       0.50008531 </v>
   <v>       0.76191500       0.09357421       0.50572230 </v>
   <v>       0.76299265       0.23738487       0.50740127 </v>
   <v>       0.76326256       0.38086121       0.51271577 </v>
   <v>       0.76209185       0.52448157       0.52422340 </v>
   <v>       0.76758830       0.67235002       0.52931821 </v>
   <v>       0.76377439       0.80529868       0.52019626 </v>
   <v>       0.76175908       0.94982285       0.50929289 </v>
   <v>       0.90482032       0.09418586       0.50425640 </v>
   <v>       0.90507321       0.23756493       0.50363127 </v>
   <v>       0.90565374       0.38117805       0.50557527 </v>
   <v>       0.90598366       0.52450336       0.50828007 </v>
   <v>       0.90732827       0.66741844       0.51181051 </v>
   <v>       0.90858439       0.81132241       0.51121151 </v>
   <v>       0.90626538       0.95240149       0.50753964 </v>
   <v>       0.47634029       0.37362310       0.45826807 </v>
   <v>       0.40355114       0.55776303       0.39655373 </v>
   <v>       0.63527433       0.53721182       0.55941291 </v>
   <v>       0.57480309       0.72098681       0.51025179 </v>
   <v>       0.42671855       0.71591910       0.47355363 </v>
   <v>       0.72078383       0.71624293       0.53093886 </v>
   <v>       0.32736948       0.37913471       0.44915474 </v>
   <v>       0.62297601       0.38045025       0.51099211 </v>
   <v>       0.53480719       0.57960041       0.51929916 </v>
   <v>       0.46247881       0.48345433       0.49144178 </v>
   <v>       0.47621807       0.53041419       0.53488800 </v>
  </varray>
  <varray name="selective"  type="logical" >
   <v type="logical" >  T  T  T </v>
   <v type="logical" >  T  T  T </v>
   <v type="logical" >  T  T  T </v>
   <v type="logical" >  T  T  T </v>
   <v type="logical" >  T  T  T </v>
   <v type="logical" >  T  T  T </v>
   <v type="logical" >  T  T  T </v>
   <v type="logical" >  T  T  T </v>
   <v type="logical" >  T  T  T </v>
   <v type="logical" >  T  T  T </v>
   <v type="logical" >  T  T  T </v>
   <v type="logical" >  T  T  T </v>
   <v type="logical" >  T  T  T </v>
   <v type="logical" >  T  T  T </v>
   <v type="logical" >  T  T  T </v>
   <v type="logical" >  T  T  T </v>
   <v type="logical" >  T  T  T </v>
   <v type="logical" >  T  T  T </v>
   <v type="logical" >  T  T  T </v>
   <v type="logical" >  T  T  T </v>
   <v type="logical" >  T  T  T </v>
   <v type="logical" >  T  T  T </v>
   <v type="logical" >  T  T  T </v>
   <v type="logical" >  T  T  T </v>
   <v type="logical" >  T  T  T </v>
   <v type="logical" >  T  T  T </v>
   <v type="logical" >  T  T  T </v>
   <v type="logical" >  T  T  T </v>
   <v type="logical" >  T  T  T </v>
   <v type="logical" >  T  T  T </v>
   <v type="logical" >  T  T  T </v>
   <v type="logical" >  T  T  T </v>
   <v type="logical" >  T  T  T </v>
   <v type="logical" >  T  T  T </v>
   <v type="logical" >  T  T  T </v>
   <v type="logical" >  T  T  T </v>
   <v type="logical" >  T  T  T </v>
   <v type="logical" >  T  T  T </v>
   <v type="logical" >  T  T  T </v>
   <v type="logical" >  T  T  T </v>
   <v type="logical" >  T  T  T </v>
   <v type="logical" >  T  T  T </v>
   <v type="logical" >  T  T  T </v>
   <v type="logical" >  T  T  T </v>
   <v type="logical" >  T  T  T </v>
   <v type="logical" >  T  T  T </v>
   <v type="logical" >  T  T  T </v>
   <v type="logical" >  T  T  T </v>
   <v type="logical" >  T  T  T </v>
   <v type="logical" >  T  T  T </v>
   <v type="logical" >  T  T  T </v>
   <v type="logical" >  T  T  T </v>
   <v type="logical" >  T  T  T </v>
   <v type="logical" >  T  T  T </v>
   <v type="logical" >  T  T  T </v>
   <v type="logical" >  T  T  T </v>
   <v type="logical" >  T  T  T </v>
   <v type="logical" >  T  T  T </v>
   <v type="logical" >  T  T  T </v>
   <v type="logical" >  T  T  T </v>
   <v type="logical" >  T  T  T </v>
   <v type="logical" >  T  T  T </v>
   <v type="logical" >  T  T  T </v>
   <v type="logical" >  T  T  T </v>
   <v type="logical" >  T  T  T </v>
   <v type="logical" >  T  T  T </v>
   <v type="logical" >  T  T  T </v>
   <v type="logical" >  T  T  T </v>
   <v type="logical" >  T  T  T </v>
   <v type="logical" >  T  T  T </v>
   <v type="logical" >  T  T  T </v>
   <v type="logical" >  T  T  T </v>
   <v type="logical" >  T  T  T </v>
   <v type="logical" >  T  T  T </v>
   <v type="logical" >  T  T  T </v>
   <v type="logical" >  T  T  T </v>
   <v type="logical" >  T  T  T </v>
   <v type="logical" >  T  T  T </v>
   <v type="logical" >  T  T  T </v>
   <v type="logical" >  T  T  T </v>
   <v type="logical" >  T  T  T </v>
   <v type="logical" >  T  T  T </v>
   <v type="logical" >  T  T  T </v>
   <v type="logical" >  T  T  T </v>
   <v type="logical" >  T  T  T </v>
   <v type="logical" >  T  T  T </v>
   <v type="logical" >  T  T  T </v>
   <v type="logical" >  T  T  T </v>
   <v type="logical" >  T  T  T </v>
   <v type="logical" >  T  T  T </v>
   <v type="logical" >  T  T  T </v>
   <v type="logical" >  T  T  T </v>
   <v type="logical" >  T  T  T </v>
   <v type="logical" >  T  T  T </v>
   <v type="logical" >  T  T  T </v>
  </varray>
  <nose>
   <v>      -3.00000000       0.00000000       0.00010000       0.00010000 </v>
  </nose>
 </structure>
 <calculation>
  <scstep>
   <time name="dav">   82.18   82.76</time>
   <time name="total">   87.89   88.53</time>
   <energy>
    <i name="alphaZ">    196.22536771 </i>
    <i name="ewald">  39323.58453545 </i>
    <i name="hartreedc"> -52066.34200459 </i>
    <i name="XCdc">   1370.76737690 </i>
    <i name="pawpsdc">  12438.68778162 </i>
    <i name="pawaedc"> -12513.22827041 </i>
    <i name="eentropy">     -0.04148062 </i>
    <i name="bandstr">  -1626.18077326 </i>
    <i name="atom">  16514.44393368 </i>
    <i name="e_fr_energy">   3637.91646650 </i>
    <i name="e_wo_entrp">   3637.95794711 </i>
    <i name="e_0_energy">   3637.93720680 </i>
   </energy>
  </scstep>
  <scstep>
   <time name="dav">  106.33  107.10</time>
   <time name="total">  106.33  107.10</time>
   <energy>
    <i name="e_fr_energy">   -178.93317024 </i>
    <i name="e_wo_entrp">   -178.92500844 </i>
    <i name="e_0_energy">   -178.92908934 </i>
   </energy>
  </scstep>
  <scstep>
   <time name="dav">   91.36   92.02</time>
   <time name="total">   91.36   92.04</time>
   <energy>
    <i name="e_fr_energy">   -850.96451753 </i>
    <i name="e_wo_entrp">   -850.96166445 </i>
    <i name="e_0_energy">   -850.96309099 </i>
   </energy>
  </scstep>
  <scstep>
   <time name="dav">   90.32   90.97</time>
   <time name="total">   90.32   90.98</time>
   <energy>
    <i name="e_fr_energy">   -873.45888116 </i>
    <i name="e_wo_entrp">   -873.45647784 </i>
    <i name="e_0_energy">   -873.45767950 </i>
   </energy>
  </scstep>
  <scstep>
   <time name="dav">  100.56  101.31</time>
   <time name="total">  106.90  107.70</time>
   <energy>
    <i name="e_fr_energy">   -874.15766454 </i>
    <i name="e_wo_entrp">   -874.15527972 </i>
    <i name="e_0_energy">   -874.15647213 </i>
   </energy>
  </scstep>
  <scstep>
   <time name="dav">   90.04   90.65</time>
   <time name="total">  102.40  103.09</time>
   <energy>
    <i name="e_fr_energy">   -857.23755841 </i>
    <i name="e_wo_entrp">   -857.23256521 </i>
    <i name="e_0_energy">   -857.23506181 </i>
   </energy>
  </scstep>
  <scstep>
   <time name="dav">   88.43   89.15</time>
   <time name="total">  100.67  101.48</time>
   <energy>
    <i name="e_fr_energy">   -837.00159323 </i>
    <i name="e_wo_entrp">   -837.00157907 </i>
    <i name="e_0_energy">   -837.00158615 </i>
   </energy>
  </scstep>
  <scstep>
   <time name="dav">   88.97   89.59</time>
   <time name="total">  100.44  101.15</time>
   <energy>
    <i name="e_fr_energy">   -832.35286668 </i>
    <i name="e_wo_entrp">   -832.35286624 </i>
    <i name="e_0_energy">   -832.35286646 </i>
   </energy>
  </scstep>
  <scstep>
   <time name="dav">   88.06   88.68</time>
   <time name="total">   99.41  100.11</time>
   <energy>
    <i name="e_fr_energy">   -832.45809070 </i>
    <i name="e_wo_entrp">   -832.45809036 </i>
    <i name="e_0_energy">   -832.45809053 </i>
   </energy>
  </scstep>
  <scstep>
   <time name="dav">   88.09   88.66</time>
   <time name="total">   99.35  100.01</time>
   <energy>
    <i name="e_fr_energy">   -832.29510051 </i>
    <i name="e_wo_entrp">   -832.29510013 </i>
    <i name="e_0_energy">   -832.29510032 </i>
   </energy>
  </scstep>
  <scstep>
   <time name="dav">   86.83   87.43</time>
   <time name="total">   98.24   98.92</time>
   <energy>
    <i name="e_fr_energy">   -832.28109412 </i>
    <i name="e_wo_entrp">   -832.28109383 </i>
    <i name="e_0_energy">   -832.28109398 </i>
   </energy>
  </scstep>
  <scstep>
   <time name="dav">   90.21   90.86</time>
   <time name="total">  102.00  102.73</time>
   <energy>
    <i name="e_fr_energy">   -832.28113209 </i>
    <i name="e_wo_entrp">   -832.28113181 </i>
    <i name="e_0_energy">   -832.28113195 </i>
   </energy>
  </scstep>
  <scstep>
   <time name="dav">   89.20   89.88</time>
   <time name="total">  101.08  101.85</time>
   <energy>
    <i name="e_fr_energy">   -832.28134214 </i>
    <i name="e_wo_entrp">   -832.28134186 </i>
    <i name="e_0_energy">   -832.28134200 </i>
   </energy>
  </scstep>
  <scstep>
   <time name="dav">   88.55   89.14</time>
   <time name="total">  100.51  101.18</time>
   <energy>
    <i name="e_fr_energy">   -832.28137185 </i>
    <i name="e_wo_entrp">   -832.28137157 </i>
    <i name="e_0_energy">   -832.28137171 </i>
   </energy>
  </scstep>
  <scstep>
   <time name="dav">   84.75   85.30</time>
   <time name="total">   97.57   98.20</time>
   <energy>
    <i name="e_fr_energy">   -832.28143442 </i>
    <i name="e_wo_entrp">   -832.28143414 </i>
    <i name="e_0_energy">   -832.28143428 </i>
   </energy>
  </scstep>
  <scstep>
   <time name="dav">   75.28   75.74</time>
   <time name="total">   81.55   82.06</time>
   <energy>
    <i name="alphaZ">    196.22536771 </i>
    <i name="ewald">  39323.58453545 </i>
    <i name="hartreedc"> -53523.85423409 </i>
    <i name="XCdc">   1419.66207084 </i>
    <i name="pawpsdc">  39562.18633317 </i>
    <i name="pawaedc"> -39647.85831874 </i>
    <i name="eentropy">     -0.00000028 </i>
    <i name="bandstr">  -4676.67111933 </i>
    <i name="atom">  16514.44393368 </i>
    <i name="e_fr_energy">   -832.28143157 </i>
    <i name="e_wo_entrp">   -832.28143129 </i>
    <i name="e_0_energy">   -832.28143143 </i>
   </energy>
  </scstep>
  <structure>
   <crystal>
    <varray name="basis" >
     <v>      17.27103806       0.00000000       0.00000000 </v>
     <v>      -8.63551903      14.95715771       0.00000000 </v>
     <v>       0.00000000       0.00000000      15.00000000 </v>
    </varray>
    <i name="volume">   3874.88459904 </i>
    <varray name="rec_basis" >
     <v>       0.05790040       0.03342881       0.00000000 </v>
     <v>       0.00000000       0.06685762       0.00000000 </v>
     <v>       0.00000000       0.00000000       0.06666667 </v>
    </varray>
   </crystal>
   <varray name="positions" >
    <v>       0.00155580       0.00078308       0.50082199 </v>
    <v>       0.00019420       0.14261274       0.49819850 </v>
    <v>       0.00017069       0.28572801       0.49755905 </v>
    <v>       0.00080378       0.42894365       0.49915113 </v>
    <v>       0.00128229       0.57209351       0.50114489 </v>
    <v>       0.00235699       0.71529737       0.50328320 </v>
    <v>       0.00337862       0.85911893       0.50308387 </v>
    <v>       0.14548024       0.00253185       0.49218664 </v>
    <v>       0.14400600       0.14433915       0.48714019 </v>
    <v>       0.14179671       0.28545563       0.48284868 </v>
    <v>       0.14281281       0.42909665       0.48300786 </v>
    <v>       0.14409863       0.57189160       0.48794638 </v>
    <v>       0.14443420       0.71519583       0.49155756 </v>
    <v>       0.14508639       0.85892158       0.49376272 </v>
    <v>       0.28806609       0.00281338       0.48962704 </v>
    <v>       0.28837693       0.14679566       0.48269154 </v>
    <v>       0.28580177       0.29090464       0.46576508 </v>
    <v>       0.28136820       0.42388104       0.45424093 </v>
    <v>       0.28694542       0.57171213       0.46254240 </v>
    <v>       0.28654271       0.71537858       0.48003532 </v>
    <v>       0.28695796       0.85890055       0.48832110 </v>
    <v>       0.43018684       0.00151250       0.49281053 </v>
    <v>       0.43152492       0.14632645       0.49154138 </v>
    <v>       0.43001888       0.28542266       0.47413300 </v>
    <v>       0.42874794       0.85737768       0.48725934 </v>
    <v>       0.57193961       0.99925509       0.49771315 </v>
    <v>       0.57287111       0.14329326       0.50045935 </v>
    <v>       0.57731380       0.29052017       0.50174759 </v>
    <v>       0.56990923       0.85388194       0.49679709 </v>
    <v>       0.71389712       0.99748326       0.50542424 </v>
    <v>       0.71499760       0.14195241       0.50513944 </v>
    <v>       0.71588584       0.28570256       0.50891085 </v>
    <v>       0.71248899       0.42572845       0.51741522 </v>
    <v>       0.72188652       0.57685441       0.53780201 </v>
    <v>       0.71407214       0.85377723       0.51341586 </v>
    <v>       0.85746259       0.99898017       0.50791946 </v>
    <v>       0.85721607       0.14195259       0.50516760 </v>
    <v>       0.85791404       0.28547079       0.50628007 </v>
    <v>       0.85847877       0.42890410       0.50975167 </v>
    <v>       0.85825473       0.57194184       0.51435635 </v>
    <v>       0.86182438       0.71659542       0.51688704 </v>
    <v>       0.85979495       0.85737574       0.51321024 </v>
    <v>       0.04883588       0.09602473       0.49546938 </v>
    <v>       0.04706304       0.23766235       0.49354455 </v>
    <v>       0.04793876       0.38125909       0.49389536 </v>
    <v>       0.04889151       0.52432857       0.49639798 </v>
    <v>       0.04936980       0.66752750       0.49851098 </v>
    <v>       0.05008131       0.81085031       0.49982727 </v>
    <v>       0.05019821       0.95416092       0.49851025 </v>
    <v>       0.19275598       0.09770545       0.48672850 </v>
    <v>       0.19036798       0.23922927       0.47892053 </v>
    <v>       0.18839378       0.38014131       0.47505399 </v>
    <v>       0.19177636       0.52450364       0.47946634 </v>
    <v>       0.19149592       0.66745407       0.48580312 </v>
    <v>       0.19209794       0.81090878       0.49064911 </v>
    <v>       0.19286596       0.95454513       0.49137137 </v>
    <v>       0.33604301       0.09892031       0.48765266 </v>
    <v>       0.33596634       0.24262944       0.47288388 </v>
    <v>       0.32507976       0.51905570       0.43928240 </v>
    <v>       0.33703848       0.67055817       0.47020129 </v>
    <v>       0.33394542       0.81051010       0.48469815 </v>
    <v>       0.33488481       0.95431293       0.49014133 </v>
    <v>       0.47796939       0.09694500       0.49572902 </v>
    <v>       0.48009395       0.24230938       0.48983525 </v>
    <v>       0.47257928       0.80564169       0.48554144 </v>
    <v>       0.47702736       0.95282989       0.49282439 </v>
    <v>       0.61971471       0.09465625       0.50159044 </v>
    <v>       0.62113707       0.23882841       0.50441712 </v>
    <v>       0.62022326       0.81028777       0.50691722 </v>
    <v>       0.61843521       0.94988923       0.50008531 </v>
    <v>       0.76191500       0.09357421       0.50572230 </v>
    <v>       0.76299265       0.23738487       0.50740127 </v>
    <v>       0.76326256       0.38086121       0.51271577 </v>
    <v>       0.76209185       0.52448157       0.52422340 </v>
    <v>       0.76758830       0.67235002       0.52931821 </v>
    <v>       0.76377439       0.80529868       0.52019626 </v>
    <v>       0.76175908       0.94982285       0.50929289 </v>
    <v>       0.90482032       0.09418586       0.50425640 </v>
    <v>       0.90507321       0.23756493       0.50363127 </v>
    <v>       0.90565374       0.38117805       0.50557527 </v>
    <v>       0.90598366       0.52450336       0.50828007 </v>
    <v>       0.90732827       0.66741844       0.51181051 </v>
    <v>       0.90858439       0.81132241       0.51121151 </v>
    <v>       0.90626538       0.95240149       0.50753964 </v>
    <v>       0.47634029       0.37362310       0.45826807 </v>
    <v>       0.40355114       0.55776303       0.39655373 </v>
    <v>       0.63527433       0.53721182       0.55941291 </v>
    <v>       0.57480309       0.72098681       0.51025179 </v>
    <v>       0.42671855       0.71591910       0.47355363 </v>
    <v>       0.72078383       0.71624293       0.53093886 </v>
    <v>       0.32736948       0.37913471       0.44915474 </v>
    <v>       0.62297601       0.38045025       0.51099211 </v>
    <v>       0.53480719       0.57960041       0.51929916 </v>
    <v>       0.46247881       0.48345433       0.49144178 </v>
    <v>       0.47621807       0.53041419       0.53488800 </v>
   </varray>
  </structure>
  <varray name="forces" >
   <v>       0.01826416       0.01774520      -0.00145320 </v>
   <v>       0.01058164       0.00682136      -0.00050819 </v>
   <v>       0.00546144      -0.00298348      -0.00059423 </v>
   <v>       0.00164953      -0.00157441       0.00228773 </v>
   <v>      -0.00064236       0.01127236       0.00073495 </v>
   <v>       0.01690508       0.00517682       0.00002386 </v>
   <v>       0.01801631       0.01305204       0.00040027 </v>
   <v>       0.00689802       0.01511505       0.00075075 </v>
   <v>       0.01006225       0.00796359       0.00020857 </v>
   <v>       0.01261278       0.00237672      -0.00273478 </v>
   <v>       0.00618094      -0.00079002      -0.00176975 </v>
   <v>      -0.00060867       0.00970792       0.00291399 </v>
   <v>      -0.00848305       0.01631879       0.00262741 </v>
   <v>       0.00309988       0.00657462       0.00354796 </v>
   <v>      -0.01399070       0.00222125      -0.00260768 </v>
   <v>      -0.00670226       0.00655431      -0.00503765 </v>
   <v>       0.00203701      -0.00245836      -0.00535838 </v>
   <v>       0.00808569       0.00066977      -0.01208860 </v>
   <v>       0.00473235       0.00112284      -0.00921561 </v>
   <v>      -0.00610128       0.00281846      -0.00105421 </v>
   <v>      -0.01089737      -0.00560263       0.00289152 </v>
   <v>      -0.00350726      -0.00199931      -0.00050217 </v>
   <v>      -0.01272372       0.00819033      -0.00685771 </v>
   <v>      -0.00987006      -0.00083384      -0.00931757 </v>
   <v>      -0.00174142      -0.00400427      -0.00540486 </v>
   <v>       0.00490900      -0.00101161      -0.00396996 </v>
   <v>       0.00101462       0.00817479      -0.00333708 </v>
   <v>      -0.00306728       0.00556454      -0.01199886 </v>
   <v>       0.00082974       0.00090136      -0.00960013 </v>
   <v>       0.00434882       0.00236691      -0.00658650 </v>
   <v>       0.00531593       0.00428413      -0.00165936 </v>
   <v>       0.00247182       0.00786689      -0.00617051 </v>
   <v>       0.00164997      -0.00051719      -0.01398623 </v>
   <v>      -0.00280893      -0.00835616      -0.03951707 </v>
   <v>      -0.00304456       0.00058258      -0.01169885 </v>
   <v>       0.00539946       0.00916125      -0.00366888 </v>
   <v>       0.00647734       0.00362129      -0.00241994 </v>
   <v>       0.00652560       0.00228767      -0.00036133 </v>
   <v>      -0.00128844       0.00323977      -0.00286412 </v>
   <v>       0.00541350      -0.00025078      -0.00562762 </v>
   <v>       0.01155191      -0.00052617      -0.00622937 </v>
   <v>       0.00821369       0.00933637      -0.00491067 </v>
   <v>      -0.01245668      -0.00934711       0.00369701 </v>
   <v>      -0.00602122       0.00000363       0.00086518 </v>
   <v>       0.00064170       0.01071471       0.00010312 </v>
   <v>       0.00855917      -0.00798767      -0.00044852 </v>
   <v>      -0.00129941      -0.00934503       0.00210231 </v>
   <v>      -0.01159643      -0.00699959       0.00474226 </v>
   <v>      -0.01449073      -0.01495837       0.00406318 </v>
   <v>      -0.00013374      -0.00913897       0.00028450 </v>
   <v>      -0.00584680       0.00067712      -0.00014025 </v>
   <v>      -0.00685638       0.00379706      -0.00040555 </v>
   <v>      -0.00047907      -0.00109980      -0.00015186 </v>
   <v>       0.01562003      -0.01481985      -0.00177253 </v>
   <v>       0.01083220      -0.00209344       0.00320839 </v>
   <v>       0.00742910      -0.00392532       0.00191091 </v>
   <v>       0.01472341      -0.00424122      -0.00251035 </v>
   <v>       0.00738690      -0.00245486      -0.00584883 </v>
   <v>      -0.00189543       0.00475728      -0.01690947 </v>
   <v>       0.00215868      -0.00082752      -0.00443786 </v>
   <v>       0.00829489       0.00161797      -0.00062098 </v>
   <v>       0.00959907       0.00481726       0.00004479 </v>
   <v>       0.00569048      -0.00447259      -0.00241376 </v>
   <v>       0.01070699      -0.00698229      -0.00826982 </v>
   <v>      -0.00071908       0.00238915      -0.00770909 </v>
   <v>      -0.00098351       0.00513259      -0.00274665 </v>
   <v>      -0.00343635      -0.00036425      -0.00394757 </v>
   <v>       0.00149712      -0.00795062      -0.00863457 </v>
   <v>       0.00267464      -0.00181525      -0.01148671 </v>
   <v>      -0.00227711       0.00374701      -0.00628155 </v>
   <v>      -0.00486638      -0.00033869      -0.00360513 </v>
   <v>      -0.00232648      -0.00353623      -0.00302972 </v>
   <v>       0.00222065      -0.00492379      -0.00642619 </v>
   <v>       0.00089415       0.00268648      -0.02029124 </v>
   <v>      -0.00476446       0.00548880      -0.02158819 </v>
   <v>       0.00054686      -0.00181911      -0.01468736 </v>
   <v>      -0.00268355      -0.00171136      -0.00670407 </v>
   <v>      -0.00512366      -0.00498478      -0.00066601 </v>
   <v>      -0.00268173       0.00149543      -0.00034477 </v>
   <v>       0.00403064       0.00104873      -0.00052414 </v>
   <v>       0.00300177      -0.00239709      -0.00127689 </v>
   <v>      -0.01041507       0.00065878      -0.00046686 </v>
   <v>      -0.01144619      -0.00496053      -0.00028527 </v>
   <v>      -0.01242785      -0.01402732      -0.00068477 </v>
   <v>      -0.00112486       0.00428200      -0.00413949 </v>
   <v>      -0.00671605       0.00151133      -0.03976310 </v>
   <v>      -0.01478509      -0.00347922      -0.07128918 </v>
   <v>      -0.00110952      -0.00721598      -0.01664196 </v>
   <v>       0.00115568       0.00255370      -0.00861603 </v>
   <v>       0.00044996      -0.00328865      -0.02485896 </v>
   <v>      -0.00198510       0.00432812      -0.01092650 </v>
   <v>       0.00101522      -0.00233657      -0.01661915 </v>
   <v>       0.01847689      -0.00938675       0.02902443 </v>
   <v>      -0.01486084      -0.01462444       0.03253320 </v>
   <v>      -0.07502853      -0.03403365       0.45831563 </v>
  </varray>
  <varray name="stress" >
   <v>      -1.61333712       0.16230222      -0.00849367 </v>
   <v>       0.16230174     -12.09871339      -0.02694135 </v>
   <v>      -0.00849490      -0.02694180      -0.26755668 </v>
  </varray>
  <energy>
   <i name="e_fr_energy">   -839.95008481 </i>
   <i name="e_wo_entrp">   -839.95008453 </i>
   <i name="e_0_energy">   -839.95008467 </i>
  </energy>
  <time name="totalsc"> 1711.86 1724.02</time>
 </calculation>
 <calculation>
  <scstep>
   <time name="dav">   83.43   84.01</time>
   <time name="total">   95.73   96.39</time>
   <energy>
    <i name="alphaZ">    196.22536771 </i>
    <i name="ewald">  39322.52160892 </i>
    <i name="hartreedc"> -53522.85853686 </i>
    <i name="XCdc">   1419.65462544 </i>
    <i name="pawpsdc">  39561.15526106 </i>
    <i name="pawaedc"> -39646.82455112 </i>
    <i name="eentropy">     -0.00000029 </i>
    <i name="bandstr">  -4676.60061843 </i>
    <i name="atom">  16514.44393368 </i>
    <i name="e_fr_energy">   -832.28290988 </i>
    <i name="e_wo_entrp">   -832.28290959 </i>
    <i name="e_0_energy">   -832.28290974 </i>
   </energy>
  </scstep>
  <scstep>
   <time name="dav">   84.26   84.85</time>
   <time name="total">   96.10   96.78</time>
   <energy>
    <i name="e_fr_energy">   -832.28300894 </i>
    <i name="e_wo_entrp">   -832.28300865 </i>
    <i name="e_0_energy">   -832.28300879 </i>
   </energy>
  </scstep>
  <scstep>
   <time name="dav">   73.12   73.64</time>
   <time name="total">   83.06   83.67</time>
   <energy>
    <i name="e_fr_energy">   -832.28299573 </i>
    <i name="e_wo_entrp">   -832.28299544 </i>
    <i name="e_0_energy">   -832.28299559 </i>
   </energy>
  </scstep>
  <scstep>
   <time name="dav">   54.15   54.48</time>
   <time name="total">   58.78   59.14</time>
   <energy>
    <i name="alphaZ">    196.22536771 </i>
    <i name="ewald">  39322.52160892 </i>
    <i name="hartreedc"> -53522.70647039 </i>
    <i name="XCdc">   1419.64943378 </i>
    <i name="pawpsdc">  39560.22896396 </i>
    <i name="pawaedc"> -39645.89648032 </i>
    <i name="eentropy">     -0.00000029 </i>
    <i name="bandstr">  -4676.74935723 </i>
    <i name="atom">  16514.44393368 </i>
    <i name="e_fr_energy">   -832.28300017 </i>
    <i name="e_wo_entrp">   -832.28299988 </i>
    <i name="e_0_energy">   -832.28300002 </i>
   </energy>
  </scstep>
  <structure>
   <crystal>
    <varray name="basis" >
     <v>      17.27103806       0.00000000       0.00000000 </v>
     <v>      -8.63551903      14.95715771       0.00000000 </v>
     <v>       0.00000000       0.00000000      15.00000000 </v>
    </varray>
    <i name="volume">   3874.88459904 </i>
    <varray name="rec_basis" >
     <v>       0.05790040       0.03342881       0.00000000 </v>
     <v>       0.00000000       0.06685762       0.00000000 </v>
     <v>       0.00000000       0.00000000       0.06666667 </v>
    </varray>
   </crystal>
   <varray name="positions" >
    <v>       0.00157043       0.00079402       0.50082420 </v>
    <v>       0.00020088       0.14261638       0.49820182 </v>
    <v>       0.00017109       0.28572519       0.49756216 </v>
    <v>       0.00080221       0.42894183       0.49915518 </v>
    <v>       0.00128346       0.57210028       0.50114601 </v>
    <v>       0.00236614       0.71529988       0.50328332 </v>
    <v>       0.00339114       0.85912655       0.50308535 </v>
    <v>       0.14548740       0.00254106       0.49219184 </v>
    <v>       0.14401306       0.14434384       0.48714686 </v>
    <v>       0.14180331       0.28545649       0.48285522 </v>
    <v>       0.14281447       0.42909549       0.48301553 </v>
    <v>       0.14409950       0.57189754       0.48795509 </v>
    <v>       0.14443273       0.71520608       0.49156339 </v>
    <v>       0.14508842       0.85892520       0.49376838 </v>
    <v>       0.28805702       0.00281413       0.48963252 </v>
    <v>       0.28837359       0.14679921       0.48269764 </v>
    <v>       0.28580169       0.29090306       0.46577537 </v>
    <v>       0.28137292       0.42388164       0.45425209 </v>
    <v>       0.28694730       0.57171268       0.46255360 </v>
    <v>       0.28653846       0.71538002       0.48004599 </v>
    <v>       0.28694800       0.85889618       0.48833081 </v>
    <v>       0.43018247       0.00151045       0.49281894 </v>
    <v>       0.43151866       0.14633101       0.49154606 </v>
    <v>       0.43001147       0.28542094       0.47413656 </v>
    <v>       0.42874393       0.85737438       0.48726780 </v>
    <v>       0.57194053       0.99925386       0.49771892 </v>
    <v>       0.57287287       0.14329822       0.50046419 </v>
    <v>       0.57731240       0.29052350       0.50174936 </v>
    <v>       0.56990845       0.85388205       0.49680558 </v>
    <v>       0.71389896       0.99748420       0.50542646 </v>
    <v>       0.71500063       0.14195468       0.50514219 </v>
    <v>       0.71588835       0.28570730       0.50891098 </v>
    <v>       0.71248835       0.42572759       0.51741625 </v>
    <v>       0.72188530       0.57684906       0.53780341 </v>
    <v>       0.71406926       0.85377709       0.51342129 </v>
    <v>       0.85746715       0.99898547       0.50792145 </v>
    <v>       0.85721942       0.14195428       0.50516855 </v>
    <v>       0.85791687       0.28547165       0.50628145 </v>
    <v>       0.85847717       0.42890556       0.50975124 </v>
    <v>       0.85825569       0.57194083       0.51435464 </v>
    <v>       0.86182856       0.71659386       0.51688759 </v>
    <v>       0.85980109       0.85738113       0.51321294 </v>
    <v>       0.04882384       0.09601761       0.49547605 </v>
    <v>       0.04705784       0.23766149       0.49354997 </v>
    <v>       0.04794074       0.38126543       0.49390004 </v>
    <v>       0.04889164       0.52432248       0.49640064 </v>
    <v>       0.04936373       0.66752042       0.49851338 </v>
    <v>       0.05007010       0.81084474       0.49983147 </v>
    <v>       0.05018277       0.95414988       0.49851564 </v>
    <v>       0.19275120       0.09769853       0.48673588 </v>
    <v>       0.19036372       0.23922934       0.47892957 </v>
    <v>       0.18838959       0.38014321       0.47506546 </v>
    <v>       0.19177372       0.52450232       0.47947680 </v>
    <v>       0.19149819       0.66744358       0.48580938 </v>
    <v>       0.19210168       0.81090670       0.49065619 </v>
    <v>       0.19286715       0.95454173       0.49137772 </v>
    <v>       0.33604848       0.09891663       0.48765965 </v>
    <v>       0.33596836       0.24262700       0.47289157 </v>
    <v>       0.32508058       0.51905907       0.43929601 </v>
    <v>       0.33703794       0.67055713       0.47021479 </v>
    <v>       0.33394914       0.81051068       0.48470832 </v>
    <v>       0.33489031       0.95431548       0.49014944 </v>
    <v>       0.47796957       0.09694121       0.49573583 </v>
    <v>       0.48009630       0.24230366       0.48983963 </v>
    <v>       0.47257806       0.80564274       0.48555212 </v>
    <v>       0.47702688       0.95283275       0.49283237 </v>
    <v>       0.61971109       0.09465550       0.50159391 </v>
    <v>       0.62113373       0.23882260       0.50441819 </v>
    <v>       0.62022278       0.81028672       0.50692831 </v>
    <v>       0.61843360       0.94989123       0.50009057 </v>
    <v>       0.76191056       0.09357334       0.50572356 </v>
    <v>       0.76298850       0.23738190       0.50740182 </v>
    <v>       0.76326048       0.38085737       0.51271589 </v>
    <v>       0.76209272       0.52448292       0.52422157 </v>
    <v>       0.76758692       0.67235333       0.52932066 </v>
    <v>       0.76377314       0.80529696       0.52020000 </v>
    <v>       0.76175539       0.94982095       0.50929585 </v>
    <v>       0.90481396       0.09418165       0.50425892 </v>
    <v>       0.90507039       0.23756517       0.50363302 </v>
    <v>       0.90565445       0.38117799       0.50557620 </v>
    <v>       0.90598243       0.52450093       0.50827938 </v>
    <v>       0.90732022       0.66741800       0.51181146 </v>
    <v>       0.90857380       0.81131787       0.51121433 </v>
    <v>       0.90625171       0.95239120       0.50754325 </v>
    <v>       0.47633973       0.37362342       0.45827218 </v>
    <v>       0.40355582       0.55776656       0.39656791 </v>
    <v>       0.63528251       0.53721221       0.55942637 </v>
    <v>       0.57479813       0.72098261       0.51027065 </v>
    <v>       0.42671847       0.71591996       0.47356702 </v>
    <v>       0.72078368       0.71624140       0.53094393 </v>
    <v>       0.32737085       0.37913897       0.44916828 </v>
    <v>       0.62297413       0.38044813       0.51099397 </v>
    <v>       0.53482112       0.57961701       0.51929032 </v>
    <v>       0.46248696       0.48346160       0.49144365 </v>
    <v>       0.47624696       0.53040312       0.53514540 </v>
   </varray>
  </structure>
  <varray name="forces" >
   <v>      -0.00299062      -0.00039986       0.00206151 </v>
   <v>       0.00002727       0.00130204       0.00067008 </v>
   <v>       0.00092833       0.00226343      -0.00018025 </v>
   <v>       0.00145680       0.00247207       0.00108225 </v>
   <v>       0.00323234      -0.00066382       0.00091564 </v>
   <v>      -0.00113725       0.00069074       0.00264107 </v>
   <v>      -0.00021568      -0.00028824       0.00254509 </v>
   <v>      -0.00080625      -0.00135523       0.00144552 </v>
   <v>       0.00047656       0.00099921       0.00147647 </v>
   <v>       0.00153836       0.00295449      -0.00123403 </v>
   <v>       0.00111517       0.00231887      -0.00093381 </v>
   <v>       0.00237245      -0.00050806       0.00260831 </v>
   <v>       0.00184495      -0.00251010       0.00110186 </v>
   <v>       0.00076817      -0.00007282       0.00412347 </v>
   <v>       0.00252145       0.00068964      -0.00165072 </v>
   <v>       0.00187124      -0.00009144      -0.00402379 </v>
   <v>       0.00118236       0.00065606      -0.00549550 </v>
   <v>       0.00031889       0.00312919      -0.01185548 </v>
   <v>       0.00187034       0.00058097      -0.00806620 </v>
   <v>       0.00151397      -0.00033480      -0.00133104 </v>
   <v>       0.00181253       0.00032976       0.00278437 </v>
   <v>       0.00109177       0.00057890      -0.00016157 </v>
   <v>       0.00468288      -0.00092257      -0.00590105 </v>
   <v>       0.00105001      -0.00035943      -0.00772884 </v>
   <v>       0.00085210       0.00113557      -0.00461287 </v>
   <v>       0.00023820       0.00117808      -0.00384007 </v>
   <v>       0.00038318       0.00074565      -0.00356424 </v>
   <v>       0.00133566      -0.00044555      -0.01157855 </v>
   <v>       0.00121585       0.00129105      -0.00904153 </v>
   <v>       0.00095330       0.00117740      -0.00632694 </v>
   <v>      -0.00004035       0.00058396      -0.00186504 </v>
   <v>       0.00078832       0.00005686      -0.00626164 </v>
   <v>       0.00133298      -0.00101820      -0.01402913 </v>
   <v>      -0.00452449      -0.00083221      -0.03776819 </v>
   <v>       0.00316481       0.00127429      -0.01201876 </v>
   <v>       0.00032071       0.00038948      -0.00303943 </v>
   <v>       0.00052084       0.00048385      -0.00202787 </v>
   <v>       0.00000739       0.00171597      -0.00099960 </v>
   <v>       0.00154293       0.00031317      -0.00276019 </v>
   <v>       0.00224401       0.00042946      -0.00525629 </v>
   <v>       0.00059370       0.00079467      -0.00506698 </v>
   <v>       0.00071282       0.00036828      -0.00390266 </v>
   <v>       0.00588575       0.00107562       0.00175974 </v>
   <v>       0.00288964       0.00163393       0.00017447 </v>
   <v>       0.00237273      -0.00192622       0.00091730 </v>
   <v>       0.00116639       0.00173402       0.00114100 </v>
   <v>       0.00253658       0.00096057       0.00176499 </v>
   <v>       0.00369452       0.00232832       0.00473291 </v>
   <v>       0.00430404       0.00276848       0.00233090 </v>
   <v>       0.00056800       0.00000572      -0.00014962 </v>
   <v>       0.00221163       0.00065603      -0.00072325 </v>
   <v>       0.00527476       0.00120672      -0.00458873 </v>
   <v>       0.00222845       0.00077045      -0.00046496 </v>
   <v>       0.00132022      -0.00022616      -0.00023525 </v>
   <v>       0.00027249       0.00099719       0.00384865 </v>
   <v>       0.00025522       0.00013044       0.00204081 </v>
   <v>      -0.00069524       0.00037664      -0.00330221 </v>
   <v>       0.00046586      -0.00142480      -0.00597265 </v>
   <v>      -0.00017579       0.00131045      -0.01583449 </v>
   <v>       0.00115702       0.00139407      -0.00411318 </v>
   <v>      -0.00042864       0.00029718      -0.00028148 </v>
   <v>      -0.00229537       0.00039145       0.00014528 </v>
   <v>       0.00022811       0.00050477      -0.00394184 </v>
   <v>      -0.00041633       0.00034232      -0.00976715 </v>
   <v>       0.00008263       0.00136140      -0.00744356 </v>
   <v>       0.00153150      -0.00160505      -0.00330467 </v>
   <v>       0.00045667       0.00128087      -0.00336592 </v>
   <v>       0.00064922       0.00144005      -0.00796308 </v>
   <v>      -0.00097231      -0.00156150      -0.01437402 </v>
   <v>       0.00128448       0.00099130      -0.00599545 </v>
   <v>       0.00098671       0.00180169      -0.00329881 </v>
   <v>       0.00134842       0.00144170      -0.00268084 </v>
   <v>       0.00198592       0.00152531      -0.00718119 </v>
   <v>       0.00221257      -0.00018529      -0.02040428 </v>
   <v>       0.00056751      -0.00086446      -0.02160819 </v>
   <v>       0.00039463      -0.00010912      -0.01434711 </v>
   <v>      -0.00027014       0.00072543      -0.00658918 </v>
   <v>       0.00194943       0.00220246      -0.00108200 </v>
   <v>       0.00194342       0.00130270      -0.00032194 </v>
   <v>       0.00131643       0.00093468      -0.00007910 </v>
   <v>       0.00324710       0.00073131      -0.00120394 </v>
   <v>       0.00356063       0.00068648      -0.00158376 </v>
   <v>       0.00284289       0.00186668      -0.00141808 </v>
   <v>       0.00043992       0.00132117      -0.00183826 </v>
   <v>       0.00065935       0.00216568      -0.00648314 </v>
   <v>      -0.00457263       0.00023523      -0.03378496 </v>
   <v>      -0.01292276      -0.00368074      -0.07188719 </v>
   <v>       0.00277279       0.00479677      -0.02349873 </v>
   <v>       0.00061834       0.00153069      -0.00895488 </v>
   <v>      -0.00124789      -0.00111095      -0.02554911 </v>
   <v>       0.00110773      -0.00077485      -0.01059554 </v>
   <v>       0.00095500       0.00057874      -0.01651288 </v>
   <v>      -0.01054888      -0.03285698       0.04754161 </v>
   <v>      -0.04201085       0.05038709       0.10627574 </v>
   <v>      -0.03135587      -0.07296647       0.35911783 </v>
  </varray>
  <varray name="stress" >
   <v>      -1.62597493       0.15861774      -0.00223343 </v>
   <v>       0.15861726     -12.11860550      -0.03645613 </v>
   <v>      -0.00223464      -0.03645661      -0.26896143 </v>
  </varray>
  <energy>
   <i name="e_fr_energy">   -839.95161259 </i>
   <i name="e_wo_entrp">   -839.95161230 </i>
   <i name="e_0_energy">   -839.95161245 </i>
  </energy>
  <time name="totalsc">  472.84  476.19</time>
 </calculation>
 <calculation>
  <scstep>
   <time name="dav">   82.03   82.61</time>
   <time name="total">   94.40   95.06</time>
   <energy>
    <i name="alphaZ">    196.22536771 </i>
    <i name="ewald">  39320.86480315 </i>
    <i name="hartreedc"> -53521.22882429 </i>
    <i name="XCdc">   1419.64328191 </i>
    <i name="pawpsdc">  39559.84160356 </i>
    <i name="pawaedc"> -39645.50809269 </i>
    <i name="eentropy">     -0.00000029 </i>
    <i name="bandstr">  -4676.56704920 </i>
    <i name="atom">  16514.44393368 </i>
    <i name="e_fr_energy">   -832.28497646 </i>
    <i name="e_wo_entrp">   -832.28497616 </i>
    <i name="e_0_energy">   -832.28497631 </i>
   </energy>
  </scstep>
  <scstep>
   <time name="dav">   84.28   84.86</time>
   <time name="total">   95.67   96.34</time>
   <energy>
    <i name="e_fr_energy">   -832.28526352 </i>
    <i name="e_wo_entrp">   -832.28526323 </i>
    <i name="e_0_energy">   -832.28526337 </i>
   </energy>
  </scstep>
  <scstep>
   <time name="dav">   75.93   76.51</time>
   <time name="total">   85.75   86.39</time>
   <energy>
    <i name="e_fr_energy">   -832.28524179 </i>
    <i name="e_wo_entrp">   -832.28524150 </i>
    <i name="e_0_energy">   -832.28524164 </i>
   </energy>
  </scstep>
  <scstep>
   <time name="dav">   59.13   59.51</time>
   <time name="total">   67.94   68.40</time>
   <energy>
    <i name="e_fr_energy">   -832.28526965 </i>
    <i name="e_wo_entrp">   -832.28526936 </i>
    <i name="e_0_energy">   -832.28526951 </i>
   </energy>
  </scstep>
  <scstep>
   <time name="dav">   55.79   56.14</time>
   <time name="total">   65.28   65.70</time>
   <energy>
    <i name="e_fr_energy">   -832.28528397 </i>
    <i name="e_wo_entrp">   -832.28528368 </i>
    <i name="e_0_energy">   -832.28528382 </i>
   </energy>
  </scstep>
  <scstep>
   <time name="dav">   50.18   50.51</time>
   <time name="total">   55.61   55.99</time>
   <energy>
    <i name="alphaZ">    196.22536771 </i>
    <i name="ewald">  39320.86480315 </i>
    <i name="hartreedc"> -53521.02759171 </i>
    <i name="XCdc">   1419.63558710 </i>
    <i name="pawpsdc">  39558.63015272 </i>
    <i name="pawaedc"> -39644.29267289 </i>
    <i name="eentropy">     -0.00000029 </i>
    <i name="bandstr">  -4676.76486332 </i>
    <i name="atom">  16514.44393368 </i>
    <i name="e_fr_energy">   -832.28528384 </i>
    <i name="e_wo_entrp">   -832.28528355 </i>
    <i name="e_0_energy">   -832.28528370 </i>
   </energy>
  </scstep>
  <structure>
   <crystal>
[...]
       <r>   -18.0164     6.0281    34.0414 </r>
       <r>   -17.8935     7.0740    34.9112 </r>
       <r>   -17.7705     6.6379    35.7275 </r>
       <r>   -17.6475    12.1299    37.2190 </r>
       <r>   -17.5246    12.8417    38.7981 </r>
       <r>   -17.4016    10.1294    40.0437 </r>
       <r>   -17.2786     5.8564    40.7638 </r>
       <r>   -17.1557     6.9330    41.6163 </r>
       <r>   -17.0327     5.2802    42.2656 </r>
       <r>   -16.9097     4.8981    42.8679 </r>
       <r>   -16.7868     6.0534    43.6123 </r>
       <r>   -16.6638    10.4101    44.8924 </r>
       <r>   -16.5408    18.5238    47.1701 </r>
       <r>   -16.4179     4.9153    47.7746 </r>
       <r>   -16.2949     1.8325    47.9999 </r>
       <r>   -16.1720     0.0008    48.0000 </r>
       <r>   -16.0490     0.3958    48.0487 </r>
       <r>   -15.9260     3.6059    48.4921 </r>
       <r>   -15.8031     6.0643    49.2378 </r>
       <r>   -15.6801     4.5004    49.7912 </r>
       <r>   -15.5571     8.0251    50.7780 </r>
       <r>   -15.4342     5.8446    51.4967 </r>
       <r>   -15.3112    10.2778    52.7605 </r>
       <r>   -15.1882    12.8155    54.3363 </r>
       <r>   -15.0653     5.6024    55.0252 </r>
       <r>   -14.9423     5.9691    55.7592 </r>
       <r>   -14.8193    11.3565    57.1557 </r>
       <r>   -14.6964     7.7790    58.1122 </r>
       <r>   -14.5734    10.7826    59.4381 </r>
       <r>   -14.4504    13.9361    61.1518 </r>
       <r>   -14.3275     5.2686    61.7997 </r>
       <r>   -14.2045     5.9774    62.5347 </r>
       <r>   -14.0815     2.6564    62.8613 </r>
       <r>   -13.9586     5.1500    63.4946 </r>
       <r>   -13.8356     9.0229    64.6041 </r>
       <r>   -13.7126    11.6264    66.0337 </r>
       <r>   -13.5897     8.8450    67.1214 </r>
       <r>   -13.4667     7.0130    67.9837 </r>
       <r>   -13.3437     4.0410    68.4806 </r>
       <r>   -13.2208     2.9637    68.8451 </r>
       <r>   -13.0978     5.5699    69.5300 </r>
       <r>   -12.9748     6.3796    70.3144 </r>
       <r>   -12.8519     9.6860    71.5055 </r>
       <r>   -12.7289    18.9342    73.8337 </r>
       <r>   -12.6060     6.1956    74.5956 </r>
       <r>   -12.4830     9.4358    75.7559 </r>
       <r>   -12.3600     9.0101    76.8638 </r>
       <r>   -12.2371     7.2431    77.7545 </r>
       <r>   -12.1141     2.7385    78.0912 </r>
       <r>   -11.9911    10.5531    79.3889 </r>
       <r>   -11.8682     9.4787    80.5544 </r>
       <r>   -11.7452    13.3276    82.1932 </r>
       <r>   -11.6222    10.7398    83.5139 </r>
       <r>   -11.4993    13.9291    85.2267 </r>
       <r>   -11.3763     9.3359    86.3746 </r>
       <r>   -11.2533    11.9082    87.8389 </r>
       <r>   -11.1304    10.6511    89.1487 </r>
       <r>   -11.0074     9.4204    90.3070 </r>
       <r>   -10.8844     7.3613    91.2122 </r>
       <r>   -10.7615     4.1255    91.7195 </r>
       <r>   -10.6385     8.0599    92.7106 </r>
       <r>   -10.5155    13.2609    94.3413 </r>
       <r>   -10.3926    14.3582    96.1068 </r>
       <r>   -10.2696    16.3098    98.1124 </r>
       <r>   -10.1466    18.9667   100.4446 </r>
       <r>   -10.0237    19.1879   102.8041 </r>
       <r>    -9.9007    17.7781   104.9901 </r>
       <r>    -9.7777    19.5012   107.3881 </r>
       <r>    -9.6548    24.2590   110.3711 </r>
       <r>    -9.5318    22.0182   113.0786 </r>
       <r>    -9.4088    21.6896   115.7457 </r>
       <r>    -9.2859    20.8775   118.3129 </r>
       <r>    -9.1629    21.5815   120.9667 </r>
       <r>    -9.0400    23.0943   123.8065 </r>
       <r>    -8.9170    20.2892   126.3014 </r>
       <r>    -8.7940    29.4033   129.9169 </r>
       <r>    -8.6711    10.9267   131.2606 </r>
       <r>    -8.5481    11.1469   132.6312 </r>
       <r>    -8.4251    20.9479   135.2071 </r>
       <r>    -8.3022    23.7716   138.1302 </r>
       <r>    -8.1792    19.4553   140.5225 </r>
       <r>    -8.0562    15.3657   142.4120 </r>
       <r>    -7.9333     8.3765   143.4420 </r>
       <r>    -7.8103    14.7476   145.2554 </r>
       <r>    -7.6873     9.2465   146.3924 </r>
       <r>    -7.5644    11.1291   147.7609 </r>
       <r>    -7.4414    27.4192   151.1325 </r>
       <r>    -7.3184    19.0480   153.4748 </r>
       <r>    -7.1955    21.6499   156.1370 </r>
       <r>    -7.0725    13.7791   157.8313 </r>
       <r>    -6.9495    15.6036   159.7500 </r>
       <r>    -6.8266     7.3179   160.6499 </r>
       <r>    -6.7036    10.5204   161.9436 </r>
       <r>    -6.5806    14.3060   163.7027 </r>
       <r>    -6.4577     9.5970   164.8828 </r>
       <r>    -6.3347    20.8866   167.4511 </r>
       <r>    -6.2117    15.0307   169.2994 </r>
       <r>    -6.0888    10.4312   170.5821 </r>
       <r>    -5.9658     9.7433   171.7802 </r>
       <r>    -5.8428    14.0667   173.5099 </r>
       <r>    -5.7199    10.8049   174.8385 </r>
       <r>    -5.5969     6.4295   175.6291 </r>
       <r>    -5.4740     1.2958   175.7885 </r>
       <r>    -5.3510     4.5650   176.3498 </r>
       <r>    -5.2280    16.9860   178.4385 </r>
       <r>    -5.1051    17.1641   180.5491 </r>
       <r>    -4.9821    14.7495   182.3628 </r>
       <r>    -4.8591     9.3306   183.5101 </r>
       <r>    -4.7362     4.0146   184.0038 </r>
       <r>    -4.6132     2.5902   184.3223 </r>
       <r>    -4.4902    11.9706   185.7942 </r>
       <r>    -4.3673    14.9006   187.6265 </r>
       <r>    -4.2443    10.2892   188.8917 </r>
       <r>    -4.1213    13.2550   190.5216 </r>
       <r>    -3.9984    16.4758   192.5476 </r>
       <r>    -3.8754     3.6560   192.9972 </r>
       <r>    -3.7524     6.8367   193.8378 </r>
       <r>    -3.6295     4.4868   194.3896 </r>
       <r>    -3.5065     3.1190   194.7731 </r>
       <r>    -3.3835     3.3428   195.1841 </r>
       <r>    -3.2606     0.7473   195.2760 </r>
       <r>    -3.1376     1.7946   195.4967 </r>
       <r>    -3.0146     0.5533   195.5647 </r>
       <r>    -2.8917     1.8795   195.7959 </r>
       <r>    -2.7687     1.6502   195.9988 </r>
       <r>    -2.6457     0.0108   196.0001 </r>
       <r>    -2.5228     1.3353   196.1643 </r>
       <r>    -2.3998     2.6979   196.4961 </r>
       <r>    -2.2769     0.0337   196.5002 </r>
       <r>    -2.1539     1.2886   196.6587 </r>
       <r>    -2.0309     2.4902   196.9649 </r>
       <r>    -1.9080     2.2394   197.2402 </r>
       <r>    -1.7850     4.6285   197.8094 </r>
       <r>    -1.6620     1.5491   197.9999 </r>
       <r>    -1.5391     0.1978   198.0242 </r>
       <r>    -1.4161     5.9097   198.7509 </r>
       <r>    -1.2931     5.0171   199.3678 </r>
       <r>    -1.1702     4.6149   199.9353 </r>
       <r>    -1.0472    17.2508   202.0565 </r>
       <r>    -0.9242     6.8419   202.8978 </r>
       <r>    -0.8013     5.8322   203.6150 </r>
       <r>    -0.6783    14.0597   205.3439 </r>
       <r>    -0.5553     5.5960   206.0320 </r>
       <r>    -0.4324     5.1845   206.6695 </r>
       <r>    -0.3094     7.7289   207.6199 </r>
       <r>    -0.1864     8.6023   208.6777 </r>
       <r>    -0.0635    11.9607   210.1484 </r>
       <r>     0.0595    12.1226   211.6391 </r>
       <r>     0.1825     2.9305   211.9994 </r>
       <r>     0.3054     1.4531   212.1781 </r>
       <r>     0.4284     6.8050   213.0149 </r>
       <r>     0.5514     7.5067   213.9379 </r>
       <r>     0.6743     5.4893   214.6129 </r>
       <r>     0.7973     4.1447   215.1226 </r>
       <r>     0.9203     7.9246   216.0970 </r>
       <r>     1.0432    11.2336   217.4784 </r>
       <r>     1.1662     3.9917   217.9692 </r>
       <r>     1.2891    14.3240   219.7306 </r>
       <r>     1.4121    19.9577   222.1847 </r>
       <r>     1.5351    10.7833   223.5107 </r>
       <r>     1.6580     6.9241   224.3621 </r>
       <r>     1.7810     6.8241   225.2012 </r>
       <r>     1.9040    13.8588   226.9054 </r>
       <r>     2.0269    26.8157   230.2028 </r>
       <r>     2.1499    10.2969   231.4689 </r>
       <r>     2.2729    11.1467   232.8396 </r>
       <r>     2.3958    22.0181   235.5471 </r>
       <r>     2.5188    19.9769   238.0035 </r>
       <r>     2.6418    10.5304   239.2984 </r>
       <r>     2.7647    17.2616   241.4210 </r>
       <r>     2.8877    35.2989   245.7616 </r>
       <r>     3.0107    43.0528   251.0556 </r>
       <r>     3.1336    12.9184   252.6441 </r>
       <r>     3.2566    13.1734   254.2640 </r>
       <r>     3.3796    18.2502   256.5081 </r>
       <r>     3.5025    24.0495   259.4654 </r>
       <r>     3.6255    13.9785   261.1842 </r>
       <r>     3.7485    17.2779   263.3088 </r>
       <r>     3.8714    29.3846   266.9221 </r>
       <r>     3.9944    30.7576   270.7042 </r>
       <r>     4.1174    16.2116   272.6977 </r>
       <r>     4.2403    12.3123   274.2117 </r>
       <r>     4.3633     6.3682   274.9948 </r>
       <r>     4.4863     0.0427   275.0000 </r>
       <r>     4.6092     0.0000   275.0000 </r>
       <r>     4.7322     0.0000   275.0000 </r>
       <r>     4.8551     0.0000   275.0000 </r>
       <r>     4.9781     0.0000   275.0000 </r>
       <r>     5.1011     0.0000   275.0000 </r>
       <r>     5.2240     0.0000   275.0000 </r>
       <r>     5.3470     0.0000   275.0000 </r>
       <r>     5.4700     0.0000   275.0000 </r>
       <r>     5.5929     0.0000   275.0000 </r>
       <r>     5.7159     0.0000   275.0000 </r>
       <r>     5.8389     0.0000   275.0000 </r>
       <r>     5.9618     0.0000   275.0000 </r>
      </set>
     </set>
    </array>
   </total>
  </dos>
 </calculation>
 <structure name="finalpos" >
  <crystal>
   <varray name="basis" >
    <v>      17.27103806       0.00000000       0.00000000 </v>
    <v>      -8.63551903      14.95715771       0.00000000 </v>
    <v>       0.00000000       0.00000000      15.00000000 </v>
   </varray>
   <i name="volume">   3874.88459904 </i>
   <varray name="rec_basis" >
    <v>       0.05790040       0.03342881       0.00000000 </v>
    <v>       0.00000000       0.06685762       0.00000000 </v>
    <v>       0.00000000       0.00000000       0.06666667 </v>
   </varray>
  </crystal>
  <varray name="positions" >
   <v>       0.00168194       0.00087194       0.50234345 </v>
   <v>       0.00027649       0.14263725       0.49934709 </v>
   <v>       0.00024659       0.28577449       0.49845042 </v>
   <v>       0.00092670       0.42904256       0.50014784 </v>
   <v>       0.00144566       0.57221655       0.50232000 </v>
   <v>       0.00251525       0.71540149       0.50474697 </v>
   <v>       0.00355936       0.85925102       0.50475647 </v>
   <v>       0.14564064       0.00265888       0.49434748 </v>
   <v>       0.14415156       0.14443260       0.48913155 </v>
   <v>       0.14188863       0.28551720       0.48495970 </v>
   <v>       0.14300822       0.42924346       0.48553869 </v>
   <v>       0.14433506       0.57203699       0.49062313 </v>
   <v>       0.14464050       0.71536277       0.49415662 </v>
   <v>       0.14527951       0.85907802       0.49617046 </v>
   <v>       0.28821993       0.00296210       0.49198941 </v>
   <v>       0.28853831       0.14691199       0.48517137 </v>
   <v>       0.28617652       0.29111466       0.46999676 </v>
   <v>       0.28213190       0.42432557       0.46098599 </v>
   <v>       0.28773903       0.57205167       0.46899050 </v>
   <v>       0.28679553       0.71555182       0.48473453 </v>
   <v>       0.28710995       0.85903881       0.49148879 </v>
   <v>       0.43032178       0.00167780       0.49525877 </v>
   <v>       0.43168325       0.14648004       0.49305607 </v>
   <v>       0.43026042       0.28565078       0.47558716 </v>
   <v>       0.42888761       0.85754113       0.49185777 </v>
   <v>       0.57204248       0.99937057       0.50066179 </v>
   <v>       0.57303580       0.14343979       0.50179091 </v>
   <v>       0.57753390       0.29065662       0.50210088 </v>
   <v>       0.57002075       0.85403040       0.50212274 </v>
   <v>       0.71404483       0.99761399       0.50771592 </v>
   <v>       0.71516282       0.14209098       0.50633918 </v>
   <v>       0.71607364       0.28586503       0.50918777 </v>
   <v>       0.71263966       0.42589619       0.51727816 </v>
   <v>       0.72187804       0.57686015       0.53812797 </v>
   <v>       0.71425679       0.85393132       0.51668420 </v>
   <v>       0.85758200       0.99904784       0.50923911 </v>
   <v>       0.85731541       0.14200063       0.50608603 </v>
   <v>       0.85805075       0.28557637       0.50680578 </v>
   <v>       0.85860718       0.42903297       0.50992350 </v>
   <v>       0.85836717       0.57205013       0.51473831 </v>
   <v>       0.86196758       0.71672354       0.51799923 </v>
   <v>       0.85999901       0.85752789       0.51489925 </v>
   <v>       0.04893967       0.09607534       0.49699844 </v>
   <v>       0.04710403       0.23767636       0.49476119 </v>
   <v>       0.04801598       0.38132878       0.49521291 </v>
   <v>       0.04906482       0.52444122       0.49789372 </v>
   <v>       0.04953179       0.66763530       0.50021483 </v>
   <v>       0.05025558       0.81098232       0.50172329 </v>
   <v>       0.05032871       0.95425361       0.50030615 </v>
   <v>       0.19292004       0.09782085       0.48908611 </v>
   <v>       0.19051027       0.23933799       0.48135839 </v>
   <v>       0.18855393       0.38024421       0.47833440 </v>
   <v>       0.19206012       0.52465860       0.48293632 </v>
   <v>       0.19172722       0.66758982       0.48920178 </v>
   <v>       0.19228172       0.81103644       0.49342371 </v>
   <v>       0.19303323       0.95468303       0.49378711 </v>
   <v>       0.33620080       0.09903318       0.48971890 </v>
   <v>       0.33617842       0.24273742       0.47581554 </v>
   <v>       0.32699300       0.51973345       0.44942768 </v>
   <v>       0.33740624       0.67073725       0.47666156 </v>
   <v>       0.33413370       0.81066257       0.48893666 </v>
   <v>       0.33504153       0.95445532       0.49278975 </v>
   <v>       0.47811514       0.09710094       0.49738341 </v>
   <v>       0.48031099       0.24243380       0.49077944 </v>
   <v>       0.47274132       0.80586010       0.49152937 </v>
   <v>       0.47714980       0.95301014       0.49618387 </v>
   <v>       0.61987100       0.09479702       0.50331706 </v>
   <v>       0.62133787       0.23896866       0.50498613 </v>
   <v>       0.62029990       0.81044434       0.51253092 </v>
   <v>       0.61855524       0.95003600       0.50356983 </v>
   <v>       0.76205317       0.09368837       0.50705184 </v>
   <v>       0.76314923       0.23752129       0.50801385 </v>
   <v>       0.76341467       0.38101305       0.51269723 </v>
   <v>       0.76220329       0.52460690       0.52422756 </v>
   <v>       0.76774752       0.67247913       0.53040885 </v>
   <v>       0.76406337       0.80550027       0.52254709 </v>
   <v>       0.76188840       0.94993321       0.51143482 </v>
   <v>       0.90490311       0.09421518       0.50523587 </v>
   <v>       0.90515387       0.23762268       0.50430115 </v>
   <v>       0.90575643       0.38126477       0.50602023 </v>
   <v>       0.90611191       0.52462593       0.50871640 </v>
   <v>       0.90744051       0.66752772       0.51274728 </v>
   <v>       0.90874339       0.81144854       0.51269370 </v>
   <v>       0.90639469       0.95249686       0.50900375 </v>
   <v>       0.47623081       0.37358645       0.45862147 </v>
   <v>       0.40969774       0.55907993       0.41507217 </v>
   <v>       0.63539791       0.53723426       0.55940952 </v>
   <v>       0.57473374       0.72116198       0.51862022 </v>
   <v>       0.42699607       0.71605753       0.48082095 </v>
   <v>       0.72108636       0.71644617       0.53294054 </v>
   <v>       0.32840127       0.37988453       0.45666459 </v>
   <v>       0.62315353       0.38060215       0.51093000 </v>
   <v>       0.52143197       0.57744896       0.53911550 </v>
   <v>       0.45435445       0.47953528       0.51501829 </v>
   <v>       0.47367898       0.52222707       0.56423390 </v>
  </varray>
  <varray name="selective"  type="logical" >
   <v type="logical" >  T  T  T </v>
   <v type="logical" >  T  T  T </v>
   <v type="logical" >  T  T  T </v>
   <v type="logical" >  T  T  T </v>
   <v type="logical" >  T  T  T </v>
   <v type="logical" >  T  T  T </v>
   <v type="logical" >  T  T  T </v>
   <v type="logical" >  T  T  T </v>
   <v type="logical" >  T  T  T </v>
   <v type="logical" >  T  T  T </v>
   <v type="logical" >  T  T  T </v>
   <v type="logical" >  T  T  T </v>
   <v type="logical" >  T  T  T </v>
   <v type="logical" >  T  T  T </v>
   <v type="logical" >  T  T  T </v>
   <v type="logical" >  T  T  T </v>
   <v type="logical" >  T  T  T </v>
   <v type="logical" >  T  T  T </v>
   <v type="logical" >  T  T  T </v>
   <v type="logical" >  T  T  T </v>
   <v type="logical" >  T  T  T </v>
   <v type="logical" >  T  T  T </v>
   <v type="logical" >  T  T  T </v>
   <v type="logical" >  T  T  T </v>
   <v type="logical" >  T  T  T </v>
   <v type="logical" >  T  T  T </v>
   <v type="logical" >  T  T  T </v>
   <v type="logical" >  T  T  T </v>
   <v type="logical" >  T  T  T </v>
   <v type="logical" >  T  T  T </v>
   <v type="logical" >  T  T  T </v>
   <v type="logical" >  T  T  T </v>
   <v type="logical" >  T  T  T </v>
   <v type="logical" >  T  T  T </v>
   <v type="logical" >  T  T  T </v>
   <v type="logical" >  T  T  T </v>
   <v type="logical" >  T  T  T </v>
   <v type="logical" >  T  T  T </v>
   <v type="logical" >  T  T  T </v>
   <v type="logical" >  T  T  T </v>
   <v type="logical" >  T  T  T </v>
   <v type="logical" >  T  T  T </v>
   <v type="logical" >  T  T  T </v>
   <v type="logical" >  T  T  T </v>
   <v type="logical" >  T  T  T </v>
   <v type="logical" >  T  T  T </v>
   <v type="logical" >  T  T  T </v>
   <v type="logical" >  T  T  T </v>
   <v type="logical" >  T  T  T </v>
   <v type="logical" >  T  T  T </v>
   <v type="logical" >  T  T  T </v>
   <v type="logical" >  T  T  T </v>
   <v type="logical" >  T  T  T </v>
   <v type="logical" >  T  T  T </v>
   <v type="logical" >  T  T  T </v>
   <v type="logical" >  T  T  T </v>
   <v type="logical" >  T  T  T </v>
   <v type="logical" >  T  T  T </v>
   <v type="logical" >  T  T  T </v>
   <v type="logical" >  T  T  T </v>
   <v type="logical" >  T  T  T </v>
   <v type="logical" >  T  T  T </v>
   <v type="logical" >  T  T  T </v>
   <v type="logical" >  T  T  T </v>
   <v type="logical" >  T  T  T </v>
   <v type="logical" >  T  T  T </v>
   <v type="logical" >  T  T  T </v>
   <v type="logical" >  T  T  T </v>
   <v type="logical" >  T  T  T </v>
   <v type="logical" >  T  T  T </v>
   <v type="logical" >  T  T  T </v>
   <v type="logical" >  T  T  T </v>
   <v type="logical" >  T  T  T </v>
   <v type="logical" >  T  T  T </v>
   <v type="logical" >  T  T  T </v>
   <v type="logical" >  T  T  T </v>
   <v type="logical" >  T  T  T </v>
   <v type="logical" >  T  T  T </v>
   <v type="logical" >  T  T  T </v>
   <v type="logical" >  T  T  T </v>
   <v type="logical" >  T  T  T </v>
   <v type="logical" >  T  T  T </v>
   <v type="logical" >  T  T  T </v>
   <v type="logical" >  T  T  T </v>
   <v type="logical" >  T  T  T </v>
   <v type="logical" >  T  T  T </v>
   <v type="logical" >  T  T  T </v>
   <v type="logical" >  T  T  T </v>
   <v type="logical" >  T  T  T </v>
   <v type="logical" >  T  T  T </v>
   <v type="logical" >  T  T  T </v>
   <v type="logical" >  T  T  T </v>
   <v type="logical" >  T  T  T </v>
   <v type="logical" >  T  T  T </v>
   <v type="logical" >  T  T  T </v>
  </varray>
  <nose>
   <v>      -3.00000000       0.00000000       0.00010000       0.00010000 </v>
  </nose>
 </structure>
</modeling>
