unknown system                          
           1
    17.271038    0.000000    0.000000
    -8.635519   14.957158    0.000000
     0.000000    0.000000   15.000000
   C    F    N    H    O 
    84     4     4     2     1
Direct configuration=     1
   0.00157043  0.00079402  0.50082420
   0.00020088  0.14261638  0.49820182
   0.00017109  0.28572519  0.49756216
   0.00080221  0.42894183  0.49915518
   0.00128346  0.57210028  0.50114601
   0.00236614  0.71529988  0.50328332
   0.00339114  0.85912655  0.50308535
   0.14548740  0.00254106  0.49219184
   0.14401306  0.14434384  0.48714686
   0.14180331  0.28545649  0.48285522
   0.14281447  0.42909549  0.48301553
   0.14409950  0.57189754  0.48795509
   0.14443273  0.71520608  0.49156339
   0.14508842  0.85892520  0.49376838
   0.28805702  0.00281413  0.48963252
   0.28837359  0.14679921  0.48269764
   0.28580169  0.29090306  0.46577537
   0.28137292  0.42388164  0.45425209
   0.28694730  0.57171268  0.46255360
   0.28653846  0.71538002  0.48004599
   0.28694800  0.85889618  0.48833081
   0.43018247  0.00151045  0.49281894
   0.43151866  0.14633101  0.49154606
   0.43001147  0.28542094  0.47413656
   0.42874393  0.85737438  0.48726780
   0.57194053  0.99925386  0.49771892
   0.57287287  0.14329822  0.50046419
   0.57731240  0.29052350  0.50174936
   0.56990845  0.85388205  0.49680558
   0.71389896  0.99748420  0.50542646
   0.71500063  0.14195468  0.50514219
   0.71588835  0.28570730  0.50891098
   0.71248835  0.42572759  0.51741625
   0.72188530  0.57684906  0.53780341
   0.71406926  0.85377709  0.51342129
   0.85746715  0.99898547  0.50792145
   0.85721942  0.14195428  0.50516855
   0.85791687  0.28547165  0.50628145
   0.85847717  0.42890556  0.50975124
   0.85825569  0.57194083  0.51435464
   0.86182856  0.71659386  0.51688759
   0.85980109  0.85738113  0.51321294
   0.04882384  0.09601761  0.49547605
   0.04705784  0.23766149  0.49354997
   0.04794074  0.38126543  0.49390004
   0.04889164  0.52432248  0.49640064
   0.04936373  0.66752042  0.49851338
   0.05007010  0.81084474  0.49983147
   0.05018277  0.95414988  0.49851564
   0.19275120  0.09769853  0.48673588
   0.19036372  0.23922934  0.47892957
   0.18838959  0.38014321  0.47506546
   0.19177372  0.52450232  0.47947680
   0.19149819  0.66744358  0.48580938
   0.19210168  0.81090670  0.49065619
   0.19286715  0.95454173  0.49137772
   0.33604848  0.09891663  0.48765965
   0.33596836  0.24262700  0.47289157
   0.32508058  0.51905907  0.43929601
   0.33703794  0.67055713  0.47021479
   0.33394914  0.81051068  0.48470832
   0.33489031  0.95431548  0.49014944
   0.47796957  0.09694121  0.49573583
   0.48009630  0.24230366  0.48983963
   0.47257806  0.80564274  0.48555212
   0.47702688  0.95283275  0.49283237
   0.61971109  0.09465550  0.50159391
   0.62113373  0.23882260  0.50441819
   0.62022278  0.81028672  0.50692831
   0.61843360  0.94989123  0.50009057
   0.76191056  0.09357334  0.50572356
   0.76298850  0.23738190  0.50740182
   0.76326048  0.38085737  0.51271589
   0.76209272  0.52448292  0.52422157
   0.76758692  0.67235333  0.52932066
   0.76377314  0.80529696  0.52020000
   0.76175539  0.94982095  0.50929585
   0.90481396  0.09418165  0.50425892
   0.90507039  0.23756517  0.50363302
   0.90565445  0.38117799  0.50557620
   0.90598243  0.52450093  0.50827938
   0.90732022  0.66741800  0.51181146
   0.90857380  0.81131787  0.51121433
   0.90625171  0.95239120  0.50754325
   0.47633973  0.37362342  0.45827218
   0.40355582  0.55776656  0.39656791
   0.63528251  0.53721221  0.55942637
   0.57479813  0.72098261  0.51027065
   0.42671847  0.71591996  0.47356702
   0.72078368  0.71624140  0.53094393
   0.32737085  0.37913897  0.44916828
   0.62297413  0.38044813  0.51099397
   0.53482112  0.57961701  0.51929032
   0.46248696  0.48346160  0.49144365
   0.47624696  0.53040312  0.53514540
Direct configuration=     2
   0.00157969  0.00080266  0.50083077
   0.00020570  0.14261974  0.49820883
   0.00017121  0.28572355  0.49756820
   0.00080073  0.42894130  0.49916205
   0.00128422  0.57210511  0.50114831
   0.00237160  0.71530174  0.50328551
   0.00339995  0.85913211  0.50308973
   0.14549098  0.00254744  0.49220212
   0.14401871  0.14434819  0.48716027
   0.14180989  0.28545878  0.48286823
   0.14281596  0.42909558  0.48303024
   0.14409968  0.57190196  0.48797137
   0.14442974  0.71521279  0.49157338
   0.14508884  0.85892765  0.49377971
   0.28804912  0.00281461  0.48964318
   0.28837019  0.14680153  0.48270923
   0.28580222  0.29090218  0.46579387
   0.28137837  0.42388468  0.45427177
   0.28694925  0.57171343  0.46257435
   0.28653388  0.71538064  0.48006554
   0.28693864  0.85889190  0.48834911
   0.43017787  0.00150836  0.49283479
   0.43151417  0.14633353  0.49155477
   0.43000400  0.28541802  0.47414341
   0.42873969  0.85737166  0.48728359
   0.57194043  0.99925311  0.49772933
   0.57287349  0.14330274  0.50047269
   0.57731043  0.29052580  0.50175172
   0.56990751  0.85388263  0.49682078
   0.71390026  0.99748530  0.50543011
   0.71500212  0.14195660  0.50514699
   0.71588965  0.28571110  0.50891052
   0.71248689  0.42572555  0.51741666
   0.72188402  0.57684385  0.53780317
   0.71406794  0.85377740  0.51342992
   0.85747004  0.99898974  0.50792524
   0.85722140  0.14195547  0.50517034
   0.85791843  0.28547305  0.50628349
   0.85847499  0.42890642  0.50975023
   0.85825617  0.57193945  0.51435113
   0.86183077  0.71659189  0.51688881
   0.85980552  0.85738541  0.51321822
   0.04881559  0.09601118  0.49548741
   0.04705400  0.23766112  0.49355963
   0.04794144  0.38126889  0.49390939
   0.04889109  0.52431760  0.49640674
   0.04935818  0.66751399  0.49851782
   0.05006121  0.81084061  0.49983980
   0.05017073  0.95414103  0.49852481
   0.19274569  0.09769154  0.48674932
   0.19036052  0.23922953  0.47894596
   0.18838829  0.38014521  0.47508367
   0.19177118  0.52450113  0.47949603
   0.19149923  0.66743341  0.48582200
   0.19210382  0.81090492  0.49067020
   0.19286669  0.95453803  0.49138986
   0.33605150  0.09891280  0.48767182
   0.33596855  0.24262295  0.47290518
   0.32508202  0.51906327  0.43932038
   0.33703725  0.67055676  0.47023971
   0.33395076  0.81051095  0.48472744
   0.33489231  0.95431743  0.49016460
   0.47796850  0.09693741  0.49574713
   0.48009682  0.24229774  0.48984579
   0.47257599  0.80564418  0.48557139
   0.47702527  0.95283356  0.49284651
   0.61970716  0.09465531  0.50160040
   0.62113019  0.23881799  0.50441977
   0.62021977  0.81028476  0.50694561
   0.61843188  0.94989329  0.50009993
   0.76190644  0.09357329  0.50572577
   0.76298462  0.23737974  0.50740278
   0.76325881  0.38085453  0.51271489
   0.76209432  0.52448355  0.52421595
   0.76758528  0.67235532  0.52932294
   0.76377132  0.80529484  0.52020567
   0.76175067  0.94981905  0.50930076
   0.90480868  0.09417867  0.50426323
   0.90506789  0.23756562  0.50363626
   0.90565440  0.38117792  0.50557821
   0.90598163  0.52449851  0.50827802
   0.90731338  0.66741728  0.51181235
   0.90856461  0.81131401  0.51121870
   0.90623847  0.95238206  0.50754905
   0.47633917  0.37362290  0.45827763
   0.40356492  0.55777235  0.39659458
   0.63529734  0.53721242  0.55944352
   0.57479545  0.72098304  0.51029892
   0.42671783  0.71592106  0.47359081
   0.72078298  0.71623983  0.53095024
   0.32737353  0.37914353  0.44919259
   0.62297166  0.38044612  0.51099575
   0.53482059  0.57962935  0.51929074
   0.46250673  0.48352234  0.49150566
   0.47630588  0.53034971  0.53559863
Direct configuration=     3
   0.00156980  0.00079781  0.50084221
   0.00020235  0.14261925  0.49821933
   0.00017034  0.28572575  0.49757662
   0.00080102  0.42894193  0.49916973
   0.00128260  0.57210037  0.50115051
   0.00236500  0.71529894  0.50329072
   0.00339132  0.85912702  0.50309694
   0.14548397  0.00254160  0.49221721
   0.14401588  0.14434716  0.48717956
   0.14181031  0.28546220  0.48288676
   0.14281691  0.42909934  0.48304944
   0.14409816  0.57189814  0.48799311
   0.14442742  0.71520558  0.49158529
   0.14508553  0.85892514  0.49379505
   0.28804931  0.00281290  0.48965669
   0.28836878  0.14679744  0.48272482
   0.28580555  0.29090553  0.46581597
   0.28138159  0.42389072  0.45429641
   0.28694881  0.57171446  0.46260018
   0.28653282  0.71537882  0.48009120
   0.28693914  0.85889190  0.48837392
   0.43017625  0.00150738  0.49285595
   0.43151563  0.14632956  0.49156594
   0.43000529  0.28541886  0.47415198
   0.42873820  0.85737256  0.48730442
   0.57193779  0.99925398  0.49774234
   0.57286910  0.14329887  0.50048166
   0.57730844  0.29052341  0.50175244
   0.56990633  0.85388384  0.49683940
   0.71389857  0.99748594  0.50543376
   0.71499885  0.14195576  0.50515141
   0.71588683  0.28570904  0.50890833
   0.71248481  0.42572273  0.51741357
   0.72188560  0.57684322  0.53779460
   0.71406773  0.85377679  0.51343877
   0.85746537  0.99898742  0.50793011
   0.85721829  0.14195484  0.50517258
   0.85791611  0.28547382  0.50628587
   0.85847360  0.42890505  0.50974822
   0.85825573  0.57193826  0.51434528
   0.86182643  0.71659104  0.51689007
   0.85980018  0.85738218  0.51322398
   0.04882147  0.09601380  0.49550156
   0.04705751  0.23766283  0.49357185
   0.04794094  0.38126678  0.49391881
   0.04889186  0.52432231  0.49641439
   0.04935892  0.66751570  0.49852256
   0.05006579  0.81084324  0.49985051
   0.05017483  0.95414458  0.49853620
   0.19274403  0.09769146  0.48676667
   0.19036335  0.23923056  0.47896704
   0.18839347  0.38014653  0.47510381
   0.19177117  0.52450138  0.47952126
   0.19149529  0.66743616  0.48584051
   0.19209950  0.81090480  0.49069027
   0.19286251  0.95453837  0.49140535
   0.33604622  0.09891231  0.48768639
   0.33596345  0.24262054  0.47292187
   0.32508284  0.51906437  0.43934993
   0.33703662  0.67055834  0.47027196
   0.33394536  0.81051001  0.48475310
   0.33488431  0.95431581  0.49018501
   0.47796534  0.09693707  0.49576100
   0.48009275  0.24229659  0.48985048
   0.47257398  0.80564548  0.48559559
   0.47702219  0.95283057  0.49286466
   0.61970600  0.09465681  0.50160885
   0.62112968  0.23882077  0.50442070
   0.62021527  0.81028377  0.50696451
   0.61843178  0.94989424  0.50011116
   0.76190689  0.09357519  0.50572817
   0.76298481  0.23738175  0.50740372
   0.76325834  0.38085534  0.51271178
   0.76209645  0.52448137  0.52420377
   0.76758454  0.67235262  0.52932079
   0.76377003  0.80529385  0.52021022
   0.76175003  0.94982019  0.50930516
   0.90481095  0.09418151  0.50426825
   0.90506825  0.23756628  0.50364044
   0.90565265  0.38117818  0.50558113
   0.90598251  0.52449845  0.50827588
   0.90731562  0.66741638  0.51181201
   0.90856736  0.81131511  0.51122314
   0.90624309  0.95238669  0.50755532
   0.47633697  0.37361947  0.45828324
   0.40358110  0.55777949  0.39663005
   0.63530893  0.53720812  0.55944974
   0.57479428  0.72098615  0.51033108
   0.42671640  0.71592175  0.47362024
   0.72078141  0.71623912  0.53095196
   0.32737839  0.37914610  0.44922213
   0.62297016  0.38044607  0.51099431
   0.53475898  0.57960329  0.51933398
   0.46253466  0.48368066  0.49169798
   0.47641560  0.53023335  0.53615785
Direct configuration=     4
   0.00155228  0.00078621  0.50085765
   0.00019655  0.14261691  0.49823298
   0.00017036  0.28572932  0.49758590
   0.00080141  0.42894250  0.49917696
   0.00128010  0.57209200  0.50115274
   0.00235367  0.71529483  0.50329858
   0.00337561  0.85911751  0.50310662
   0.14547186  0.00252958  0.49223672
   0.14400941  0.14434318  0.48720400
   0.14180757  0.28546459  0.48290906
   0.14281789  0.42910323  0.48307125
   0.14409936  0.57189416  0.48801697
   0.14442569  0.71519194  0.49159961
   0.14508166  0.85892090  0.49381315
   0.28805265  0.00281015  0.48967351
   0.28836738  0.14678948  0.48274409
   0.28581016  0.29091121  0.46584188
   0.28138442  0.42389701  0.45432545
   0.28694823  0.57171634  0.46262995
   0.28653353  0.71537813  0.48012267
   0.28694324  0.85889534  0.48840238
   0.43017471  0.00150624  0.49288172
   0.43151846  0.14632182  0.49157893
   0.43001165  0.28542299  0.47416169
   0.42873713  0.85737480  0.48733016
   0.57193365  0.99925717  0.49775671
   0.57286192  0.14329135  0.50048959
   0.57730626  0.29051863  0.50175128
   0.56990441  0.85388551  0.49686084
   0.71389517  0.99748683  0.50543757
   0.71499352  0.14195430  0.50515533
   0.71588193  0.28570394  0.50890462
   0.71248286  0.42572049  0.51740616
   0.72188934  0.57684426  0.53777744
   0.71406679  0.85377565  0.51344717
   0.85745777  0.99898246  0.50793572
   0.85721324  0.14195427  0.50517532
   0.85791184  0.28547390  0.50628857
   0.85847318  0.42890294  0.50974540
   0.85825593  0.57193771  0.51433803
   0.86181964  0.71659103  0.51689073
   0.85979050  0.85737540  0.51322962
   0.04883222  0.09602271  0.49551897
   0.04706474  0.23766637  0.49358689
   0.04793949  0.38126241  0.49392879
   0.04889124  0.52432893  0.49642485
   0.04936179  0.66752100  0.49852806
   0.05007375  0.81084639  0.49986299
   0.05018503  0.95415369  0.49855044
   0.19274523  0.09769581  0.48678786
   0.19036972  0.23923224  0.47899151
   0.18840230  0.38014941  0.47512464
   0.19177335  0.52450296  0.47955199
   0.19148976  0.66744347  0.48586451
   0.19209155  0.81090429  0.49071584
   0.19285658  0.95454102  0.49142395
   0.33603772  0.09891369  0.48770302
   0.33595753  0.24261923  0.47293967
   0.32507935  0.51906233  0.43938622
   0.33703566  0.67056089  0.47031031
   0.33393666  0.81050798  0.48478480
   0.33487303  0.95431177  0.49021056
   0.47796121  0.09693773  0.49577738
   0.48008652  0.24229829  0.48985409
   0.47257355  0.80564811  0.48562318
   0.47701858  0.95282656  0.49288684
   0.61970623  0.09465840  0.50161915
   0.62113019  0.23882639  0.50442081
   0.62021308  0.81028672  0.50698468
   0.61843242  0.94989471  0.50012381
   0.76190961  0.09357769  0.50573074
   0.76298687  0.23738547  0.50740461
   0.76325817  0.38085752  0.51270641
   0.76209878  0.52447768  0.52418516
   0.76758434  0.67234759  0.52931332
   0.76376899  0.80529369  0.52021347
   0.76175197  0.94982260  0.50930889
   0.90481616  0.09418669  0.50427416
   0.90506970  0.23756714  0.50364562
   0.90565073  0.38117886  0.50558477
   0.90598383  0.52449925  0.50827299
   0.90732167  0.66741532  0.51181090
   0.90857476  0.81131815  0.51122811
   0.90625618  0.95239816  0.50756274
   0.47633286  0.37361337  0.45828873
   0.40361171  0.55778729  0.39668194
   0.63531831  0.53719964  0.55944222
   0.57479310  0.72098927  0.51036693
   0.42671451  0.71592198  0.47365375
   0.72077912  0.71623792  0.53094775
   0.32738645  0.37915042  0.44925452
   0.62296938  0.38044686  0.51098883
   0.53461749  0.57953331  0.51944321
   0.46255115  0.48391742  0.49202775
   0.47659931  0.53007527  0.53678446
Direct configuration=     5
   0.00155725  0.00078853  0.50087415
   0.00020024  0.14261851  0.49824993
   0.00017191  0.28572967  0.49759728
   0.00080101  0.42894308  0.49918483
   0.00127885  0.57209152  0.50115566
   0.00235501  0.71529308  0.50330595
   0.00337367  0.85911600  0.50311834
   0.14546634  0.00252618  0.49226160
   0.14400983  0.14434319  0.48723475
   0.14181028  0.28546487  0.48293551
   0.14282090  0.42910330  0.48309812
   0.14410268  0.57189729  0.48804542
   0.14442217  0.71518675  0.49161925
   0.14508015  0.85892007  0.49383573
   0.28804854  0.00280864  0.48969692
   0.28836134  0.14678633  0.48276778
   0.28581610  0.29091721  0.46587514
   0.28138983  0.42389931  0.45436279
   0.28695071  0.57171930  0.46266822
   0.28653074  0.71538090  0.48016063
   0.28693763  0.85889565  0.48843784
   0.43016807  0.00150249  0.49291460
   0.43151216  0.14631957  0.49159599
   0.43001191  0.28542502  0.47417408
   0.42873178  0.85737185  0.48736191
   0.57193018  0.99925915  0.49777540
   0.57285887  0.14329236  0.50050047
   0.57730305  0.29051684  0.50175085
   0.56990172  0.85388762  0.49688944
   0.71389348  0.99748858  0.50544402
   0.71499198  0.14195559  0.50516020
   0.71587924  0.28570263  0.50890115
   0.71248143  0.42571960  0.51739626
   0.72189254  0.57683983  0.53775982
   0.71406410  0.85377586  0.51345866
   0.85745815  0.99898430  0.50794152
   0.85721242  0.14195631  0.50517951
   0.85791085  0.28547333  0.50629296
   0.85847234  0.42890252  0.50974247
   0.85825787  0.57193641  0.51432919
   0.86181815  0.71658989  0.51689105
   0.85978774  0.85737438  0.51323614
   0.04882891  0.09602549  0.49554174
   0.04706543  0.23766794  0.49360644
   0.04794029  0.38126585  0.49394118
   0.04889053  0.52432697  0.49643854
   0.04935820  0.66751943  0.49853566
   0.05007019  0.81084439  0.49987869
   0.05017862  0.95415067  0.49856902
   0.19274366  0.09769508  0.48681610
   0.19037373  0.23923522  0.47902296
   0.18840694  0.38015501  0.47515176
   0.19177413  0.52450706  0.47958892
   0.19148821  0.66744322  0.48589592
   0.19208685  0.81090022  0.49074784
   0.19285259  0.95454086  0.49144753
   0.33603738  0.09891355  0.48772402
   0.33595964  0.24262059  0.47296031
   0.32507295  0.51906144  0.43943554
   0.33703425  0.67056281  0.47035751
   0.33393221  0.81050669  0.48482593
   0.33487099  0.95431051  0.49024315
   0.47795713  0.09693364  0.49579906
   0.48008290  0.24229580  0.48986126
   0.47257340  0.80565154  0.48565921
   0.47701490  0.95282591  0.49291671
   0.61970362  0.09465805  0.50163285
   0.62112663  0.23882448  0.50442167
   0.62021504  0.81029407  0.50701184
   0.61843067  0.94989660  0.50014051
   0.76190833  0.09357849  0.50573462
   0.76298492  0.23738524  0.50740613
   0.76325475  0.38085468  0.51270079
   0.76210239  0.52447623  0.52416511
   0.76758346  0.67234544  0.52930441
   0.76376671  0.80529204  0.52021928
   0.76175139  0.94982260  0.50931426
   0.90481426  0.09418686  0.50428261
   0.90506852  0.23756813  0.50365263
   0.90565008  0.38117890  0.50558924
   0.90598314  0.52449747  0.50826942
   0.90731949  0.66741400  0.51181068
   0.90857057  0.81131632  0.51123580
   0.90625163  0.95239725  0.50757426
   0.47632565  0.37360666  0.45829305
   0.40365926  0.55779214  0.39677339
   0.63533198  0.53718960  0.55943375
   0.57478663  0.72098956  0.51041458
   0.42671244  0.71592213  0.47369670
   0.72077691  0.71623435  0.53094310
   0.32739895  0.37916243  0.44929489
   0.62296769  0.38044543  0.51098222
   0.53443711  0.57947055  0.51961875
   0.46252167  0.48414710  0.49242996
   0.47686545  0.52991810  0.53751541
Direct configuration=     6
   0.00157225  0.00080053  0.50089100
   0.00020685  0.14262354  0.49827218
   0.00017324  0.28572881  0.49761235
   0.00079913  0.42894330  0.49919477
   0.00127794  0.57209647  0.50116003
   0.00236308  0.71529350  0.50331353
   0.00338077  0.85912001  0.50313342
   0.14546897  0.00253382  0.49229249
   0.14401497  0.14434453  0.48727211
   0.14181766  0.28546600  0.48296945
   0.14282535  0.42910370  0.48313340
   0.14410409  0.57190451  0.48808145
   0.14441636  0.71519143  0.49164686
   0.14507855  0.85892168  0.49386327
   0.28803855  0.00280927  0.48973027
   0.28835494  0.14679065  0.48279932
   0.28582536  0.29092553  0.46591876
   0.28139669  0.42390019  0.45441546
   0.28695173  0.57172339  0.46271951
   0.28652233  0.71538263  0.48020996
   0.28692363  0.85889141  0.48848403
   0.43015856  0.00149751  0.49295614
   0.43150316  0.14632073  0.49162045
   0.43000791  0.28542471  0.47419176
   0.42872310  0.85736493  0.48740383
   0.57192674  0.99925846  0.49780198
   0.57285632  0.14329478  0.50051583
   0.57729863  0.29051806  0.50175466
   0.56989955  0.85388973  0.49692765
   0.71389360  0.99749002  0.50545577
   0.71499293  0.14195816  0.50516764
   0.71587788  0.28570443  0.50889966
   0.71247977  0.42571922  0.51738691
   0.72189380  0.57682974  0.53775249
   0.71406166  0.85377805  0.51347823
   0.85746367  0.99899108  0.50794953
   0.85721451  0.14195922  0.50518632
   0.85791211  0.28547307  0.50629956
   0.85846909  0.42890218  0.50974008
   0.85825989  0.57193439  0.51431902
   0.86182065  0.71658750  0.51689251
   0.85979051  0.85737881  0.51324620
   0.04881755  0.09601973  0.49557159
   0.04706158  0.23766779  0.49363216
   0.04794202  0.38127287  0.49395851
   0.04889219  0.52432209  0.49645578
   0.04934949  0.66751016  0.49854592
   0.05005742  0.81083846  0.49989776
   0.05016003  0.95413746  0.49859294
   0.19273646  0.09768722  0.48685132
   0.19037623  0.23923938  0.47906303
   0.18840416  0.38015678  0.47518899
   0.19177317  0.52451040  0.47963349
   0.19149006  0.66743664  0.48593728
   0.19208546  0.81089379  0.49078582
   0.19284972  0.95453661  0.49147828
   0.33603825  0.09890888  0.48775104
   0.33596394  0.24262083  0.47298778
   0.32506946  0.51906139  0.43950568
   0.33703247  0.67056544  0.47041880
   0.33393411  0.81050932  0.48487589
   0.33487315  0.95431113  0.49028584
   0.47795156  0.09692683  0.49582907
   0.48008173  0.24228886  0.48987603
   0.47257505  0.80565754  0.48570742
   0.47700954  0.95282705  0.49295784
   0.61969798  0.09465745  0.50165173
   0.62111939  0.23881685  0.50442577
   0.62021584  0.81030098  0.50705294
   0.61842563  0.94990020  0.50016467
   0.76190304  0.09357843  0.50574115
   0.76297894  0.23738164  0.50740918
   0.76324907  0.38084829  0.51269623
   0.76210779  0.52447653  0.52414767
   0.76758161  0.67234582  0.52929978
   0.76376210  0.80528769  0.52023225
   0.76174708  0.94982135  0.50932401
   0.90480762  0.09418435  0.50429449
   0.90506574  0.23756930  0.50366204
   0.90564961  0.38117759  0.50559309
   0.90598079  0.52449355  0.50826497
   0.90731156  0.66741281  0.51181142
   0.90855668  0.81131039  0.51124682
   0.90623857  0.95238702  0.50759094
   0.47631399  0.37359873  0.45829906
   0.40372465  0.55779261  0.39693310
   0.63536030  0.53717997  0.55944479
   0.57477831  0.72099138  0.51048329
   0.42670977  0.71592240  0.47375553
   0.72077560  0.71622992  0.53094544
   0.32741616  0.37918116  0.44935150
   0.62296463  0.38044204  0.51097863
   0.53430227  0.57950117  0.51983820
   0.46241941  0.48429035  0.49283190
   0.47718116  0.52977199  0.53838764
Direct configuration=     7
   0.00156873  0.00080202  0.50091437
   0.00020317  0.14262606  0.49830468
   0.00017238  0.28573207  0.49763414
   0.00079696  0.42894293  0.49920869
   0.00127488  0.57209369  0.50116684
   0.00235687  0.71529190  0.50332508
   0.00337324  0.85911585  0.50315657
   0.14546616  0.00253583  0.49233365
   0.14401589  0.14434564  0.48732275
   0.14182101  0.28546899  0.48301838
   0.14282878  0.42910992  0.48318363
   0.14410133  0.57190631  0.48813124
   0.14441012  0.71519326  0.49168771
   0.14507146  0.85891873  0.49389936
   0.28803211  0.00280924  0.48978023
   0.28835460  0.14679498  0.48284503
   0.28584024  0.29093650  0.46597751
   0.28139696  0.42390735  0.45449197
   0.28695249  0.57173176  0.46279310
   0.28651572  0.71538304  0.48028060
   0.28691558  0.85888704  0.48854923
   0.43015166  0.00149369  0.49301395
   0.43149920  0.14631938  0.49165593
   0.43000782  0.28542499  0.47421640
   0.42871874  0.85736346  0.48746595
   0.57191974  0.99925656  0.49784217
   0.57284913  0.14329075  0.50053919
   0.57729380  0.29051627  0.50176437
   0.56989937  0.85389326  0.49698036
   0.71389117  0.99749007  0.50547531
   0.71498906  0.14195748  0.50517904
   0.71587190  0.28570110  0.50890003
   0.71247702  0.42571728  0.51737696
   0.72190009  0.57682159  0.53775684
   0.71406036  0.85378004  0.51351092
   0.85746326  0.99899236  0.50796241
   0.85721091  0.14195931  0.50519543
   0.85790904  0.28547329  0.50630782
   0.85846272  0.42889760  0.50973735
   0.85826007  0.57193240  0.51430541
   0.86181799  0.71658478  0.51689601
   0.85978700  0.85737869  0.51326355
   0.04881707  0.09601795  0.49561165
   0.04706309  0.23766900  0.49366567
   0.04793997  0.38127004  0.49398540
   0.04889324  0.52432265  0.49647967
   0.04934395  0.66750266  0.49856019
   0.05005078  0.81083448  0.49992150
   0.05015317  0.95413195  0.49862406
   0.19272922  0.09768178  0.48689932
   0.19038375  0.23924404  0.47911800
   0.18840078  0.38015246  0.47524085
   0.19177283  0.52450884  0.47969045
   0.19148813  0.66743552  0.48599655
   0.19207907  0.81088940  0.49083579
   0.19284385  0.95453207  0.49152196
   0.33602978  0.09890535  0.48778558
   0.33596170  0.24261860  0.47302896
   0.32507020  0.51905868  0.43960806
   0.33702582  0.67056884  0.47049751
   0.33393024  0.81051195  0.48494315
   0.33486408  0.95430920  0.49034617
   0.47794211  0.09692593  0.49587171
   0.48007851  0.24228261  0.48990085
   0.47257598  0.80566208  0.48577519
   0.47700004  0.95282430  0.49301721
   0.61969260  0.09465850  0.50167857
   0.62111255  0.23881278  0.50443462
   0.62021101  0.81030466  0.50711614
   0.61842023  0.94990406  0.50020122
   0.76189993  0.09357997  0.50575170
   0.76297463  0.23738031  0.50741425
   0.76324744  0.38084496  0.51269095
   0.76211615  0.52447478  0.52413094
   0.76758042  0.67234256  0.52930032
   0.76375678  0.80528331  0.52025482
   0.76174390  0.94982358  0.50934048
   0.90480708  0.09418734  0.50431106
   0.90506541  0.23757041  0.50367493
   0.90564653  0.38117525  0.50559660
   0.90597899  0.52449162  0.50825990
   0.90731106  0.66741182  0.51181116
   0.90854939  0.81130708  0.51126097
   0.90624041  0.95238790  0.50761280
   0.47629482  0.37358767  0.45830858
   0.40382388  0.55779455  0.39720941
   0.63540835  0.53716706  0.55948546
   0.57477252  0.72099616  0.51058229
   0.42670688  0.71592395  0.47384107
   0.72077449  0.71622617  0.53095707
   0.32744168  0.37920529  0.44943774
   0.62296141  0.38044008  0.51097819
   0.53423328  0.57967543  0.52013405
   0.46221852  0.48436168  0.49330652
   0.47755015  0.52957156  0.53945407
Direct configuration=     8
   0.00154623  0.00078699  0.50094827
   0.00019374  0.14262436  0.49834934
   0.00016800  0.28573383  0.49766258
   0.00079600  0.42894063  0.49922806
   0.00126995  0.57208000  0.50117762
   0.00234160  0.71528026  0.50333738
   0.00335005  0.85910302  0.50318979
   0.14544836  0.00252323  0.49238667
   0.14401129  0.14434787  0.48738706
   0.14181707  0.28546819  0.48308576
   0.14282757  0.42911378  0.48324833
   0.14409785  0.57189931  0.48819687
   0.14441142  0.71518992  0.49173648
   0.14505913  0.85891010  0.49394770
   0.28802954  0.00280601  0.48984991
   0.28835390  0.14679054  0.48290663
   0.28586028  0.29095236  0.46605490
   0.28139069  0.42391458  0.45459192
   0.28695561  0.57174129  0.46288653
   0.28651469  0.71538561  0.48037293
   0.28691776  0.85888751  0.48863771
   0.43014438  0.00149328  0.49309195
   0.43149642  0.14631032  0.49170147
   0.43001363  0.28542634  0.47424813
   0.42871841  0.85737153  0.48755159
   0.57190966  0.99925752  0.49789696
   0.57283853  0.14328154  0.50057104
   0.57729065  0.29050955  0.50177994
   0.56989856  0.85390170  0.49704589
   0.71388482  0.99749153  0.50550132
   0.71497886  0.14195365  0.50519527
   0.71586169  0.28569127  0.50890198
   0.71247498  0.42571322  0.51736399
   0.72192121  0.57682077  0.53776823
   0.71405794  0.85377865  0.51355605
   0.85745472  0.99898543  0.50797964
   0.85720230  0.14195808  0.50520775
   0.85790141  0.28547226  0.50631715
   0.85845809  0.42889144  0.50973306
   0.85826127  0.57193086  0.51428645
   0.86180810  0.71658206  0.51690065
   0.85977541  0.85737148  0.51328995
   0.04882902  0.09602819  0.49566375
   0.04707031  0.23767354  0.49370993
   0.04793871  0.38126931  0.49401946
   0.04888943  0.52432763  0.49651219
   0.04934216  0.66750516  0.49858083
   0.05005798  0.81083954  0.49995140
   0.05016418  0.95414138  0.49866385
   0.19273168  0.09768902  0.48696282
   0.19040072  0.23925913  0.47918334
   0.18839957  0.38014936  0.47530987
   0.19177135  0.52450699  0.47975690
   0.19147771  0.66744456  0.48607768
   0.19206609  0.81089119  0.49090092
   0.19283141  0.95453173  0.49158108
   0.33601527  0.09890842  0.48783162
   0.33595576  0.24261707  0.47308742
   0.32506532  0.51905550  0.43976346
   0.33702215  0.67057065  0.47059307
   0.33391563  0.81050851  0.48502791
   0.33484358  0.95430186  0.49042572
   0.47792576  0.09692200  0.49592495
   0.48007272  0.24228268  0.48993570
   0.47257181  0.80566234  0.48586398
   0.47698573  0.95281723  0.49309044
   0.61969059  0.09465978  0.50171336
   0.62110828  0.23881509  0.50444844
   0.62020840  0.81031330  0.50719709
   0.61841954  0.94990165  0.50024808
   0.76190092  0.09358200  0.50576460
   0.76297315  0.23738242  0.50742144
   0.76324595  0.38084425  0.51268327
   0.76212801  0.52446832  0.52411389
   0.76758214  0.67233435  0.52930390
   0.76375532  0.80528436  0.52028360
   0.76174534  0.94982890  0.50936486
   0.90481062  0.09419406  0.50433344
   0.90506697  0.23757179  0.50368967
   0.90564064  0.38117358  0.50559993
   0.90597757  0.52449015  0.50825320
   0.90731733  0.66741064  0.51180917
   0.90855331  0.81130886  0.51127622
   0.90625408  0.95240211  0.50763982
   0.47626583  0.37357030  0.45832241
   0.40397883  0.55779783  0.39764269
   0.63545483  0.53713168  0.55955638
   0.57476728  0.72099373  0.51070841
   0.42670122  0.71592611  0.47395371
   0.72077264  0.71622141  0.53097547
   0.32747300  0.37923521  0.44956065
   0.62295984  0.38044153  0.51097782
   0.53414612  0.57993722  0.52057093
   0.46191594  0.48441777  0.49396813
   0.47801703  0.52931499  0.54062893
Direct configuration=     9
   0.00155787  0.00079468  0.50099445
   0.00020235  0.14262613  0.49840497
   0.00017026  0.28573215  0.49769916
   0.00079283  0.42893943  0.49925479
   0.00126817  0.57208171  0.50119461
   0.00234680  0.71527925  0.50334956
   0.00336863  0.85911433  0.50322785
   0.14544817  0.00253043  0.49245388
   0.14402067  0.14436120  0.48745958
   0.14182173  0.28546678  0.48317316
   0.14282778  0.42910842  0.48332802
   0.14409757  0.57190128  0.48828083
   0.14440203  0.71519786  0.49179696
   0.14505429  0.85891432  0.49401342
   0.28801005  0.00280367  0.48994238
   0.28834177  0.14679604  0.48298219