 running  100 mpi-ranks, on    2 nodes
 each image running on   20 cores
 distrk:  each k-point on   20 cores,    1 groups
 distr:  one band on    1 cores,   20 groups
 vasp.6.4.2 20Jul23 (build Aug 26 2025 15:10:52) complex                        
  
 POSCAR found type information on POSCAR C N H O 
 01/POSCAR found :  4 types and      91 ions
 Reading from existing POTCAR
 scaLAPACK will be used
 -----------------------------------------------------------------------------
|                                                                             |
|           W    W    AA    RRRRR   N    N  II  N    N   GGGG   !!!           |
|           W    W   A  A   R    R  NN   N  II  NN   N  G    G  !!!           |
|           W    W  A    A  R    R  N N  N  II  N N  N  G       !!!           |
|           W WW W  AAAAAA  RRRRR   N  N N  II  N  N N  G  GGG   !            |
|           WW  WW  A    A  R   R   N   NN  II  N   NN  G    G                |
|           W    W  A    A  R    R  N    N  II  N    N   GGGG   !!!           |
|                                                                             |
|     For optimal performance we recommend to set                             |
|       NCORE = 2 up to number-of-cores-per-socket                            |
|     NCORE specifies how many cores store one orbital (NPAR=cpu/NCORE).      |
|     This setting can greatly improve the performance of VASP for DFT.       |
|     The default, NCORE=1 might be grossly inefficient on modern             |
|     multi-core architectures or massively parallel machines. Do your        |
|     own testing! More info at https://www.vasp.at/wiki/index.php/NCORE      |
|     Unfortunately you need to use the default for GW and RPA                |
|     calculations (for HF NCORE is supported but not extensively tested      |
|     yet).                                                                   |
|                                                                             |
 -----------------------------------------------------------------------------

 Reading from existing POTCAR
 LDA part: xc-table for Pade appr. of Perdew
 POSCAR found type information on POSCAR C N H O 
 00/POSCAR found :  4 types and      91 ions
 POSCAR found type information on POSCAR C N H O 
 06/POSCAR found :  4 types and      91 ions
 Jacobian:    33.3114207805426     
 POSCAR found type information on POSCAR C N H O 
 00/POSCAR found :  4 types and      91 ions
 POSCAR found type information on POSCAR C N H O 
 06/POSCAR found :  4 types and      91 ions
 POSCAR, INCAR and KPOINTS ok, starting setup
 FFT: planning ... GRIDC
 FFT: planning ... GRID_SOFT
 FFT: planning ... GRID
 WAVECAR not read
 entering main loop
       N       E                     dE             d eps       ncg     rms          rms(c)
DAV:   1     0.349865838879E+04    0.34987E+04   -0.13772E+05  4060   0.116E+03
DAV:   2    -0.165856243984E+03   -0.36645E+04   -0.34889E+04  5760   0.279E+02
DAV:   3    -0.841592911272E+03   -0.67574E+03   -0.67286E+03  4640   0.127E+02
DAV:   4    -0.865606854162E+03   -0.24014E+02   -0.23896E+02  4680   0.312E+01
DAV:   5    -0.866334349501E+03   -0.72750E+00   -0.72630E+00  5480   0.451E+00    0.428E+01
DAV:   6    -0.837612055447E+03    0.28722E+02   -0.20137E+01  4420   0.782E+00    0.323E+01
DAV:   7    -0.813783026088E+03    0.23829E+02   -0.79622E+01  4460   0.146E+01    0.164E+01
DAV:   8    -0.813408016408E+03    0.37501E+00   -0.33070E+01  4500   0.455E+00    0.112E+01
DAV:   9    -0.813940819919E+03   -0.53280E+00   -0.40461E+00  4580   0.365E+00    0.661E+00
DAV:  10    -0.813240486178E+03    0.70033E+00   -0.98059E-01  4840   0.205E+00    0.347E+00
DAV:  11    -0.812908934917E+03    0.33155E+00   -0.86078E-01  4360   0.156E+00    0.134E+00
DAV:  12    -0.812862352182E+03    0.46583E-01   -0.88375E-02  4540   0.566E-01    0.107E+00
DAV:  13    -0.812789452599E+03    0.72900E-01   -0.91116E-02  5080   0.605E-01    0.552E-01
DAV:  14    -0.812773989671E+03    0.15463E-01   -0.40650E-02  4600   0.313E-01    0.257E-01
DAV:  15    -0.812770826869E+03    0.31628E-02   -0.14483E-02  4600   0.168E-01    0.103E-01
DAV:  16    -0.812771049171E+03   -0.22230E-03   -0.21298E-03  4240   0.699E-02    0.793E-02
DAV:  17    -0.812771281833E+03   -0.23266E-03   -0.26347E-03  4300   0.540E-02    0.162E-01
DAV:  18    -0.812771338749E+03   -0.56916E-04   -0.59423E-03  4400   0.645E-02    0.103E-01
DAV:  19    -0.812771128653E+03    0.21010E-03   -0.24765E-04  4240   0.190E-02    0.822E-02
DAV:  20    -0.812770928873E+03    0.19978E-03   -0.43209E-04  4500   0.188E-02    0.274E-02
DAV:  21    -0.812770913699E+03    0.15174E-04   -0.74745E-05  4320   0.997E-03    0.676E-03
DAV:  22    -0.812770915432E+03   -0.17327E-05   -0.44815E-06  3640   0.347E-03    0.555E-03
DAV:  23    -0.812770915103E+03    0.32896E-06   -0.13574E-06  3280   0.161E-03
   1 F= -.82013395E+03 E0= -.82013336E+03  d E =-.820134E+03  mag=     0.0000
quench:  g(F)=  0.000E+00 g(S)=  0.000E+00 dE (1.order)= 0.000E+00
 reached required accuracy - stopping structural energy minimisation
