  99  99   0   0
  0.3914025E+02  0.1727104E-08  0.1727104E-08  0.1500000E-08  0.0000000E+00
  1.000000000000000E-004
  CAR 
 unknown system                          
      6.06214940    -31.02744911  301     -2.32973069      1.00000000
    -31.027  0.0000E+00  0.0000E+00  0.0000E+00  0.0000E+00
    -30.904  0.0000E+00  0.0000E+00  0.0000E+00  0.0000E+00
    -30.780  0.0000E+00  0.0000E+00  0.0000E+00  0.0000E+00
    -30.657  0.0000E+00  0.0000E+00  0.0000E+00  0.0000E+00
    -30.533  0.0000E+00  0.0000E+00  0.0000E+00  0.0000E+00
    -30.409  0.0000E+00  0.0000E+00  0.0000E+00  0.0000E+00
    -30.286  0.0000E+00  0.0000E+00  0.0000E+00  0.0000E+00
    -30.162  0.0000E+00  0.0000E+00  0.0000E+00  0.0000E+00
    -30.038  0.0000E+00  0.0000E+00  0.0000E+00  0.0000E+00
    -29.915  0.0000E+00  0.0000E+00  0.0000E+00  0.0000E+00
    -29.791  0.0000E+00  0.0000E+00  0.0000E+00  0.0000E+00
    -29.667  0.0000E+00  0.0000E+00  0.0000E+00  0.0000E+00
    -29.544  0.4239E-10  0.4239E-10  0.5240E-11  0.5240E-11
    -29.420  0.1052E-03  0.1052E-03  0.1301E-04  0.1301E-04
    -29.297  0.7159E-02  0.7159E-02  0.8981E-03  0.8981E-03
    -29.173  0.8240E-03  0.8240E-03  0.1000E-02  0.1000E-02
    -29.049  0.7534E-08  0.7534E-08  0.1000E-02  0.1000E-02
    -28.926  0.0000E+00  0.0000E+00  0.1000E-02  0.1000E-02
    -28.802  0.0000E+00  0.0000E+00  0.1000E-02  0.1000E-02
    -28.678  0.0000E+00  0.0000E+00  0.1000E-02  0.1000E-02
    -28.555  0.0000E+00  0.0000E+00  0.1000E-02  0.1000E-02
    -28.431  0.0000E+00  0.0000E+00  0.1000E-02  0.1000E-02
    -28.308  0.0000E+00  0.0000E+00  0.1000E-02  0.1000E-02
    -28.184  0.0000E+00  0.0000E+00  0.1000E-02  0.1000E-02
    -28.060  0.0000E+00  0.0000E+00  0.1000E-02  0.1000E-02
    -27.937  0.0000E+00  0.0000E+00  0.1000E-02  0.1000E-02
    -27.813  0.0000E+00  0.0000E+00  0.1000E-02  0.1000E-02
    -27.689  0.0000E+00  0.0000E+00  0.1000E-02  0.1000E-02
    -27.566  0.0000E+00  0.0000E+00  0.1000E-02  0.1000E-02
    -27.442  0.0000E+00  0.0000E+00  0.1000E-02  0.1000E-02
    -27.318  0.0000E+00  0.0000E+00  0.1000E-02  0.1000E-02
    -27.195  0.0000E+00  0.0000E+00  0.1000E-02  0.1000E-02
    -27.071  0.0000E+00  0.0000E+00  0.1000E-02  0.1000E-02
    -26.948  0.0000E+00  0.0000E+00  0.1000E-02  0.1000E-02
    -26.824  0.0000E+00  0.0000E+00  0.1000E-02  0.1000E-02
    -26.700  0.0000E+00  0.0000E+00  0.1000E-02  0.1000E-02
    -26.577  0.0000E+00  0.0000E+00  0.1000E-02  0.1000E-02
    -26.453  0.0000E+00  0.0000E+00  0.1000E-02  0.1000E-02
    -26.329  0.0000E+00  0.0000E+00  0.1000E-02  0.1000E-02
    -26.206  0.0000E+00  0.0000E+00  0.1000E-02  0.1000E-02
    -26.082  0.0000E+00  0.0000E+00  0.1000E-02  0.1000E-02
    -25.959  0.0000E+00  0.0000E+00  0.1000E-02  0.1000E-02
    -25.835  0.0000E+00  0.0000E+00  0.1000E-02  0.1000E-02
    -25.711  0.0000E+00  0.0000E+00  0.1000E-02  0.1000E-02
    -25.588  0.0000E+00  0.0000E+00  0.1000E-02  0.1000E-02
    -25.464  0.0000E+00  0.0000E+00  0.1000E-02  0.1000E-02
    -25.340  0.0000E+00  0.0000E+00  0.1000E-02  0.1000E-02
    -25.217  0.0000E+00  0.0000E+00  0.1000E-02  0.1000E-02
    -25.093  0.0000E+00  0.0000E+00  0.1000E-02  0.1000E-02
    -24.969  0.0000E+00  0.0000E+00  0.1000E-02  0.1000E-02
    -24.846  0.0000E+00  0.0000E+00  0.1000E-02  0.1000E-02
    -24.722  0.0000E+00  0.0000E+00  0.1000E-02  0.1000E-02
    -24.599  0.0000E+00  0.0000E+00  0.1000E-02  0.1000E-02
    -24.475  0.0000E+00  0.0000E+00  0.1000E-02  0.1000E-02
    -24.351  0.1013E-12  0.1013E-12  0.1000E-02  0.1000E-02
    -24.228  0.6035E-05  0.6035E-05  0.1001E-02  0.1001E-02
    -24.104  0.5056E-02  0.5056E-02  0.1626E-02  0.1626E-02
    -23.980  0.3026E-02  0.3026E-02  0.2000E-02  0.2000E-02
    -23.857  0.5452E-06  0.5452E-06  0.2000E-02  0.2000E-02
    -23.733  0.1046E-14  0.1046E-14  0.2000E-02  0.2000E-02
    -23.610  0.0000E+00  0.0000E+00  0.2000E-02  0.2000E-02
    -23.486  0.0000E+00  0.0000E+00  0.2000E-02  0.2000E-02
    -23.362  0.0000E+00  0.0000E+00  0.2000E-02  0.2000E-02
    -23.239  0.0000E+00  0.0000E+00  0.2000E-02  0.2000E-02
    -23.115  0.0000E+00  0.0000E+00  0.2000E-02  0.2000E-02
    -22.991  0.0000E+00  0.0000E+00  0.2000E-02  0.2000E-02
    -22.868  0.0000E+00  0.0000E+00  0.2000E-02  0.2000E-02
    -22.744  0.0000E+00  0.0000E+00  0.2000E-02  0.2000E-02
    -22.620  0.0000E+00  0.0000E+00  0.2000E-02  0.2000E-02
    -22.497  0.0000E+00  0.0000E+00  0.2000E-02  0.2000E-02
    -22.373  0.0000E+00  0.0000E+00  0.2000E-02  0.2000E-02
    -22.250  0.0000E+00  0.0000E+00  0.2000E-02  0.2000E-02
    -22.126  0.0000E+00  0.0000E+00  0.2000E-02  0.2000E-02
    -22.002  0.2750E-16  0.2750E-16  0.2000E-02  0.2000E-02
    -21.879  0.3929E-07  0.3929E-07  0.2000E-02  0.2000E-02
    -21.755  0.5855E-03  0.5855E-03  0.2072E-02  0.2072E-02
    -21.631  0.7060E-02  0.7060E-02  0.2945E-02  0.2945E-02
    -21.508  0.6372E-02  0.6372E-02  0.3733E-02  0.3733E-02
    -21.384  0.2837E-02  0.2837E-02  0.4084E-02  0.4084E-02
    -21.261  0.1068E-01  0.1068E-01  0.5404E-02  0.5404E-02
    -21.137  0.6817E-02  0.6817E-02  0.6247E-02  0.6247E-02
    -21.013  0.2064E-02  0.2064E-02  0.6502E-02  0.6502E-02
    -20.890  0.8069E-02  0.8069E-02  0.7500E-02  0.7500E-02
    -20.766  0.1192E-01  0.1192E-01  0.8974E-02  0.8974E-02
    -20.642  0.5857E-02  0.5857E-02  0.9698E-02  0.9698E-02
    -20.519  0.7831E-03  0.7831E-03  0.9795E-02  0.9795E-02
    -20.395  0.5643E-02  0.5643E-02  0.1049E-01  0.1049E-01
    -20.271  0.1007E-01  0.1007E-01  0.1174E-01  0.1174E-01
    -20.148  0.1379E-01  0.1379E-01  0.1344E-01  0.1344E-01
    -20.024  0.5598E-02  0.5598E-02  0.1413E-01  0.1413E-01
    -19.901  0.1361E-02  0.1361E-02  0.1430E-01  0.1430E-01
    -19.777  0.6034E-02  0.6034E-02  0.1505E-01  0.1505E-01
    -19.653  0.6928E-02  0.6928E-02  0.1590E-01  0.1590E-01
    -19.530  0.3720E-02  0.3720E-02  0.1636E-01  0.1636E-01
    -19.406  0.1511E-01  0.1511E-01  0.1823E-01  0.1823E-01
    -19.282  0.1084E-01  0.1084E-01  0.1957E-01  0.1957E-01
    -19.159  0.1671E-02  0.1671E-02  0.1978E-01  0.1978E-01
    -19.035  0.6579E-02  0.6579E-02  0.2059E-01  0.2059E-01
    -18.912  0.6897E-02  0.6897E-02  0.2145E-01  0.2145E-01
    -18.788  0.5046E-02  0.5046E-02  0.2207E-01  0.2207E-01
    -18.664  0.4449E-02  0.4449E-02  0.2262E-01  0.2262E-01
    -18.541  0.7195E-02  0.7195E-02  0.2351E-01  0.2351E-01
    -18.417  0.1795E-01  0.1795E-01  0.2573E-01  0.2573E-01
    -18.293  0.4171E-02  0.4171E-02  0.2624E-01  0.2624E-01
    -18.170  0.6426E-02  0.6426E-02  0.2704E-01  0.2704E-01
    -18.046  0.7595E-02  0.7595E-02  0.2798E-01  0.2798E-01
    -17.922  0.7855E-02  0.7855E-02  0.2895E-01  0.2895E-01
    -17.799  0.5395E-02  0.5395E-02  0.2962E-01  0.2962E-01
    -17.675  0.4562E-02  0.4562E-02  0.3018E-01  0.3018E-01
    -17.552  0.3263E-02  0.3263E-02  0.3058E-01  0.3058E-01
    -17.428  0.8983E-02  0.8983E-02  0.3169E-01  0.3169E-01
    -17.304  0.1723E-01  0.1723E-01  0.3382E-01  0.3382E-01
    -17.181  0.7871E-02  0.7871E-02  0.3480E-01  0.3480E-01
    -17.057  0.1101E-01  0.1101E-01  0.3616E-01  0.3616E-01
    -16.933  0.4315E-02  0.4315E-02  0.3669E-01  0.3669E-01
    -16.810  0.8129E-02  0.8129E-02  0.3770E-01  0.3770E-01
    -16.686  0.9435E-02  0.9435E-02  0.3886E-01  0.3886E-01
    -16.563  0.2674E-02  0.2674E-02  0.3919E-01  0.3919E-01
    -16.439  0.6316E-02  0.6316E-02  0.3997E-01  0.3997E-01
    -16.315  0.9037E-02  0.9037E-02  0.4109E-01  0.4109E-01
    -16.192  0.1458E-01  0.1458E-01  0.4289E-01  0.4289E-01
    -16.068  0.7443E-02  0.7443E-02  0.4381E-01  0.4381E-01
    -15.944  0.1631E-02  0.1631E-02  0.4402E-01  0.4402E-01
    -15.821  0.4084E-02  0.4084E-02  0.4452E-01  0.4452E-01
    -15.697  0.1966E-02  0.1966E-02  0.4476E-01  0.4476E-01
    -15.573  0.3627E-02  0.3627E-02  0.4521E-01  0.4521E-01
    -15.450  0.1193E-02  0.1193E-02  0.4536E-01  0.4536E-01
    -15.326  0.7933E-02  0.7933E-02  0.4634E-01  0.4634E-01
    -15.203  0.8299E-02  0.8299E-02  0.4737E-01  0.4737E-01
    -15.079  0.7479E-02  0.7479E-02  0.4829E-01  0.4829E-01
    -14.955  0.5761E-02  0.5761E-02  0.4900E-01  0.4900E-01
    -14.832  0.1425E-01  0.1425E-01  0.5077E-01  0.5077E-01
    -14.708  0.9953E-02  0.9953E-02  0.5200E-01  0.5200E-01
    -14.584  0.2351E-02  0.2351E-02  0.5229E-01  0.5229E-01
    -14.461  0.1112E-01  0.1112E-01  0.5366E-01  0.5366E-01
    -14.337  0.1113E-01  0.1113E-01  0.5504E-01  0.5504E-01
    -14.213  0.7497E-02  0.7497E-02  0.5596E-01  0.5596E-01
    -14.090  0.8949E-02  0.8949E-02  0.5707E-01  0.5707E-01
    -13.966  0.1290E-01  0.1290E-01  0.5866E-01  0.5866E-01
    -13.843  0.3962E-02  0.3962E-02  0.5915E-01  0.5915E-01
    -13.719  0.5291E-02  0.5291E-02  0.5981E-01  0.5981E-01
    -13.595  0.5265E-02  0.5265E-02  0.6046E-01  0.6046E-01
    -13.472  0.7379E-02  0.7379E-02  0.6137E-01  0.6137E-01
    -13.348  0.9759E-02  0.9759E-02  0.6258E-01  0.6258E-01
    -13.224  0.6894E-02  0.6894E-02  0.6343E-01  0.6343E-01
    -13.101  0.7901E-02  0.7901E-02  0.6441E-01  0.6441E-01
    -12.977  0.5318E-02  0.5318E-02  0.6506E-01  0.6506E-01
    -12.854  0.3847E-02  0.3847E-02  0.6554E-01  0.6554E-01
    -12.730  0.5976E-02  0.5976E-02  0.6628E-01  0.6628E-01
    -12.606  0.8978E-02  0.8978E-02  0.6739E-01  0.6739E-01
    -12.483  0.6509E-02  0.6509E-02  0.6819E-01  0.6819E-01
    -12.359  0.1580E-01  0.1580E-01  0.7015E-01  0.7015E-01
    -12.235  0.1257E-01  0.1257E-01  0.7170E-01  0.7170E-01
    -12.112  0.8023E-02  0.8023E-02  0.7269E-01  0.7269E-01
    -11.988  0.4666E-02  0.4666E-02  0.7327E-01  0.7327E-01
    -11.864  0.1200E-01  0.1200E-01  0.7475E-01  0.7475E-01
    -11.741  0.8238E-02  0.8238E-02  0.7577E-01  0.7577E-01
    -11.617  0.8190E-02  0.8190E-02  0.7679E-01  0.7679E-01
    -11.494  0.7505E-02  0.7505E-02  0.7771E-01  0.7771E-01
    -11.370  0.1071E-01  0.1071E-01  0.7904E-01  0.7904E-01
    -11.246  0.1286E-01  0.1286E-01  0.8063E-01  0.8063E-01
    -11.123  0.1205E-01  0.1205E-01  0.8212E-01  0.8212E-01
    -10.999  0.1046E-01  0.1046E-01  0.8341E-01  0.8341E-01
    -10.875  0.7459E-02  0.7459E-02  0.8433E-01  0.8433E-01
    -10.752  0.1469E-01  0.1469E-01  0.8615E-01  0.8615E-01
    -10.628  0.8102E-02  0.8102E-02  0.8715E-01  0.8715E-01
    -10.505  0.6076E-02  0.6076E-02  0.8790E-01  0.8790E-01
    -10.381  0.3772E-02  0.3772E-02  0.8837E-01  0.8837E-01
    -10.257  0.5325E-02  0.5325E-02  0.8903E-01  0.8903E-01
    -10.134  0.1375E-01  0.1375E-01  0.9073E-01  0.9073E-01
    -10.010  0.1480E-01  0.1480E-01  0.9256E-01  0.9256E-01
     -9.886  0.2099E-01  0.2099E-01  0.9515E-01  0.9515E-01
     -9.763  0.1663E-01  0.1663E-01  0.9721E-01  0.9721E-01
     -9.639  0.1949E-01  0.1949E-01  0.9962E-01  0.9962E-01
     -9.515  0.1603E-01  0.1603E-01  0.1016E+00  0.1016E+00
     -9.392  0.8970E-02  0.8970E-02  0.1027E+00  0.1027E+00
     -9.268  0.2161E-01  0.2161E-01  0.1054E+00  0.1054E+00
     -9.145  0.1335E-01  0.1335E-01  0.1070E+00  0.1070E+00
     -9.021  0.2099E-01  0.2099E-01  0.1096E+00  0.1096E+00
     -8.897  0.2032E-01  0.2032E-01  0.1121E+00  0.1121E+00
     -8.774  0.3052E-01  0.3052E-01  0.1159E+00  0.1159E+00
     -8.650  0.2806E-01  0.2806E-01  0.1194E+00  0.1194E+00
     -8.526  0.1986E-01  0.1986E-01  0.1218E+00  0.1218E+00
     -8.403  0.1578E-01  0.1578E-01  0.1238E+00  0.1238E+00
     -8.279  0.2019E-01  0.2019E-01  0.1263E+00  0.1263E+00
     -8.156  0.2055E-01  0.2055E-01  0.1288E+00  0.1288E+00
     -8.032  0.2279E-01  0.2279E-01  0.1316E+00  0.1316E+00
     -7.908  0.2395E-01  0.2395E-01  0.1346E+00  0.1346E+00
     -7.785  0.1390E-01  0.1390E-01  0.1363E+00  0.1363E+00
     -7.661  0.1907E-01  0.1907E-01  0.1387E+00  0.1387E+00
     -7.537  0.1790E-01  0.1790E-01  0.1409E+00  0.1409E+00
     -7.414  0.9055E-02  0.9055E-02  0.1420E+00  0.1420E+00
     -7.290  0.6746E-02  0.6746E-02  0.1428E+00  0.1428E+00
     -7.166  0.1928E-01  0.1928E-01  0.1452E+00  0.1452E+00
     -7.043  0.2272E-01  0.2272E-01  0.1480E+00  0.1480E+00
     -6.919  0.1958E-01  0.1958E-01  0.1505E+00  0.1505E+00
     -6.796  0.1235E-01  0.1235E-01  0.1520E+00  0.1520E+00
     -6.672  0.1063E-01  0.1063E-01  0.1533E+00  0.1533E+00
     -6.548  0.1083E-01  0.1083E-01  0.1546E+00  0.1546E+00
     -6.425  0.1315E-01  0.1315E-01  0.1563E+00  0.1563E+00
     -6.301  0.1158E-01  0.1158E-01  0.1577E+00  0.1577E+00
     -6.177  0.1301E-01  0.1301E-01  0.1593E+00  0.1593E+00
     -6.054  0.2061E-01  0.2061E-01  0.1619E+00  0.1619E+00
     -5.930  0.1909E-01  0.1909E-01  0.1642E+00  0.1642E+00
     -5.807  0.1080E-01  0.1080E-01  0.1655E+00  0.1655E+00
     -5.683  0.1599E-01  0.1599E-01  0.1675E+00  0.1675E+00
     -5.559  0.1484E-01  0.1484E-01  0.1694E+00  0.1694E+00
     -5.436  0.9602E-02  0.9602E-02  0.1705E+00  0.1705E+00
     -5.312  0.6316E-02  0.6316E-02  0.1713E+00  0.1713E+00
     -5.188  0.3611E-02  0.3611E-02  0.1718E+00  0.1718E+00
     -5.065  0.2008E-02  0.2008E-02  0.1720E+00  0.1720E+00
     -4.941  0.1470E-01  0.1470E-01  0.1738E+00  0.1738E+00
     -4.817  0.2022E-01  0.2022E-01  0.1763E+00  0.1763E+00
     -4.694  0.1548E-01  0.1548E-01  0.1783E+00  0.1783E+00
     -4.570  0.4658E-02  0.4658E-02  0.1788E+00  0.1788E+00
     -4.447  0.9618E-02  0.9618E-02  0.1800E+00  0.1800E+00
     -4.323  0.1880E-02  0.1880E-02  0.1803E+00  0.1803E+00
     -4.199  0.2431E-02  0.2431E-02  0.1806E+00  0.1806E+00
     -4.076  0.8754E-02  0.8754E-02  0.1816E+00  0.1816E+00
     -3.952  0.6823E-02  0.6823E-02  0.1825E+00  0.1825E+00
     -3.828  0.6688E-02  0.6688E-02  0.1833E+00  0.1833E+00
     -3.705  0.7843E-02  0.7843E-02  0.1843E+00  0.1843E+00
     -3.581  0.5701E-02  0.5701E-02  0.1850E+00  0.1850E+00
     -3.458  0.1771E-03  0.1771E-03  0.1850E+00  0.1850E+00
     -3.334  0.4400E-04  0.4400E-04  0.1850E+00  0.1850E+00
     -3.210  0.2671E-02  0.2671E-02  0.1853E+00  0.1853E+00
     -3.087  0.6238E-02  0.6238E-02  0.1861E+00  0.1861E+00
     -2.963  0.1453E-02  0.1453E-02  0.1863E+00  0.1863E+00
     -2.839  0.1712E-02  0.1712E-02  0.1865E+00  0.1865E+00
     -2.716  0.1463E-04  0.1463E-04  0.1865E+00  0.1865E+00
     -2.592  0.9762E-04  0.9762E-04  0.1865E+00  0.1865E+00
     -2.468  0.3662E-02  0.3662E-02  0.1870E+00  0.1870E+00
     -2.345  0.2847E-03  0.2847E-03  0.1870E+00  0.1870E+00
     -2.221  0.3603E-04  0.3603E-04  0.1870E+00  0.1870E+00
     -2.098  0.3313E-02  0.3313E-02  0.1874E+00  0.1874E+00
     -1.974  0.6954E-03  0.6954E-03  0.1875E+00  0.1875E+00
     -1.850  0.1385E-06  0.1385E-06  0.1875E+00  0.1875E+00
     -1.727  0.7119E-03  0.7119E-03  0.1876E+00  0.1876E+00
     -1.603  0.2794E-02  0.2794E-02  0.1879E+00  0.1879E+00
     -1.479  0.5372E-02  0.5372E-02  0.1886E+00  0.1886E+00
     -1.356  0.3252E-02  0.3252E-02  0.1890E+00  0.1890E+00
     -1.232  0.3138E-04  0.3138E-04  0.1890E+00  0.1890E+00
     -1.109  0.5036E-02  0.5036E-02  0.1896E+00  0.1896E+00
     -0.985  0.6786E-02  0.6786E-02  0.1905E+00  0.1905E+00
     -0.861  0.2238E-02  0.2238E-02  0.1907E+00  0.1907E+00
     -0.738  0.1344E-01  0.1344E-01  0.1924E+00  0.1924E+00
     -0.614  0.1224E-01  0.1224E-01  0.1939E+00  0.1939E+00
     -0.490  0.5922E-02  0.5922E-02  0.1946E+00  0.1946E+00
     -0.367  0.1192E-01  0.1192E-01  0.1961E+00  0.1961E+00
     -0.243  0.6664E-02  0.6664E-02  0.1969E+00  0.1969E+00
     -0.119  0.3598E-02  0.3598E-02  0.1974E+00  0.1974E+00
      0.004  0.9499E-02  0.9499E-02  0.1986E+00  0.1986E+00
      0.128  0.7904E-02  0.7904E-02  0.1995E+00  0.1995E+00
      0.251  0.1128E-01  0.1128E-01  0.2009E+00  0.2009E+00
      0.375  0.1110E-01  0.1110E-01  0.2023E+00  0.2023E+00
      0.499  0.1045E-01  0.1045E-01  0.2036E+00  0.2036E+00
      0.622  0.3256E-02  0.3256E-02  0.2040E+00  0.2040E+00
      0.746  0.4826E-02  0.4826E-02  0.2046E+00  0.2046E+00
      0.870  0.8498E-02  0.8498E-02  0.2057E+00  0.2057E+00
      0.993  0.8151E-02  0.8151E-02  0.2067E+00  0.2067E+00
      1.117  0.1068E-01  0.1068E-01  0.2080E+00  0.2080E+00
      1.241  0.6304E-02  0.6304E-02  0.2088E+00  0.2088E+00
      1.364  0.9358E-02  0.9358E-02  0.2099E+00  0.2099E+00
      1.488  0.1056E-01  0.1056E-01  0.2112E+00  0.2112E+00
      1.611  0.1658E-01  0.1658E-01  0.2133E+00  0.2133E+00
      1.735  0.2050E-01  0.2050E-01  0.2158E+00  0.2158E+00
      1.859  0.7965E-02  0.7964E-02  0.2168E+00  0.2168E+00
      1.982  0.1193E-01  0.1193E-01  0.2183E+00  0.2183E+00
      2.106  0.2184E-01  0.2184E-01  0.2210E+00  0.2210E+00
      2.230  0.1645E-01  0.1645E-01  0.2230E+00  0.2230E+00
      2.353  0.1739E-01  0.1740E-01  0.2251E+00  0.2251E+00
      2.477  0.2642E-01  0.2642E-01  0.2284E+00  0.2284E+00
      2.600  0.9341E-02  0.9341E-02  0.2296E+00  0.2296E+00
      2.724  0.1299E-01  0.1299E-01  0.2312E+00  0.2312E+00
      2.848  0.2586E-01  0.2586E-01  0.2344E+00  0.2344E+00
      2.971  0.3163E-01  0.3163E-01  0.2383E+00  0.2383E+00
      3.095  0.2315E-01  0.2315E-01  0.2411E+00  0.2411E+00
      3.219  0.2419E-01  0.2419E-01  0.2441E+00  0.2441E+00
      3.342  0.2134E-01  0.2134E-01  0.2468E+00  0.2468E+00
      3.466  0.2184E-01  0.2184E-01  0.2495E+00  0.2495E+00
      3.590  0.2249E-01  0.2249E-01  0.2523E+00  0.2523E+00
      3.713  0.1342E-01  0.1342E-01  0.2539E+00  0.2539E+00
      3.837  0.2768E-01  0.2768E-01  0.2573E+00  0.2573E+00
      3.960  0.1984E-01  0.1984E-01  0.2598E+00  0.2598E+00
      4.084  0.2279E-01  0.2279E-01  0.2626E+00  0.2626E+00
      4.208  0.1481E-01  0.1481E-01  0.2644E+00  0.2644E+00
      4.331  0.2845E-01  0.2845E-01  0.2680E+00  0.2680E+00
      4.455  0.1649E-01  0.1649E-01  0.2700E+00  0.2700E+00
      4.579  0.5341E-04  0.5340E-04  0.2700E+00  0.2700E+00
      4.702  0.1234E-10  0.1234E-10  0.2700E+00  0.2700E+00
      4.826  0.0000E+00  0.0000E+00  0.2700E+00  0.2700E+00
      4.949  0.0000E+00  0.0000E+00  0.2700E+00  0.2700E+00
      5.073  0.0000E+00  0.0000E+00  0.2700E+00  0.2700E+00
      5.197  0.0000E+00  0.0000E+00  0.2700E+00  0.2700E+00
      5.320  0.0000E+00  0.0000E+00  0.2700E+00  0.2700E+00
      5.444  0.0000E+00  0.0000E+00  0.2700E+00  0.2700E+00
      5.568  0.0000E+00  0.0000E+00  0.2700E+00  0.2700E+00
      5.691  0.0000E+00  0.0000E+00  0.2700E+00  0.2700E+00
      5.815  0.0000E+00  0.0000E+00  0.2700E+00  0.2700E+00
      5.939  0.0000E+00  0.0000E+00  0.2700E+00  0.2700E+00
      6.062  0.0000E+00  0.0000E+00  0.2700E+00  0.2700E+00
