       N       E                     dE             d eps       ncg     rms          rms(c)
DAV:   1     0.332469427268E+04    0.33247E+04   -0.14022E+05  4640   0.105E+03
DAV:   2    -0.255374689647E+03   -0.35801E+04   -0.33709E+04  6520   0.259E+02
DAV:   3    -0.875456780044E+03   -0.62008E+03   -0.61737E+03  5340   0.111E+02
DAV:   4    -0.897554060424E+03   -0.22097E+02   -0.22018E+02  5410   0.264E+01
DAV:   5    -0.898208912397E+03   -0.65485E+00   -0.65411E+00  6190   0.397E+00    0.524E+01
DAV:   6    -0.879873109437E+03    0.18336E+02   -0.23068E+01  5230   0.780E+00    0.340E+01
DAV:   7    -0.856888739267E+03    0.22984E+02   -0.34280E+01  5140   0.919E+00    0.206E+01
DAV:   8    -0.851914157562E+03    0.49746E+01   -0.24915E+01  5230   0.756E+00    0.832E+00
DAV:   9    -0.851802927469E+03    0.11123E+00   -0.12089E+00  5050   0.220E+00    0.316E+00
DAV:  10    -0.851719130309E+03    0.83797E-01   -0.45316E-01  5100   0.124E+00    0.996E-01
DAV:  11    -0.851703944229E+03    0.15186E-01   -0.88742E-02  4870   0.605E-01    0.335E-01
DAV:  12    -0.851702670245E+03    0.12740E-02   -0.14052E-02  5260   0.264E-01    0.166E-01
DAV:  13    -0.851702565747E+03    0.10450E-03   -0.24007E-03  5350   0.976E-02    0.104E-01
DAV:  14    -0.851702619967E+03   -0.54220E-04   -0.66091E-04  5160   0.604E-02    0.525E-02
DAV:  15    -0.851702667426E+03   -0.47459E-04   -0.92930E-05  5110   0.191E-02    0.325E-02
DAV:  16    -0.851702683018E+03   -0.15592E-04   -0.44351E-05  4780   0.165E-02    0.873E-03
DAV:  17    -0.851702683196E+03   -0.17832E-06   -0.70515E-06  5190   0.612E-03
   1 F= -.85957107E+03 E0= -.85957107E+03  d E =-.859571E+03  mag=     0.0000
       N       E                     dE             d eps       ncg     rms          rms(c)
DAV:   1    -0.851702956925E+03   -0.27391E-03   -0.15316E-02  4500   0.252E-01    0.280E-02
DAV:   2    -0.851702983064E+03   -0.26140E-04   -0.37780E-04  5390   0.362E-02    0.249E-02
DAV:   3    -0.851702975604E+03    0.74601E-05   -0.18649E-05  5660   0.842E-03    0.184E-02
DAV:   4    -0.851702969867E+03    0.57366E-05   -0.11627E-05  4640   0.748E-03    0.823E-03
DAV:   5    -0.851702969454E+03    0.41313E-06   -0.43385E-06  3770   0.398E-03
   2 F= -.85957135E+03 E0= -.85957135E+03  d E =-.280653E-03  mag=     0.0000
       N       E                     dE             d eps       ncg     rms          rms(c)
DAV:   1    -0.851702877885E+03    0.91983E-04   -0.16975E-02  4480   0.261E-01    0.276E-02
DAV:   2    -0.851702904819E+03   -0.26934E-04   -0.37750E-04  5020   0.360E-02    0.236E-02
DAV:   3    -0.851702899182E+03    0.56370E-05   -0.15116E-05  5640   0.776E-03    0.176E-02
DAV:   4    -0.851702896224E+03    0.29579E-05   -0.10719E-05  4480   0.722E-03    0.727E-03
DAV:   5    -0.851702896532E+03   -0.30833E-06   -0.37674E-06  3720   0.363E-03
   3 F= -.85957127E+03 E0= -.85957127E+03  d E =0.767663E-04  mag=     0.0000
       N       E                     dE             d eps       ncg     rms          rms(c)
DAV:   1    -0.851702993836E+03   -0.97613E-04   -0.80399E-04  4480   0.579E-02    0.654E-03
DAV:   2    -0.851702995112E+03   -0.12761E-05   -0.20713E-05  5560   0.841E-03    0.606E-03
DAV:   3    -0.851702994612E+03    0.50037E-06   -0.80055E-07  2470   0.191E-03
   4 F= -.85957137E+03 E0= -.85957137E+03  d E =-.100001E-03  mag=    -0.0000
       N       E                     dE             d eps       ncg     rms          rms(c)
DAV:   1    -0.851703090955E+03   -0.95843E-04   -0.24397E-03  4480   0.101E-01    0.121E-02
DAV:   2    -0.851703094642E+03   -0.36869E-05   -0.56238E-05  5520   0.139E-02    0.110E-02
DAV:   3    -0.851703093228E+03    0.14143E-05   -0.25176E-06  3680   0.330E-03    0.800E-03
DAV:   4    -0.851703092405E+03    0.82255E-06   -0.39118E-06  4300   0.409E-03
   5 F= -.85957147E+03 E0= -.85957147E+03  d E =-.101067E-03  mag=     0.0000
       N       E                     dE             d eps       ncg     rms          rms(c)
DAV:   1    -0.851703094633E+03   -0.14052E-05   -0.35386E-03  4460   0.120E-01    0.137E-02
DAV:   2    -0.851703100203E+03   -0.55701E-05   -0.83018E-05  5180   0.168E-02    0.126E-02
DAV:   3    -0.851703098504E+03    0.16991E-05   -0.39462E-06  4700   0.393E-03    0.951E-03
DAV:   4    -0.851703097394E+03    0.11103E-05   -0.42253E-06  4220   0.433E-03    0.378E-03
DAV:   5    -0.851703097381E+03    0.12420E-07   -0.92570E-07  2820   0.189E-03
   6 F= -.85957148E+03 E0= -.85957148E+03  d E =-.867519E-05  mag=    -0.0000
       N       E                     dE             d eps       ncg     rms          rms(c)
DAV:   1    -0.851703029106E+03    0.68288E-04   -0.34052E-03  4440   0.115E-01    0.119E-02
DAV:   2    -0.851703033524E+03   -0.44176E-05   -0.68859E-05  4740   0.152E-02    0.111E-02
DAV:   3    -0.851703032266E+03    0.12576E-05   -0.30659E-06  4410   0.357E-03    0.814E-03
DAV:   4    -0.851703031788E+03    0.47773E-06   -0.28114E-06  3940   0.352E-03
   7 F= -.85957142E+03 E0= -.85957142E+03  d E =0.625104E-04  mag=    -0.0000
       N       E                     dE             d eps       ncg     rms          rms(c)
DAV:   1    -0.851702978769E+03    0.53497E-04   -0.40149E-03  4440   0.120E-01    0.134E-02
DAV:   2    -0.851702981733E+03   -0.29640E-05   -0.60991E-05  4510   0.147E-02    0.120E-02
DAV:   3    -0.851702980469E+03    0.12645E-05   -0.36665E-06  4510   0.426E-03    0.734E-03
DAV:   4    -0.851702980717E+03   -0.24834E-06   -0.18635E-06  3220   0.277E-03
   8 F= -.85957137E+03 E0= -.85957137E+03  d E =0.493804E-04  mag=     0.0000
       N       E                     dE             d eps       ncg     rms          rms(c)
DAV:   1    -0.851702974659E+03    0.58102E-05   -0.63151E-03  4380   0.151E-01    0.155E-02
DAV:   2    -0.851702980395E+03   -0.57361E-05   -0.10075E-04  4400   0.189E-02    0.140E-02
DAV:   3    -0.851702978782E+03    0.16127E-05   -0.42638E-06  4670   0.449E-03    0.950E-03
DAV:   4    -0.851702979126E+03   -0.34386E-06   -0.32748E-06  4080   0.391E-03
   9 F= -.85957137E+03 E0= -.85957137E+03  d E =0.190758E-05  mag=    -0.0000
       N       E                     dE             d eps       ncg     rms          rms(c)
DAV:   1    -0.851702964488E+03    0.14294E-04   -0.12902E-02  4400   0.219E-01    0.221E-02
DAV:   2    -0.851702977512E+03   -0.13024E-04   -0.21766E-04  4360   0.278E-02    0.199E-02
DAV:   3    -0.851702974128E+03    0.33841E-05   -0.84865E-06  5500   0.608E-03    0.142E-02
DAV:   4    -0.851702974342E+03   -0.21419E-06   -0.73950E-06  4260   0.597E-03
  10 F= -.85957136E+03 E0= -.85957136E+03  d E =0.790674E-05  mag=    -0.0000
       N       E                     dE             d eps       ncg     rms          rms(c)
DAV:   1    -0.851702863581E+03    0.11055E-03   -0.23357E-02  4400   0.294E-01    0.299E-02
DAV:   2    -0.851702886528E+03   -0.22947E-04   -0.38642E-04  4320   0.371E-02    0.264E-02
DAV:   3    -0.851702880765E+03    0.57629E-05   -0.14697E-05  5520   0.807E-03    0.186E-02
DAV:   4    -0.851702881746E+03   -0.98107E-06   -0.12395E-05  4340   0.774E-03    0.588E-03
DAV:   5    -0.851702882273E+03   -0.52611E-06   -0.60611E-06  4380   0.400E-03
  11 F= -.85957126E+03 E0= -.85957126E+03  d E =0.986017E-04  mag=     0.0000
       N       E                     dE             d eps       ncg     rms          rms(c)
DAV:   1    -0.851702713627E+03    0.16812E-03   -0.37581E-02  4400   0.368E-01    0.368E-02
DAV:   2    -0.851702747968E+03   -0.34342E-04   -0.59754E-04  4380   0.460E-02    0.318E-02
DAV:   3    -0.851702739365E+03    0.86030E-05   -0.21853E-05  5160   0.101E-02    0.217E-02
DAV:   4    -0.851702741799E+03   -0.24341E-05   -0.16913E-05  4460   0.886E-03    0.691E-03
DAV:   5    -0.851702742744E+03   -0.94478E-06   -0.88908E-06  4520   0.478E-03
  12 F= -.85957111E+03 E0= -.85957111E+03  d E =0.148373E-03  mag=    -0.0000
       N       E                     dE             d eps       ncg     rms          rms(c)
DAV:   1    -0.851702604301E+03    0.13750E-03   -0.61167E-02  4420   0.470E-01    0.467E-02
DAV:   2    -0.851702660628E+03   -0.56327E-04   -0.97769E-04  4340   0.588E-02    0.405E-02
DAV:   3    -0.851702646645E+03    0.13983E-04   -0.35108E-05  5180   0.128E-02    0.275E-02
DAV:   4    -0.851702650673E+03   -0.40280E-05   -0.27334E-05  4480   0.113E-02    0.877E-03
DAV:   5    -0.851702652225E+03   -0.15527E-05   -0.14775E-05  4560   0.616E-03    0.279E-03
DAV:   6    -0.851702652529E+03   -0.30392E-06   -0.34731E-07  3100   0.128E-03
  13 F= -.85957101E+03 E0= -.85957101E+03  d E =0.990377E-04  mag=    -0.0000
       N       E                     dE             d eps       ncg     rms          rms(c)
DAV:   1    -0.851702420628E+03    0.23160E-03   -0.99458E-02  4400   0.601E-01    0.591E-02
DAV:   2    -0.851702516570E+03   -0.95943E-04   -0.16256E-03  4340   0.758E-02    0.519E-02
DAV:   3    -0.851702492594E+03    0.23976E-04   -0.57636E-05  5220   0.162E-02    0.358E-02
DAV:   4    -0.851702497023E+03   -0.44283E-05   -0.47946E-05  4460   0.150E-02    0.111E-02
DAV:   5    -0.851702499253E+03   -0.22301E-05   -0.26560E-05  4540   0.824E-03    0.374E-03
DAV:   6    -0.851702499799E+03   -0.54650E-06   -0.65100E-07  3120   0.171E-03
  14 F= -.85957085E+03 E0= -.85957085E+03  d E =0.161614E-03  mag=     0.0000
       N       E                     dE             d eps       ncg     rms          rms(c)
DAV:   1    -0.851702220637E+03    0.27862E-03   -0.15072E-01  4400   0.737E-01    0.728E-02
DAV:   2    -0.851702361689E+03   -0.14105E-03   -0.24195E-03  4320   0.925E-02    0.633E-02
DAV:   3    -0.851702327675E+03    0.34014E-04   -0.83636E-05  5100   0.197E-02    0.433E-02
DAV:   4    -0.851702336421E+03   -0.87462E-05   -0.70413E-05  4480   0.181E-02    0.128E-02
DAV:   5    -0.851702339570E+03   -0.31483E-05   -0.41621E-05  4540   0.104E-02    0.416E-03
DAV:   6    -0.851702340299E+03   -0.72895E-06   -0.94067E-07  3200   0.205E-03
  15 F= -.85957068E+03 E0= -.85957068E+03  d E =0.171335E-03  mag=     0.0000
       N       E                     dE             d eps       ncg     rms          rms(c)
DAV:   1    -0.851702112031E+03    0.22754E-03   -0.23340E-01  4400   0.917E-01    0.912E-02
DAV:   2    -0.851702334998E+03   -0.22297E-03   -0.37879E-03  4340   0.116E-01    0.789E-02
DAV:   3    -0.851702282573E+03    0.52425E-04   -0.12975E-04  5180   0.245E-02    0.545E-02
DAV:   4    -0.851702294036E+03   -0.11463E-04   -0.10914E-04  4500   0.227E-02    0.163E-02
DAV:   5    -0.851702299107E+03   -0.50703E-05   -0.61787E-05  4560   0.126E-02    0.534E-03
DAV:   6    -0.851702300278E+03   -0.11718E-05   -0.14924E-06  3440   0.242E-03    0.363E-03
DAV:   7    -0.851702300396E+03   -0.11751E-06   -0.44964E-07  3180   0.145E-03
  16 F= -.85957062E+03 E0= -.85957062E+03  d E =0.574153E-04  mag=     0.0000
       N       E                     dE             d eps       ncg     rms          rms(c)
DAV:   1    -0.851702019437E+03    0.28084E-03   -0.35906E-01  4400   0.113E+00    0.114E-01
DAV:   2    -0.851702354655E+03   -0.33522E-03   -0.57365E-03  4360   0.142E-01    0.981E-02
DAV:   3    -0.851702271996E+03    0.82659E-04   -0.19390E-04  5100   0.300E-02    0.677E-02
DAV:   4    -0.851702289150E+03   -0.17154E-04   -0.17632E-04  4540   0.287E-02    0.195E-02
DAV:   5    -0.851702296030E+03   -0.68802E-05   -0.10234E-04  4580   0.162E-02    0.639E-03
DAV:   6    -0.851702297637E+03   -0.16070E-05   -0.22380E-06  3540   0.302E-03    0.445E-03
DAV:   7    -0.851702297797E+03   -0.16009E-06   -0.70740E-07  3280   0.176E-03
  17 F= -.85957059E+03 E0= -.85957059E+03  d E =0.274109E-04  mag=    -0.0000
       N       E                     dE             d eps       ncg     rms          rms(c)
DAV:   1    -0.851701990988E+03    0.30665E-03   -0.53061E-01  4420   0.138E+00    0.138E-01
DAV:   2    -0.851702482457E+03   -0.49147E-03   -0.84059E-03  4420   0.172E-01    0.120E-01
DAV:   3    -0.851702355192E+03    0.12726E-03   -0.28815E-04  5160   0.365E-02    0.830E-02
DAV:   4    -0.851702378648E+03   -0.23456E-04   -0.27056E-04  4560   0.354E-02    0.240E-02
DAV:   5    -0.851702387945E+03   -0.92970E-05   -0.15560E-04  4600   0.201E-02    0.796E-03
DAV:   6    -0.851702390422E+03   -0.24768E-05   -0.36599E-06  4020   0.392E-03    0.545E-03
DAV:   7    -0.851702390551E+03   -0.12952E-06   -0.95478E-07  3560   0.214E-03
  18 F= -.85957066E+03 E0= -.85957066E+03  d E =-.652253E-04  mag=    -0.0000
       N       E                     dE             d eps       ncg     rms          rms(c)
DAV:   1    -0.851701948445E+03    0.44198E-03   -0.72689E-01  4420   0.161E+00    0.161E-01
DAV:   2    -0.851702588355E+03   -0.63991E-03   -0.11200E-02  4460   0.199E-01    0.141E-01
DAV:   3    -0.851702408298E+03    0.18006E-03   -0.40749E-04  5160   0.436E-02    0.959E-02
DAV:   4    -0.851702441999E+03   -0.33701E-04   -0.35806E-04  4560   0.405E-02    0.282E-02
DAV:   5    -0.851702454419E+03   -0.12420E-04   -0.21678E-04  4620   0.237E-02    0.898E-03
DAV:   6    -0.851702457509E+03   -0.30903E-05   -0.53340E-06  4180   0.487E-03    0.621E-03
DAV:   7    -0.851702457676E+03   -0.16709E-06   -0.14141E-06  3780   0.246E-03
  19 F= -.85957069E+03 E0= -.85957069E+03  d E =-.269956E-04  mag=    -0.0000
       N       E                     dE             d eps       ncg     rms          rms(c)
DAV:   1    -0.851701789280E+03    0.66823E-03   -0.97016E-01  4420   0.185E+00    0.185E-01
DAV:   2    -0.851702616845E+03   -0.82757E-03   -0.14753E-02  4420   0.227E-01    0.163E-01
DAV:   3    -0.851702365496E+03    0.25135E-03   -0.56112E-04  5180   0.510E-02    0.110E-01
DAV:   4    -0.851702399359E+03   -0.33863E-04   -0.46164E-04  4600   0.458E-02    0.329E-02
DAV:   5    -0.851702418822E+03   -0.19463E-04   -0.27119E-04  4620   0.265E-02    0.103E-02
DAV:   6    -0.851702423078E+03   -0.42560E-05   -0.71489E-06  4440   0.564E-03    0.723E-03
DAV:   7    -0.851702423227E+03   -0.14849E-06   -0.20366E-06  4060   0.288E-03
  20 F= -.85957060E+03 E0= -.85957060E+03  d E =0.816570E-04  mag=    -0.0000
       N       E                     dE             d eps       ncg     rms          rms(c)
DAV:   1    -0.851701704313E+03    0.71877E-03   -0.11188E+00  4420   0.198E+00    0.196E-01
DAV:   2    -0.851702598549E+03   -0.89424E-03   -0.16504E-02  4440   0.239E-01    0.177E-01
DAV:   3    -0.851702276053E+03    0.32250E-03   -0.71360E-04  5160   0.574E-02    0.116E-01
DAV:   4    -0.851702304172E+03   -0.28119E-04   -0.53271E-04  4800   0.473E-02    0.373E-02
DAV:   5    -0.851702326965E+03   -0.22794E-04   -0.26196E-04  4600   0.268E-02    0.116E-02
DAV:   6    -0.851702333257E+03   -0.62920E-05   -0.11087E-05  4460   0.731E-03    0.783E-03
DAV:   7    -0.851702332718E+03    0.53923E-06   -0.32748E-06  4580   0.364E-03
  21 F= -.85957050E+03 E0= -.85957050E+03  d E =0.107525E-03  mag=     0.0000
       N       E                     dE             d eps       ncg     rms          rms(c)
DAV:   1    -0.851702551487E+03   -0.21823E-03   -0.50822E-03  4480   0.147E-01    0.156E-02
DAV:   2    -0.851702561204E+03   -0.97171E-05   -0.13012E-04  5240   0.214E-02    0.140E-02
DAV:   3    -0.851702559139E+03    0.20657E-05   -0.52381E-06  4860   0.434E-03    0.110E-02
DAV:   4    -0.851702557195E+03    0.19441E-05   -0.70208E-06  4240   0.554E-03    0.400E-03
DAV:   5    -0.851702557195E+03    0.13097E-09   -0.13518E-06  2980   0.219E-03
  22 F= -.85957072E+03 E0= -.85957072E+03  d E =-.218485E-03  mag=    -0.0000
       N       E                     dE             d eps       ncg     rms          rms(c)
DAV:   1    -0.851702630344E+03   -0.73149E-04   -0.11129E-02  4320   0.217E-01    0.226E-02
DAV:   2    -0.851702651348E+03   -0.21004E-04   -0.27618E-04  5140   0.310E-02    0.196E-02
DAV:   3    -0.851702647523E+03    0.38249E-05   -0.10489E-05  5660   0.614E-03    0.151E-02
DAV:   4    -0.851702644645E+03    0.28778E-05   -0.10622E-05  4340   0.703E-03    0.575E-03
DAV:   5    -0.851702644773E+03   -0.12761E-06   -0.26072E-06  3380   0.300E-03
  23 F= -.85957080E+03 E0= -.85957080E+03  d E =-.802486E-04  mag=     0.0000
       N       E                     dE             d eps       ncg     rms          rms(c)
DAV:   1    -0.851702671445E+03   -0.26799E-04   -0.13322E-04  4440   0.235E-02    0.273E-03
DAV:   2    -0.851702671662E+03   -0.21770E-06   -0.33872E-06  3940   0.346E-03
  24 F= -.85957082E+03 E0= -.85957082E+03  d E =-.280953E-04  mag=    -0.0000
       N       E                     dE             d eps       ncg     rms          rms(c)
DAV:   1    -0.851702714790E+03   -0.43345E-04   -0.48124E-04  4320   0.446E-02    0.589E-03
DAV:   2    -0.851702715444E+03   -0.65456E-06   -0.11648E-05  5200   0.634E-03    0.509E-03
DAV:   3    -0.851702715143E+03    0.30158E-06   -0.52217E-07  2400   0.156E-03
  25 F= -.85957087E+03 E0= -.85957087E+03  d E =-.457694E-04  mag=    -0.0000
       N       E                     dE             d eps       ncg     rms          rms(c)
DAV:   1    -0.851702760806E+03   -0.45361E-04   -0.92941E-04  4320   0.615E-02    0.677E-03
DAV:   2    -0.851702762412E+03   -0.16067E-05   -0.20895E-05  4900   0.835E-03    0.571E-03
DAV:   3    -0.851702762177E+03    0.23558E-06   -0.50347E-07  2940   0.155E-03
  26 F= -.85957092E+03 E0= -.85957092E+03  d E =-.501782E-04  mag=    -0.0000
       N       E                     dE             d eps       ncg     rms          rms(c)
DAV:   1    -0.851702804749E+03   -0.42336E-04   -0.14002E-03  4320   0.744E-02    0.771E-03
DAV:   2    -0.851702807232E+03   -0.24828E-05   -0.30913E-05  4600   0.997E-03    0.627E-03
DAV:   3    -0.851702806988E+03    0.24412E-06   -0.59877E-07  3420   0.170E-03
  27 F= -.85957097E+03 E0= -.85957097E+03  d E =-.486155E-04  mag=     0.0000
       N       E                     dE             d eps       ncg     rms          rms(c)
DAV:   1    -0.851702851801E+03   -0.44569E-04   -0.18719E-03  4360   0.841E-02    0.863E-03
DAV:   2    -0.851702854992E+03   -0.31908E-05   -0.39615E-05  4420   0.110E-02    0.666E-03
DAV:   3    -0.851702854778E+03    0.21329E-06   -0.57987E-07  3420   0.172E-03
  28 F= -.85957102E+03 E0= -.85957102E+03  d E =-.516695E-04  mag=    -0.0000
       N       E                     dE             d eps       ncg     rms          rms(c)
DAV:   1    -0.851702912960E+03   -0.57968E-04   -0.23902E-03  4380   0.933E-02    0.952E-03
DAV:   2    -0.851702916919E+03   -0.39591E-05   -0.49126E-05  4320   0.120E-02    0.704E-03
DAV:   3    -0.851702916736E+03    0.18249E-06   -0.58818E-07  3420   0.176E-03
  29 F= -.85957109E+03 E0= -.85957109E+03  d E =-.655491E-04  mag=     0.0000
       N       E                     dE             d eps       ncg     rms          rms(c)
DAV:   1    -0.851703005190E+03   -0.88271E-04   -0.38439E-03  4380   0.118E-01    0.119E-02
DAV:   2    -0.851703011562E+03   -0.63723E-05   -0.79086E-05  4320   0.152E-02    0.876E-03
DAV:   3    -0.851703011250E+03    0.31193E-06   -0.92992E-07  3740   0.220E-03
  30 F= -.85957118E+03 E0= -.85957118E+03  d E =-.979434E-04  mag=    -0.0000
       N       E                     dE             d eps       ncg     rms          rms(c)
DAV:   1    -0.851703130149E+03   -0.11859E-03   -0.63688E-03  4380   0.153E-01    0.154E-02
DAV:   2    -0.851703140766E+03   -0.10616E-04   -0.13255E-04  4320   0.198E-02    0.115E-02
DAV:   3    -0.851703140224E+03    0.54156E-06   -0.18744E-06  4300   0.295E-03
  31 F= -.85957132E+03 E0= -.85957132E+03  d E =-.132316E-03  mag=     0.0000
       N       E                     dE             d eps       ncg     rms          rms(c)
DAV:   1    -0.851703272448E+03   -0.13168E-03   -0.10289E-02  4380   0.194E-01    0.199E-02
DAV:   2    -0.851703289414E+03   -0.16966E-04   -0.21430E-04  4320   0.252E-02    0.150E-02
DAV:   3    -0.851703288475E+03    0.93897E-06   -0.33210E-06  4940   0.381E-03
  32 F= -.85957147E+03 E0= -.85957147E+03  d E =-.151946E-03  mag=     0.0000
       N       E                     dE             d eps       ncg     rms          rms(c)
DAV:   1    -0.851703434524E+03   -0.14511E-03   -0.15563E-02  4380   0.238E-01    0.246E-02
DAV:   2    -0.851703459157E+03   -0.24632E-04   -0.31882E-04  4320   0.307E-02    0.185E-02
DAV:   3    -0.851703457882E+03    0.12749E-05   -0.47821E-06  5140   0.458E-03    0.140E-02
DAV:   4    -0.851703461268E+03   -0.33865E-05   -0.73226E-06  4160   0.603E-03    0.301E-03
DAV:   5    -0.851703461401E+03   -0.13291E-06   -0.18212E-06  3800   0.241E-03
  33 F= -.85957165E+03 E0= -.85957165E+03  d E =-.178027E-03  mag=     0.0000
       N       E                     dE             d eps       ncg     rms          rms(c)
DAV:   1    -0.851703642851E+03   -0.18158E-03   -0.22441E-02  4380   0.285E-01    0.280E-02
DAV:   2    -0.851703680589E+03   -0.37738E-04   -0.48030E-04  4320   0.378E-02    0.209E-02
DAV:   3    -0.851703677801E+03    0.27880E-05   -0.71136E-06  5340   0.563E-03    0.159E-02
DAV:   4    -0.851703681236E+03   -0.34350E-05   -0.11976E-05  4160   0.747E-03    0.389E-03
DAV:   5    -0.851703681411E+03   -0.17488E-06   -0.27521E-06  4220   0.300E-03
  34 F= -.85957187E+03 E0= -.85957187E+03  d E =-.227111E-03  mag=     0.0000
       N       E                     dE             d eps       ncg     rms          rms(c)
DAV:   1    -0.851703894639E+03   -0.21340E-03   -0.30814E-02  4380   0.336E-01    0.329E-02
DAV:   2    -0.851703945397E+03   -0.50758E-04   -0.65507E-04  4320   0.446E-02    0.251E-02
DAV:   3    -0.851703941221E+03    0.41758E-05   -0.10735E-05  5440   0.687E-03    0.190E-02
DAV:   4    -0.851703945517E+03   -0.42953E-05   -0.16826E-05  4160   0.891E-03    0.502E-03
DAV:   5    -0.851703945895E+03   -0.37831E-06   -0.40991E-06  4540   0.364E-03
  35 F= -.85957215E+03 E0= -.85957215E+03  d E =-.274371E-03  mag=     0.0000
       N       E                     dE             d eps       ncg     rms          rms(c)
DAV:   1    -0.851704144173E+03   -0.19866E-03   -0.39608E-02  4380   0.383E-01    0.371E-02
DAV:   2    -0.851704206209E+03   -0.62036E-04   -0.81912E-04  4320   0.505E-02    0.288E-02
DAV:   3    -0.851704200617E+03    0.55921E-05   -0.14617E-05  5440   0.804E-03    0.218E-02
DAV:   4    -0.851704205945E+03   -0.53285E-05   -0.22148E-05  4180   0.102E-02    0.599E-03
DAV:   5    -0.851704206396E+03   -0.45101E-06   -0.58638E-06  4640   0.439E-03
  36 F= -.85957242E+03 E0= -.85957242E+03  d E =-.270982E-03  mag=    -0.0000
       N       E                     dE             d eps       ncg     rms          rms(c)
DAV:   1    -0.851704382287E+03   -0.17634E-03   -0.47074E-02  4400   0.419E-01    0.402E-02
DAV:   2    -0.851704446858E+03   -0.64571E-04   -0.90017E-04  4340   0.541E-02    0.322E-02
DAV:   3    -0.851704439488E+03    0.73696E-05   -0.18487E-05  5380   0.917E-03    0.240E-02
DAV:   4    -0.851704445544E+03   -0.60562E-05   -0.26794E-05  4160   0.112E-02    0.675E-03
DAV:   5    -0.851704446011E+03   -0.46688E-06   -0.93597E-06  4620   0.558E-03
  37 F= -.85957266E+03 E0= -.85957266E+03  d E =-.245523E-03  mag=     0.0000
       N       E                     dE             d eps       ncg     rms          rms(c)
DAV:   1    -0.851704514031E+03   -0.68486E-04   -0.59798E-02  4400   0.469E-01    0.453E-02
DAV:   2    -0.851704575779E+03   -0.61749E-04   -0.98426E-04  4360   0.588E-02    0.388E-02
DAV:   3    -0.851704563442E+03    0.12338E-04   -0.29980E-05  5380   0.117E-02    0.277E-02
DAV:   4    -0.851704568783E+03   -0.53416E-05   -0.34698E-05  4340   0.127E-02    0.811E-03
DAV:   5    -0.851704569406E+03   -0.62307E-06   -0.17800E-05  4620   0.744E-03    0.260E-03
DAV:   6    -0.851704569623E+03   -0.21681E-06   -0.63118E-07  3340   0.156E-03
  38 F= -.85957278E+03 E0= -.85957278E+03  d E =-.121035E-03  mag=    -0.0000
       N       E                     dE             d eps       ncg     rms          rms(c)
DAV:   1    -0.851704488100E+03    0.81306E-04   -0.97726E-02  4400   0.588E-01    0.575E-02
DAV:   2    -0.851704568223E+03   -0.80122E-04   -0.14468E-03  4340   0.711E-02    0.506E-02
DAV:   3    -0.851704544544E+03    0.23678E-04   -0.55920E-05  5220   0.159E-02    0.346E-02
DAV:   4    -0.851704550756E+03   -0.62114E-05   -0.45374E-05  4480   0.146E-02    0.102E-02
DAV:   5    -0.851704552827E+03   -0.20715E-05   -0.28837E-05  4580   0.868E-03    0.303E-03
DAV:   6    -0.851704553135E+03   -0.30779E-06   -0.70340E-07  3340   0.171E-03
  39 F= -.85957276E+03 E0= -.85957276E+03  d E =0.237494E-04  mag=     0.0000
       N       E                     dE             d eps       ncg     rms          rms(c)
DAV:   1    -0.851704315262E+03    0.23757E-03   -0.17901E-01  4400   0.792E-01    0.781E-02
DAV:   2    -0.851704453662E+03   -0.13840E-03   -0.26225E-03  4360   0.949E-02    0.694E-02
DAV:   3    -0.851704405924E+03    0.47738E-04   -0.11194E-04  5180   0.226E-02    0.462E-02
DAV:   4    -0.851704414492E+03   -0.85679E-05   -0.77553E-05  4740   0.182E-02    0.150E-02
DAV:   5    -0.851704419406E+03   -0.49140E-05   -0.36331E-05  4600   0.991E-03    0.422E-03
DAV:   6    -0.851704420232E+03   -0.82610E-06   -0.10817E-06  3240   0.222E-03
  40 F= -.85957262E+03 E0= -.85957262E+03  d E =0.141018E-03  mag=     0.0000
       N       E                     dE             d eps       ncg     rms          rms(c)
DAV:   1    -0.851704044383E+03    0.37502E-03   -0.31358E-01  4420   0.105E+00    0.102E-01
DAV:   2    -0.851704286510E+03   -0.24213E-03   -0.45905E-03  4360   0.127E-01    0.918E-02
DAV:   3    -0.851704201255E+03    0.85255E-04   -0.19810E-04  5160   0.304E-02    0.600E-02
DAV:   4    -0.851704215649E+03   -0.14394E-04   -0.13762E-04  4740   0.236E-02    0.195E-02
DAV:   5    -0.851704223455E+03   -0.78061E-05   -0.60810E-05  4600   0.130E-02    0.566E-03
DAV:   6    -0.851704225080E+03   -0.16241E-05   -0.22369E-06  3380   0.341E-03    0.391E-03
DAV:   7    -0.851704224974E+03    0.10571E-06   -0.64261E-07  3840   0.176E-03
  41 F= -.85957242E+03 E0= -.85957242E+03  d E =0.203801E-03  mag=     0.0000
       N       E                     dE             d eps       ncg     rms          rms(c)
DAV:   1    -0.851703865400E+03    0.35968E-03   -0.53563E-01  4420   0.138E+00    0.135E-01
DAV:   2    -0.851704301685E+03   -0.43629E-03   -0.80522E-03  4400   0.169E-01    0.120E-01
DAV:   3    -0.851704161305E+03    0.14038E-03   -0.32510E-04  5160   0.391E-02    0.799E-02
DAV:   4    -0.851704181959E+03   -0.20654E-04   -0.24478E-04  4740   0.322E-02    0.249E-02
DAV:   5    -0.851704192857E+03   -0.10898E-04   -0.12055E-04  4600   0.183E-02    0.781E-03
DAV:   6    -0.851704196007E+03   -0.31497E-05   -0.41776E-06  3900   0.453E-03    0.509E-03
DAV:   7    -0.851704196065E+03   -0.58470E-07   -0.10239E-06  3880   0.216E-03
  42 F= -.85957238E+03 E0= -.85957238E+03  d E =0.406736E-04  mag=    -0.0000
       N       E                     dE             d eps       ncg     rms          rms(c)
DAV:   1    -0.851703913100E+03    0.28291E-03   -0.88411E-01  4400   0.177E+00    0.175E-01
DAV:   2    -0.851704658572E+03   -0.74547E-03   -0.13433E-02  4440   0.217E-01    0.154E-01
DAV:   3    -0.851704435801E+03    0.22277E-03   -0.50744E-04  5120   0.487E-02    0.105E-01
DAV:   4    -0.851704470736E+03   -0.34935E-04   -0.41366E-04  4580   0.433E-02    0.314E-02
DAV:   5    -0.851704488792E+03   -0.18056E-04   -0.23647E-04  4600   0.247E-02    0.989E-03
DAV:   6    -0.851704493249E+03   -0.44571E-05   -0.61349E-06  4280   0.531E-03    0.671E-03
DAV:   7    -0.851704493511E+03   -0.26169E-06   -0.16193E-06  3720   0.268E-03
  43 F= -.85957265E+03 E0= -.85957265E+03  d E =-.274299E-03  mag=     0.0000
       N       E                     dE             d eps       ncg     rms          rms(c)
DAV:   1    -0.851704046753E+03    0.44650E-03   -0.12794E+00  4400   0.213E+00    0.211E-01
DAV:   2    -0.851705111660E+03   -0.10649E-02   -0.19151E-02  4480   0.259E-01    0.187E-01
DAV:   3    -0.851704778688E+03    0.33297E-03   -0.73460E-04  5120   0.588E-02    0.127E-01
DAV:   4    -0.851704825690E+03   -0.47002E-04   -0.63753E-04  4620   0.539E-02    0.384E-02
DAV:   5    -0.851704848692E+03   -0.23002E-04   -0.37746E-04  4620   0.315E-02    0.122E-02
DAV:   6    -0.851704855201E+03   -0.65091E-05   -0.10566E-05  4540   0.717E-03    0.822E-03
DAV:   7    -0.851704855382E+03   -0.18015E-06   -0.27021E-06  4460   0.337E-03
  44 F= -.85957297E+03 E0= -.85957297E+03  d E =-.319103E-03  mag=     0.0000
       N       E                     dE             d eps       ncg     rms          rms(c)
DAV:   1    -0.851703659336E+03    0.11959E-02   -0.15289E+00  4380   0.231E+00    0.231E-01
DAV:   2    -0.851704957252E+03   -0.12979E-02   -0.23123E-02  4500   0.280E-01    0.205E-01
DAV:   3    -0.851704545607E+03    0.41165E-03   -0.91774E-04  5280   0.644E-02    0.141E-01
DAV:   4    -0.851704569134E+03   -0.23527E-04   -0.74129E-04  4640   0.586E-02    0.433E-02
DAV:   5    -0.851704602797E+03   -0.33663E-04   -0.40963E-04  4640   0.322E-02    0.143E-02
DAV:   6    -0.851704611670E+03   -0.88726E-05   -0.11606E-05  4640   0.697E-03    0.938E-03
DAV:   7    -0.851704611812E+03   -0.14281E-06   -0.30240E-06  4280   0.357E-03
  45 F= -.85957271E+03 E0= -.85957271E+03  d E =0.259823E-03  mag=    -0.0000
       N       E                     dE             d eps       ncg     rms          rms(c)
DAV:   1    -0.851705050677E+03   -0.43901E-03   -0.17318E-02  4360   0.270E-01    0.293E-02
DAV:   2    -0.851705082211E+03   -0.31534E-04   -0.43795E-04  5280   0.395E-02    0.256E-02
DAV:   3    -0.851705074848E+03    0.73632E-05   -0.19560E-05  5700   0.847E-03    0.194E-02
DAV:   4    -0.851705068952E+03    0.58965E-05   -0.14624E-05  4420   0.832E-03    0.828E-03
DAV:   5    -0.851705068930E+03    0.21442E-07   -0.47881E-06  3700   0.412E-03
  46 F= -.85957317E+03 E0= -.85957317E+03  d E =-.457801E-03  mag=    -0.0000
       N       E                     dE             d eps       ncg     rms          rms(c)
DAV:   1    -0.851705025220E+03    0.43732E-04   -0.31726E-02  4320   0.359E-01    0.385E-02
DAV:   2    -0.851705084177E+03   -0.58957E-04   -0.77795E-04  4980   0.518E-02    0.315E-02
DAV:   3    -0.851705074411E+03    0.97665E-05   -0.27775E-05  5720   0.103E-02    0.237E-02
DAV:   4    -0.851705069180E+03    0.52301E-05   -0.21746E-05  4460   0.102E-02    0.973E-03
DAV:   5    -0.851705069929E+03   -0.74817E-06   -0.67142E-06  4340   0.484E-03
  47 F= -.85957317E+03 E0= -.85957317E+03  d E =-.159016E-05  mag=     0.0000
       N       E                     dE             d eps       ncg     rms          rms(c)
DAV:   1    -0.851705174476E+03   -0.10530E-03   -0.71143E-04  4360   0.547E-02    0.616E-03
DAV:   2    -0.851705175602E+03   -0.11261E-05   -0.18411E-05  5200   0.803E-03    0.552E-03
DAV:   3    -0.851705175226E+03    0.37636E-06   -0.74104E-07  2480   0.183E-03
  48 F= -.85957327E+03 E0= -.85957327E+03  d E =-.106442E-03  mag=    -0.0000
       N       E                     dE             d eps       ncg     rms          rms(c)
DAV:   1    -0.851705312819E+03   -0.13722E-03   -0.24152E-03  4320   0.101E-01    0.114E-02
DAV:   2    -0.851705316940E+03   -0.41212E-05   -0.57727E-05  5260   0.142E-02    0.100E-02
DAV:   3    -0.851705315982E+03    0.95774E-06   -0.20995E-06  3680   0.296E-03
  49 F= -.85957342E+03 E0= -.85957342E+03  d E =-.142901E-03  mag=     0.0000
       N       E                     dE             d eps       ncg     rms          rms(c)
DAV:   1    -0.851705405716E+03   -0.88776E-04   -0.42236E-03  4320   0.132E-01    0.149E-02
DAV:   2    -0.851705412943E+03   -0.72268E-05   -0.96744E-05  5040   0.182E-02    0.127E-02
DAV:   3    -0.851705411689E+03    0.12545E-05   -0.31583E-06  4420   0.360E-03    0.970E-03
DAV:   4    -0.851705411254E+03    0.43483E-06   -0.52896E-06  4120   0.491E-03
  50 F= -.85957352E+03 E0= -.85957352E+03  d E =-.981508E-04  mag=     0.0000
       N       E                     dE             d eps       ncg     rms          rms(c)
DAV:   1    -0.851705446926E+03   -0.35237E-04   -0.54216E-03  4380   0.146E-01    0.154E-02
DAV:   2    -0.851705456791E+03   -0.98654E-05   -0.12649E-04  4440   0.204E-02    0.126E-02
DAV:   3    -0.851705455626E+03    0.11646E-05   -0.30541E-06  4700   0.362E-03    0.976E-03
DAV:   4    -0.851705455675E+03   -0.48974E-07   -0.55413E-06  4020   0.499E-03
  51 F= -.85957356E+03 E0= -.85957356E+03  d E =-.478343E-04  mag=    -0.0000
       N       E                     dE             d eps       ncg     rms          rms(c)
DAV:   1    -0.851705506289E+03   -0.50663E-04   -0.59234E-03  4400   0.148E-01    0.156E-02
DAV:   2    -0.851705516436E+03   -0.10147E-04   -0.12923E-04  4320   0.198E-02    0.119E-02
DAV:   3    -0.851705515716E+03    0.72051E-06   -0.20012E-06  4280   0.311E-03
  52 F= -.85957363E+03 E0= -.85957363E+03  d E =-.640177E-04  mag=     0.0000
       N       E                     dE             d eps       ncg     rms          rms(c)
DAV:   1    -0.851705633682E+03   -0.11725E-03   -0.64365E-03  4380   0.152E-01    0.163E-02
DAV:   2    -0.851705643803E+03   -0.10121E-04   -0.13084E-04  4320   0.194E-02    0.121E-02
DAV:   3    -0.851705643440E+03    0.36298E-06   -0.17491E-06  4220   0.288E-03
  53 F= -.85957376E+03 E0= -.85957376E+03  d E =-.132519E-03  mag=    -0.0000
       N       E                     dE             d eps       ncg     rms          rms(c)
DAV:   1    -0.851705826454E+03   -0.18265E-03   -0.90754E-03  4380   0.183E-01    0.193E-02
DAV:   2    -0.851705841290E+03   -0.14836E-04   -0.19080E-04  4320   0.240E-02    0.149E-02
DAV:   3    -0.851705840367E+03    0.92269E-06   -0.34240E-06  4980   0.383E-03
  54 F= -.85957396E+03 E0= -.85957396E+03  d E =-.202648E-03  mag=    -0.0000
       N       E                     dE             d eps       ncg     rms          rms(c)
DAV:   1    -0.851705996502E+03   -0.15521E-03   -0.11460E-02  4360   0.210E-01    0.230E-02
DAV:   2    -0.851706014559E+03   -0.18057E-04   -0.24261E-04  4440   0.278E-02    0.186E-02
DAV:   3    -0.851706012878E+03    0.16806E-05   -0.58626E-06  5320   0.493E-03    0.141E-02
DAV:   4    -0.851706014370E+03   -0.14921E-05   -0.77587E-06  4140   0.615E-03    0.417E-03
DAV:   5    -0.851706014595E+03   -0.22447E-06   -0.18292E-06  3660   0.251E-03
  55 F= -.85957414E+03 E0= -.85957414E+03  d E =-.180281E-03  mag=     0.0000
       N       E                     dE             d eps       ncg     rms          rms(c)
DAV:   1    -0.851706095246E+03   -0.80875E-04   -0.13194E-02  4380   0.224E-01    0.232E-02
DAV:   2    -0.851706116669E+03   -0.21423E-04   -0.28219E-04  4400   0.301E-02    0.187E-02
DAV:   3    -0.851706114207E+03    0.24621E-05   -0.65336E-06  5280   0.528E-03    0.142E-02
DAV:   4    -0.851706115187E+03   -0.98016E-06   -0.93041E-06  4160   0.650E-03
  56 F= -.85957425E+03 E0= -.85957425E+03  d E =-.106275E-03  mag=    -0.0000
       N       E                     dE             d eps       ncg     rms          rms(c)
DAV:   1    -0.851706211355E+03   -0.97148E-04   -0.14710E-02  4400   0.231E-01    0.252E-02
DAV:   2    -0.851706231178E+03   -0.19823E-04   -0.27650E-04  4400   0.297E-02    0.195E-02
DAV:   3    -0.851706229398E+03    0.17800E-05   -0.53160E-06  5040   0.498E-03    0.145E-02
DAV:   4    -0.851706232412E+03   -0.30141E-05   -0.91692E-06  4160   0.643E-03    0.393E-03
DAV:   5    -0.851706232334E+03    0.78151E-07   -0.25583E-06  3950   0.300E-03
  57 F= -.85957437E+03 E0= -.85957437E+03  d E =-.121711E-03  mag=     0.0000
       N       E                     dE             d eps       ncg     rms          rms(c)
DAV:   1    -0.851706369520E+03   -0.13711E-03   -0.21505E-02  4400   0.279E-01    0.290E-02
DAV:   2    -0.851706397380E+03   -0.27860E-04   -0.39795E-04  4420   0.361E-02    0.228E-02
DAV:   3    -0.851706393805E+03    0.35753E-05   -0.94778E-06  5460   0.641E-03    0.169E-02
DAV:   4    -0.851706396120E+03   -0.23151E-05   -0.12076E-05  4160   0.750E-03    0.476E-03
DAV:   5    -0.851706396479E+03   -0.35886E-06   -0.34764E-06  3940   0.323E-03
  58 F= -.85957454E+03 E0= -.85957454E+03  d E =-.167308E-03  mag=     0.0000
       N       E                     dE             d eps       ncg     rms          rms(c)
DAV:   1    -0.851706444514E+03   -0.48394E-04   -0.33113E-02  4380   0.344E-01    0.361E-02
DAV:   2    -0.851706484398E+03   -0.39884E-04   -0.60370E-04  4440   0.448E-02    0.289E-02
DAV:   3    -0.851706477837E+03    0.65610E-05   -0.17904E-05  5500   0.874E-03    0.210E-02
DAV:   4    -0.851706479569E+03   -0.17319E-05   -0.15729E-05  4280   0.874E-03    0.671E-03
DAV:   5    -0.851706480699E+03   -0.11307E-05   -0.57334E-06  4340   0.393E-03    0.297E-03
DAV:   6    -0.851706480710E+03   -0.10798E-07   -0.56495E-07  3040   0.145E-03
  59 F= -.85957463E+03 E0= -.85957463E+03  d E =-.869526E-04  mag=     0.0000
       N       E                     dE             d eps       ncg     rms          rms(c)
DAV:   1    -0.851706486948E+03   -0.62490E-05   -0.43238E-02  4400   0.391E-01    0.402E-02
DAV:   2    -0.851706531066E+03   -0.44118E-04   -0.72284E-04  4400   0.497E-02    0.326E-02
DAV:   3    -0.851706522049E+03    0.90167E-05   -0.23447E-05  5360   0.103E-02    0.229E-02
DAV:   4    -0.851706524293E+03   -0.22436E-05   -0.17579E-05  4380   0.930E-03    0.726E-03
DAV:   5    -0.851706525741E+03   -0.14479E-05   -0.79000E-06  4520   0.441E-03    0.268E-03
DAV:   6    -0.851706525832E+03   -0.91539E-07   -0.42504E-07  3120   0.125E-03
  60 F= -.85957468E+03 E0= -.85957468E+03  d E =-.501154E-04  mag=     0.0000
       N       E                     dE             d eps       ncg     rms          rms(c)
DAV:   1    -0.851706572776E+03   -0.47036E-04   -0.57795E-02  4380   0.459E-01    0.445E-02
DAV:   2    -0.851706628789E+03   -0.56013E-04   -0.94668E-04  4320   0.576E-02    0.391E-02
DAV:   3    -0.851706614366E+03    0.14423E-04   -0.34797E-05  5380   0.123E-02    0.275E-02
DAV:   4    -0.851706615920E+03   -0.15539E-05   -0.27895E-05  4360   0.117E-02    0.864E-03
DAV:   5    -0.851706617402E+03   -0.14822E-05   -0.14032E-05  4560   0.594E-03    0.298E-03
DAV:   6    -0.851706617711E+03   -0.30881E-06   -0.40850E-07  3040   0.123E-03
  61 F= -.85957477E+03 E0= -.85957477E+03  d E =-.982913E-04  mag=    -0.0000
       N       E                     dE             d eps       ncg     rms          rms(c)
DAV:   1    -0.851706668301E+03   -0.50899E-04   -0.81975E-02  4400   0.542E-01    0.517E-02
DAV:   2    -0.851706739491E+03   -0.71189E-04   -0.12723E-03  4320   0.667E-02    0.470E-02
DAV:   3    -0.851706717472E+03    0.22019E-04   -0.52263E-05  5280   0.154E-02    0.320E-02
DAV:   4    -0.851706720039E+03   -0.25668E-05   -0.37560E-05  4500   0.133E-02    0.104E-02
DAV:   5    -0.851706722158E+03   -0.21193E-05   -0.21690E-05  4560   0.753E-03    0.327E-03
DAV:   6    -0.851706722693E+03   -0.53554E-06   -0.71669E-07  2920   0.193E-03
  62 F= -.85957489E+03 E0= -.85957489E+03  d E =-.113276E-03  mag=    -0.0000
       N       E                     dE             d eps       ncg     rms          rms(c)
DAV:   1    -0.851706886342E+03   -0.16418E-03   -0.12761E-01  4380   0.673E-01    0.647E-02
DAV:   2    -0.851706996022E+03   -0.10968E-03   -0.19650E-03  4320   0.822E-02    0.588E-02
DAV:   3    -0.851706961791E+03    0.34231E-04   -0.80913E-05  5300   0.191E-02    0.402E-02
DAV:   4    -0.851706964831E+03   -0.30399E-05   -0.55948E-05  4520   0.161E-02    0.135E-02
DAV:   5    -0.851706968571E+03   -0.37400E-05   -0.28685E-05  4580   0.859E-03    0.429E-03
DAV:   6    -0.851706969581E+03   -0.10093E-05   -0.95025E-07  3000   0.217E-03    0.269E-03
DAV:   7    -0.851706969563E+03    0.17411E-07   -0.30773E-07  3440   0.122E-03
  63 F= -.85957514E+03 E0= -.85957514E+03  d E =-.254673E-03  mag=    -0.0000
       N       E                     dE             d eps       ncg     rms          rms(c)
DAV:   1    -0.851707162331E+03   -0.19275E-03   -0.19517E-01  4400   0.828E-01    0.800E-02
DAV:   2    -0.851707322841E+03   -0.16051E-03   -0.29312E-03  4320   0.100E-01    0.731E-02
DAV:   3    -0.851707268897E+03    0.53943E-04   -0.11900E-04  5240   0.233E-02    0.497E-02
DAV:   4    -0.851707275113E+03   -0.62161E-05   -0.92661E-05  4580   0.205E-02    0.155E-02
DAV:   5    -0.851707279770E+03   -0.46561E-05   -0.50483E-05  4640   0.114E-02    0.524E-03
DAV:   6    -0.851707281254E+03   -0.14845E-05   -0.16961E-06  3100   0.309E-03    0.338E-03
DAV:   7    -0.851707281169E+03    0.85114E-07   -0.53960E-07  3720   0.162E-03
  64 F= -.85957546E+03 E0= -.85957546E+03  d E =-.315939E-03  mag=    -0.0000
       N       E                     dE             d eps       ncg     rms          rms(c)
DAV:   1    -0.851707411905E+03   -0.13065E-03   -0.28167E-01  4400   0.998E-01    0.970E-02
DAV:   2    -0.851707643151E+03   -0.23125E-03   -0.42559E-03  4360   0.121E-01    0.891E-02
DAV:   3    -0.851707561684E+03    0.81467E-04   -0.18452E-04  5260   0.292E-02    0.598E-02
DAV:   4    -0.851707569986E+03   -0.83020E-05   -0.13254E-04  4560   0.244E-02    0.197E-02
DAV:   5    -0.851707576919E+03   -0.69330E-05   -0.71376E-05  4620   0.138E-02    0.638E-03
DAV:   6    -0.851707579096E+03   -0.21766E-05   -0.32354E-06  3860   0.419E-03    0.416E-03
DAV:   7    -0.851707578878E+03    0.21797E-06   -0.85142E-07  3780   0.197E-03
  65 F= -.85957576E+03 E0= -.85957576E+03  d E =-.298388E-03  mag=     0.0000
       N       E                     dE             d eps       ncg     rms          rms(c)
DAV:   1    -0.851707632449E+03   -0.53353E-04   -0.38518E-01  4400   0.117E+00    0.113E-01
DAV:   2    -0.851707962773E+03   -0.33032E-03   -0.59113E-03  4380   0.142E-01    0.103E-01
DAV:   3    -0.851707857311E+03    0.10546E-03   -0.23671E-04  5340   0.324E-02    0.708E-02
DAV:   4    -0.851707865548E+03   -0.82369E-05   -0.18225E-04  4560   0.292E-02    0.224E-02
DAV:   5    -0.851707876361E+03   -0.10813E-04   -0.10009E-04  4620   0.158E-02    0.734E-03
DAV:   6    -0.851707879132E+03   -0.27710E-05   -0.29990E-06  3660   0.379E-03    0.471E-03
DAV:   7    -0.851707879039E+03    0.92863E-07   -0.10068E-06  3920   0.209E-03
  66 F= -.85957605E+03 E0= -.85957605E+03  d E =-.297025E-03  mag=    -0.0000
       N       E                     dE             d eps       ncg     rms          rms(c)
DAV:   1    -0.851707852746E+03    0.26386E-04   -0.49604E-01  4400   0.134E+00    0.128E-01
DAV:   2    -0.851708297868E+03   -0.44512E-03   -0.78015E-03  4380   0.165E-01    0.117E-01
DAV:   3    -0.851708161973E+03    0.13590E-03   -0.31558E-04  5360   0.375E-02    0.803E-02
DAV:   4    -0.851708172141E+03   -0.10169E-04   -0.24042E-04  4600   0.337E-02    0.258E-02
DAV:   5    -0.851708185894E+03   -0.13753E-04   -0.13538E-04  4620   0.188E-02    0.876E-03
DAV:   6    -0.851708189503E+03   -0.36085E-05   -0.51418E-06  4280   0.501E-03    0.541E-03
DAV:   7    -0.851708189331E+03    0.17106E-06   -0.13037E-06  3940   0.245E-03
  67 F= -.85957637E+03 E0= -.85957637E+03  d E =-.316478E-03  mag=     0.0000
       N       E                     dE             d eps       ncg     rms          rms(c)
DAV:   1    -0.851707654344E+03    0.53516E-03   -0.75139E-01  4380   0.166E+00    0.160E-01
DAV:   2    -0.851708457384E+03   -0.80304E-03   -0.12957E-02  4500   0.212E-01    0.145E-01
DAV:   3    -0.851708257253E+03    0.20013E-03   -0.46353E-04  5520   0.438E-02    0.105E-01
DAV:   4    -0.851708242258E+03    0.14995E-04   -0.43802E-04  4780   0.458E-02    0.331E-02
DAV:   5    -0.851708262649E+03   -0.20391E-04   -0.17705E-04  4660   0.216E-02    0.132E-02
DAV:   6    -0.851708269134E+03   -0.64847E-05   -0.86931E-06  4790   0.503E-03    0.715E-03
DAV:   7    -0.851708269029E+03    0.10452E-06   -0.11980E-06  3770   0.238E-03
  68 F= -.85957643E+03 E0= -.85957643E+03  d E =-.651015E-04  mag=     0.0000
       N       E                     dE             d eps       ncg     rms          rms(c)
DAV:   1    -0.851708997493E+03   -0.72836E-03   -0.34012E-02  4380   0.377E-01    0.414E-02
DAV:   2    -0.851709058341E+03   -0.60849E-04   -0.86078E-04  5380   0.545E-02    0.381E-02
DAV:   3    -0.851709043042E+03    0.15299E-04   -0.38812E-05  5720   0.115E-02    0.297E-02
DAV:   4    -0.851709028403E+03    0.14639E-04   -0.32966E-05  4480   0.123E-02    0.127E-02
DAV:   5    -0.851709027885E+03    0.51826E-06   -0.10098E-05  4540   0.584E-03    0.508E-03
DAV:   6    -0.851709028029E+03   -0.14440E-06   -0.84318E-07  3020   0.194E-03
  69 F= -.85957719E+03 E0= -.85957719E+03  d E =-.759474E-03  mag=    -0.0000
       N       E                     dE             d eps       ncg     rms          rms(c)
DAV:   1    -0.851708524113E+03    0.50377E-03   -0.32687E-02  4340   0.371E-01    0.405E-02
DAV:   2    -0.851708583381E+03   -0.59268E-04   -0.82585E-04  5280   0.535E-02    0.370E-02
DAV:   3    -0.851708569958E+03    0.13423E-04   -0.36886E-05  5720   0.114E-02    0.288E-02
DAV:   4    -0.851708558194E+03    0.11764E-04   -0.31832E-05  4480   0.121E-02    0.124E-02
DAV:   5    -0.851708558053E+03    0.14152E-06   -0.89734E-06  4420   0.557E-03
  70 F= -.85957673E+03 E0= -.85957673E+03  d E =0.468872E-03  mag=     0.0000
       N       E                     dE             d eps       ncg     rms          rms(c)
DAV:   1    -0.851708803691E+03   -0.24550E-03   -0.18216E-03  4360   0.869E-02    0.957E-03
DAV:   2    -0.851708806711E+03   -0.30198E-05   -0.48267E-05  5420   0.127E-02    0.906E-03
DAV:   3    -0.851708805713E+03    0.99812E-06   -0.20046E-06  3340   0.275E-03
  71 F= -.85957697E+03 E0= -.85957697E+03  d E =-.248457E-03  mag=    -0.0000
       N       E                     dE             d eps       ncg     rms          rms(c)
DAV:   1    -0.851709058618E+03   -0.25191E-03   -0.56153E-03  4380   0.153E-01    0.185E-02
DAV:   2    -0.851709066965E+03   -0.83464E-05   -0.12973E-04  5420   0.210E-02    0.169E-02
DAV:   3    -0.851709063785E+03    0.31802E-05   -0.69683E-06  5520   0.501E-03    0.126E-02
DAV:   4    -0.851709061681E+03    0.21033E-05   -0.60157E-06  4280   0.533E-03    0.486E-03
DAV:   5    -0.851709061681E+03    0.24011E-09   -0.16573E-06  3280   0.234E-03
  72 F= -.85957723E+03 E0= -.85957723E+03  d E =-.257334E-03  mag=    -0.0000
       N       E                     dE             d eps       ncg     rms          rms(c)
DAV:   1    -0.851709077177E+03   -0.15495E-04   -0.83258E-03  4340   0.186E-01    0.197E-02
DAV:   2    -0.851709091742E+03   -0.14565E-04   -0.20269E-04  5340   0.262E-02    0.182E-02
DAV:   3    -0.851709088578E+03    0.31632E-05   -0.86548E-06  5600   0.543E-03    0.144E-02
DAV:   4    -0.851709085711E+03    0.28674E-05   -0.77021E-06  4220   0.594E-03    0.604E-03
DAV:   5    -0.851709085718E+03   -0.68612E-08   -0.21691E-06  3360   0.272E-03
  73 F= -.85957726E+03 E0= -.85957726E+03  d E =-.251812E-04  mag=     0.0000
       N       E                     dE             d eps       ncg     rms          rms(c)
DAV:   1    -0.851708903403E+03    0.18231E-03   -0.69015E-03  4320   0.167E-01    0.170E-02
DAV:   2    -0.851708914161E+03   -0.10757E-04   -0.15314E-04  5080   0.228E-02    0.158E-02
DAV:   3    -0.851708911993E+03    0.21676E-05   -0.58698E-06  5060   0.459E-03    0.126E-02
DAV:   4    -0.851708910448E+03    0.15449E-05   -0.68679E-06  4160   0.555E-03    0.474E-03
DAV:   5    -0.851708910554E+03   -0.10556E-06   -0.16746E-06  3260   0.235E-03
  74 F= -.85957708E+03 E0= -.85957708E+03  d E =0.174441E-03  mag=    -0.0000
       N       E                     dE             d eps       ncg     rms          rms(c)
DAV:   1    -0.851708931143E+03   -0.20695E-04   -0.45053E-05  4320   0.136E-02    0.173E-03
DAV:   2    -0.851708931186E+03   -0.43561E-07   -0.11114E-06  2500   0.204E-03
  75 F= -.85957710E+03 E0= -.85957710E+03  d E =-.205557E-04  mag=    -0.0000
       N       E                     dE             d eps       ncg     rms          rms(c)
DAV:   1    -0.851708966880E+03   -0.35737E-04   -0.16007E-04  4360   0.257E-02    0.358E-03
DAV:   2    -0.851708967051E+03   -0.17053E-06   -0.36836E-06  4520   0.362E-03
  76 F= -.85957714E+03 E0= -.85957714E+03  d E =-.357177E-04  mag=     0.0000
       N       E                     dE             d eps       ncg     rms          rms(c)
DAV:   1    -0.851709008408E+03   -0.41527E-04   -0.32858E-04  4340   0.368E-02    0.572E-03
DAV:   2    -0.851709008709E+03   -0.30162E-06   -0.73686E-06  5480   0.505E-03
  77 F= -.85957718E+03 E0= -.85957718E+03  d E =-.414290E-04  mag=    -0.0000
       N       E                     dE             d eps       ncg     rms          rms(c)
DAV:   1    -0.851709044911E+03   -0.36504E-04   -0.51553E-04  4340   0.461E-02    0.753E-03
DAV:   2    -0.851709045341E+03   -0.43010E-06   -0.11111E-05  5520   0.619E-03    0.668E-03
DAV:   3    -0.851709044804E+03    0.53734E-06   -0.11189E-06  2700   0.233E-03
  78 F= -.85957722E+03 E0= -.85957722E+03  d E =-.357601E-04  mag=     0.0000
       N       E                     dE             d eps       ncg     rms          rms(c)
DAV:   1    -0.851709065516E+03   -0.20175E-04   -0.68938E-04  4340   0.531E-02    0.617E-03
DAV:   2    -0.851709066576E+03   -0.10599E-05   -0.14549E-05  5440   0.701E-03    0.571E-03
DAV:   3    -0.851709066337E+03    0.23910E-06   -0.43025E-07  2540   0.142E-03
  79 F= -.85957724E+03 E0= -.85957724E+03  d E =-.211051E-04  mag=     0.0000
       N       E                     dE             d eps       ncg     rms          rms(c)
DAV:   1    -0.851709066502E+03    0.74637E-07   -0.80229E-04  4320   0.570E-02    0.613E-03
DAV:   2    -0.851709067667E+03   -0.11656E-05   -0.15925E-05  5400   0.734E-03    0.570E-03
DAV:   3    -0.851709067430E+03    0.23737E-06   -0.45709E-07  2700   0.145E-03
  80 F= -.85957724E+03 E0= -.85957724E+03  d E =-.564211E-06  mag=    -0.0000
       N       E                     dE             d eps       ncg     rms          rms(c)
DAV:   1    -0.851709045929E+03    0.21739E-04   -0.10609E-03  4320   0.648E-02    0.688E-03
DAV:   2    -0.851709047302E+03   -0.13732E-05   -0.19815E-05  4980   0.822E-03    0.637E-03
DAV:   3    -0.851709047011E+03    0.29099E-06   -0.62756E-07  3160   0.170E-03
  81 F= -.85957722E+03 E0= -.85957722E+03  d E =0.210833E-04  mag=    -0.0000
       N       E                     dE             d eps       ncg     rms          rms(c)
DAV:   1    -0.851709010419E+03    0.36882E-04   -0.13186E-03  4320   0.707E-02    0.754E-03
DAV:   2    -0.851709011856E+03   -0.14366E-05   -0.22219E-05  4680   0.875E-03    0.688E-03
DAV:   3    -0.851709011537E+03    0.31912E-06   -0.71138E-07  3560   0.186E-03
  82 F= -.85957718E+03 E0= -.85957718E+03  d E =0.362473E-04  mag=    -0.0000
       N       E                     dE             d eps       ncg     rms          rms(c)
DAV:   1    -0.851708975590E+03    0.36266E-04   -0.17031E-03  4320   0.785E-02    0.834E-03
DAV:   2    -0.851708977130E+03   -0.15396E-05   -0.25920E-05  4420   0.947E-03    0.747E-03
DAV:   3    -0.851708976814E+03    0.31546E-06   -0.89382E-07  3420   0.207E-03
  83 F= -.85957714E+03 E0= -.85957714E+03  d E =0.355232E-04  mag=    -0.0000
       N       E                     dE             d eps       ncg     rms          rms(c)
DAV:   1    -0.851708955200E+03    0.21930E-04   -0.24612E-03  4400   0.934E-02    0.996E-03
DAV:   2    -0.851708956990E+03   -0.17904E-05   -0.34024E-05  4340   0.109E-02    0.877E-03
DAV:   3    -0.851708956579E+03    0.41128E-06   -0.11942E-06  3600   0.249E-03
  84 F= -.85957712E+03 E0= -.85957712E+03  d E =0.209213E-04  mag=    -0.0000
       N       E                     dE             d eps       ncg     rms          rms(c)
DAV:   1    -0.851708946526E+03    0.10464E-04   -0.39505E-03  4380   0.119E-01    0.126E-02
DAV:   2    -0.851708949746E+03   -0.32204E-05   -0.58398E-05  4360   0.143E-02    0.112E-02
DAV:   3    -0.851708949022E+03    0.72430E-06   -0.20969E-06  4020   0.316E-03
  85 F= -.85957712E+03 E0= -.85957712E+03  d E =0.810937E-05  mag=     0.0000
       N       E                     dE             d eps       ncg     rms          rms(c)
DAV:   1    -0.851708923338E+03    0.26409E-04   -0.65669E-03  4380   0.155E-01    0.164E-02
DAV:   2    -0.851708929019E+03   -0.56817E-05   -0.10068E-04  4400   0.188E-02    0.148E-02
DAV:   3    -0.851708927711E+03    0.13088E-05   -0.38494E-06  4720   0.416E-03    0.102E-02
DAV:   4    -0.851708928470E+03   -0.75922E-06   -0.39261E-06  3900   0.431E-03
  86 F= -.85957709E+03 E0= -.85957709E+03  d E =0.210149E-04  mag=     0.0000
       N       E                     dE             d eps       ncg     rms          rms(c)
DAV:   1    -0.851708846343E+03    0.81367E-04   -0.11064E-02  4400   0.200E-01    0.203E-02
DAV:   2    -0.851708856227E+03   -0.98834E-05   -0.17917E-04  4340   0.252E-02    0.181E-02
DAV:   3    -0.851708853576E+03    0.26509E-05   -0.70547E-06  5320   0.561E-03    0.126E-02
DAV:   4    -0.851708854280E+03   -0.70396E-06   -0.57073E-06  4200   0.522E-03
  87 F= -.85957702E+03 E0= -.85957702E+03  d E =0.746093E-04  mag=     0.0000
       N       E                     dE             d eps       ncg     rms          rms(c)
DAV:   1    -0.851708705129E+03    0.14845E-03   -0.17594E-02  4400   0.251E-01    0.256E-02
DAV:   2    -0.851708719750E+03   -0.14620E-04   -0.27529E-04  4320   0.313E-02    0.225E-02
DAV:   3    -0.851708715821E+03    0.39283E-05   -0.10920E-05  5100   0.717E-03    0.151E-02
DAV:   4    -0.851708717385E+03   -0.15639E-05   -0.83495E-06  4460   0.615E-03    0.482E-03
DAV:   5    -0.851708717883E+03   -0.49791E-06   -0.45909E-06  4200   0.360E-03
  88 F= -.85957688E+03 E0= -.85957688E+03  d E =0.137002E-03  mag=    -0.0000
       N       E                     dE             d eps       ncg     rms          rms(c)
DAV:   1    -0.851708519764E+03    0.19762E-03   -0.28669E-02  4400   0.321E-01    0.317E-02
DAV:   2    -0.851708544771E+03   -0.25006E-04   -0.45148E-04  4320   0.400E-02    0.277E-02
DAV:   3    -0.851708538590E+03    0.61806E-05   -0.16529E-05  5020   0.886E-03    0.187E-02
DAV:   4    -0.851708540868E+03   -0.22779E-05   -0.12699E-05  4460   0.762E-03    0.578E-03
DAV:   5    -0.851708541641E+03   -0.77258E-06   -0.73486E-06  4420   0.451E-03
  89 F= -.85957671E+03 E0= -.85957671E+03  d E =0.177478E-03  mag=     0.0000
       N       E                     dE             d eps       ncg     rms          rms(c)
DAV:   1    -0.851708285184E+03    0.25568E-03   -0.49529E-02  4400   0.423E-01    0.417E-02
DAV:   2    -0.851708331305E+03   -0.46121E-04   -0.80150E-04  4320   0.532E-02    0.363E-02
DAV:   3    -0.851708320906E+03    0.10399E-04   -0.27665E-05  5060   0.114E-02    0.248E-02
DAV:   4    -0.851708324535E+03   -0.36286E-05   -0.22566E-05  4460   0.103E-02    0.753E-03
DAV:   5    -0.851708325761E+03   -0.12262E-05   -0.13566E-05  4480   0.601E-03    0.240E-03
DAV:   6    -0.851708326002E+03   -0.24147E-06   -0.32962E-07  3080   0.124E-03
  90 F= -.85957649E+03 E0= -.85957649E+03  d E =0.218188E-03  mag=     0.0000
       N       E                     dE             d eps       ncg     rms          rms(c)
DAV:   1    -0.851707949534E+03    0.37623E-03   -0.84931E-02  4400   0.555E-01    0.544E-02
DAV:   2    -0.851708033044E+03   -0.83510E-04   -0.14016E-03  4340   0.703E-02    0.473E-02
DAV:   3    -0.851708014818E+03    0.18226E-04   -0.45922E-05  5100   0.145E-02    0.329E-02
DAV:   4    -0.851708019913E+03   -0.50946E-05   -0.40829E-05  4460   0.139E-02    0.966E-03
DAV:   5    -0.851708021694E+03   -0.17812E-05   -0.23713E-05  4540   0.784E-03    0.324E-03
DAV:   6    -0.851708022105E+03   -0.41101E-06   -0.51221E-07  3020   0.153E-03
  91 F= -.85957618E+03 E0= -.85957618E+03  d E =0.308808E-03  mag=    -0.0000
       N       E                     dE             d eps       ncg     rms          rms(c)
DAV:   1    -0.851707513354E+03    0.50834E-03   -0.14052E-01  4400   0.713E-01    0.699E-02
DAV:   2    -0.851707653340E+03   -0.13999E-03   -0.23296E-03  4340   0.903E-02    0.602E-02
DAV:   3    -0.851707624407E+03    0.28933E-04   -0.72643E-05  5060   0.183E-02    0.420E-02
DAV:   4    -0.851707633571E+03   -0.91634E-05   -0.68376E-05  4500   0.180E-02    0.120E-02
DAV:   5    -0.851707636327E+03   -0.27561E-05   -0.39625E-05  4540   0.101E-02    0.399E-03
DAV:   6    -0.851707636948E+03   -0.62176E-06   -0.77671E-07  3260   0.187E-03
  92 F= -.85957578E+03 E0= -.85957578E+03  d E =0.394999E-03  mag=     0.0000
       N       E                     dE             d eps       ncg     rms          rms(c)
DAV:   1    -0.851707061126E+03    0.57520E-03   -0.22516E-01  4420   0.903E-01    0.886E-02
DAV:   2    -0.851707290539E+03   -0.22941E-03   -0.37715E-03  4360   0.115E-01    0.760E-02
DAV:   3    -0.851707244464E+03    0.46075E-04   -0.11430E-04  5100   0.230E-02    0.533E-02
DAV:   4    -0.851707258906E+03   -0.14443E-04   -0.11190E-04  4620   0.229E-02    0.153E-02
DAV:   5    -0.851707263175E+03   -0.42687E-05   -0.61623E-05  4560   0.127E-02    0.508E-03
DAV:   6    -0.851707264199E+03   -0.10243E-05   -0.12409E-06  3420   0.234E-03    0.346E-03
DAV:   7    -0.851707264329E+03   -0.12953E-06   -0.42976E-07  3140   0.141E-03
  93 F= -.85957540E+03 E0= -.85957540E+03  d E =0.387360E-03  mag=    -0.0000
       N       E                     dE             d eps       ncg     rms          rms(c)
DAV:   1    -0.851706533301E+03    0.73090E-03   -0.34881E-01  4420   0.112E+00    0.111E-01
DAV:   2    -0.851706891529E+03   -0.35823E-03   -0.58690E-03  4380   0.143E-01    0.951E-02
DAV:   3    -0.851706818664E+03    0.72865E-04   -0.17704E-04  5200   0.286E-02    0.670E-02
DAV:   4    -0.851706837905E+03   -0.19240E-04   -0.17841E-04  4660   0.289E-02    0.190E-02
DAV:   5    -0.851706844136E+03   -0.62310E-05   -0.95518E-05  4580   0.158E-02    0.641E-03
DAV:   6    -0.851706845779E+03   -0.16435E-05   -0.20384E-06  3600   0.289E-03    0.433E-03
DAV:   7    -0.851706845979E+03   -0.19967E-06   -0.63268E-07  3200   0.167E-03
  94 F= -.85957496E+03 E0= -.85957496E+03  d E =0.435777E-03  mag=    -0.0000
       N       E                     dE             d eps       ncg     rms          rms(c)
DAV:   1    -0.851706073562E+03    0.77222E-03   -0.50950E-01  4420   0.135E+00    0.135E-01
DAV:   2    -0.851706584663E+03   -0.51110E-03   -0.84383E-03  4400   0.172E-01    0.115E-01
DAV:   3    -0.851706476435E+03    0.10823E-03   -0.25720E-04  5140   0.345E-02    0.808E-02
DAV:   4    -0.851706505404E+03   -0.28969E-04   -0.25873E-04  4700   0.348E-02    0.225E-02
DAV:   5    -0.851706514007E+03   -0.86028E-05   -0.14215E-04  4600   0.193E-02    0.747E-03
DAV:   6    -0.851706516137E+03   -0.21294E-05   -0.30061E-06  3900   0.349E-03    0.517E-03
DAV:   7    -0.851706516413E+03   -0.27657E-06   -0.80296E-07  3370   0.190E-03
  95 F= -.85957461E+03 E0= -.85957461E+03  d E =0.347203E-03  mag=     0.0000
       N       E                     dE             d eps       ncg     rms          rms(c)
DAV:   1    -0.851705619939E+03    0.89620E-03   -0.73700E-01  4420   0.162E+00    0.164E-01
DAV:   2    -0.851706353392E+03   -0.73345E-03   -0.12120E-02  4400   0.205E-01    0.139E-01
DAV:   3    -0.851706192486E+03    0.16091E-03   -0.37421E-04  5240   0.416E-02    0.976E-02
DAV:   4    -0.851706229619E+03   -0.37133E-04   -0.37307E-04  4740   0.418E-02    0.273E-02
DAV:   5    -0.851706242676E+03   -0.13057E-04   -0.19788E-04  4620   0.227E-02    0.926E-03
DAV:   6    -0.851706245744E+03   -0.30680E-05   -0.46088E-06  4580   0.407E-03    0.636E-03
DAV:   7    -0.851706246046E+03   -0.30171E-06   -0.10771E-06  3340   0.214E-03
  96 F= -.85957433E+03 E0= -.85957433E+03  d E =0.287416E-03  mag=    -0.0000
       N       E                     dE             d eps       ncg     rms          rms(c)
DAV:   1    -0.851705258358E+03    0.98739E-03   -0.97826E-01  4400   0.186E+00    0.189E-01
DAV:   2    -0.851706187127E+03   -0.92877E-03   -0.15625E-02  4420   0.232E-01    0.162E-01
DAV:   3    -0.851705960174E+03    0.22695E-03   -0.50545E-04  5200   0.483E-02    0.113E-01
DAV:   4    -0.851706004545E+03   -0.44372E-04   -0.51029E-04  4780   0.485E-02    0.317E-02
DAV:   5    -0.851706020409E+03   -0.15864E-04   -0.27175E-04  4620   0.266E-02    0.108E-02
DAV:   6    -0.851706024729E+03   -0.43208E-05   -0.62696E-06  4640   0.488E-03    0.735E-03
DAV:   7    -0.851706025049E+03   -0.31912E-06   -0.15634E-06  3520   0.257E-03
  97 F= -.85957408E+03 E0= -.85957408E+03  d E =0.241790E-03  mag=     0.0000
       N       E                     dE             d eps       ncg     rms          rms(c)
DAV:   1    -0.851704908598E+03    0.11161E-02   -0.11654E+00  4400   0.203E+00    0.204E-01
DAV:   2    -0.851705926790E+03   -0.10182E-02   -0.17821E-02  4460   0.249E-01    0.179E-01
DAV:   3    -0.851705633048E+03    0.29374E-03   -0.64402E-04  5180   0.546E-02    0.123E-01
DAV:   4    -0.851705676930E+03   -0.43882E-04   -0.59804E-04  4580   0.525E-02    0.361E-02
DAV:   5    -0.851705696171E+03   -0.19241E-04   -0.35913E-04  4620   0.305E-02    0.113E-02
DAV:   6    -0.851705701135E+03   -0.49641E-05   -0.84635E-06  4480   0.613E-03    0.793E-03
DAV:   7    -0.851705701299E+03   -0.16356E-06   -0.20990E-06  4180   0.300E-03
  98 F= -.85957373E+03 E0= -.85957373E+03  d E =0.351574E-03  mag=     0.0000
       N       E                     dE             d eps       ncg     rms          rms(c)
DAV:   1    -0.851705759250E+03   -0.58115E-04   -0.72757E-04  4480   0.552E-02    0.585E-03
DAV:   2    -0.851705760617E+03   -0.13674E-05   -0.18097E-05  5020   0.794E-03    0.510E-03
DAV:   3    -0.851705760353E+03    0.26394E-06   -0.57931E-07  2860   0.167E-03
  99 F= -.85957379E+03 E0= -.85957379E+03  d E =-.601250E-04  mag=    -0.0000
       N       E                     dE             d eps       ncg     rms          rms(c)
DAV:   1    -0.851705830472E+03   -0.69855E-04   -0.23095E-03  4320   0.974E-02    0.110E-02
DAV:   2    -0.851705834348E+03   -0.38760E-05   -0.53170E-05  5080   0.134E-02    0.923E-03
DAV:   3    -0.851705833632E+03    0.71648E-06   -0.17764E-06  4070   0.282E-03
 100 F= -.85957387E+03 E0= -.85957387E+03  d E =-.747582E-04  mag=     0.0000
       N       E                     dE             d eps       ncg     rms          rms(c)
DAV:   1    -0.851705898284E+03   -0.63936E-04   -0.39547E-03  4380   0.124E-01    0.137E-02
DAV:   2    -0.851705904808E+03   -0.65234E-05   -0.85000E-05  4620   0.163E-02    0.110E-02
DAV:   3    -0.851705904225E+03    0.58264E-06   -0.17802E-06  4320   0.296E-03
 101 F= -.85957394E+03 E0= -.85957394E+03  d E =-.717434E-04  mag=     0.0000
       N       E                     dE             d eps       ncg     rms          rms(c)
DAV:   1    -0.851705996832E+03   -0.92024E-04   -0.59022E-03  4380   0.148E-01    0.154E-02
DAV:   2    -0.851706006667E+03   -0.98345E-05   -0.12349E-04  4380   0.189E-02    0.116E-02
DAV:   3    -0.851706006370E+03    0.29638E-06   -0.15908E-06  4300   0.286E-03
 102 F= -.85957404E+03 E0= -.85957404E+03  d E =-.102576E-03  mag=    -0.0000
       N       E                     dE             d eps       ncg     rms          rms(c)
DAV:   1    -0.851706139185E+03   -0.13252E-03   -0.91174E-03  4380   0.183E-01    0.187E-02
DAV:   2    -0.851706154641E+03   -0.15456E-04   -0.19317E-04  4340   0.237E-02    0.137E-02
DAV:   3    -0.851706154104E+03    0.53681E-06   -0.27566E-06  4840   0.354E-03
 103 F= -.85957419E+03 E0= -.85957419E+03  d E =-.147124E-03  mag=     0.0000
       N       E                     dE             d eps       ncg     rms          rms(c)
DAV:   1    -0.851706297237E+03   -0.14260E-03   -0.13518E-02  4380   0.222E-01    0.234E-02
DAV:   2    -0.851706319993E+03   -0.22757E-04   -0.28992E-04  4320   0.290E-02    0.173E-02
DAV:   3    -0.851706318977E+03    0.10163E-05   -0.45701E-06  5140   0.446E-03    0.131E-02
DAV:   4    -0.851706321375E+03   -0.23983E-05   -0.57416E-06  4140   0.538E-03    0.322E-03
DAV:   5    -0.851706321681E+03   -0.30570E-06   -0.14962E-06  3560   0.220E-03
 104 F= -.85957435E+03 E0= -.85957435E+03  d E =-.166444E-03  mag=    -0.0000
       N       E                     dE             d eps       ncg     rms          rms(c)
DAV:   1    -0.851706472065E+03   -0.15069E-03   -0.22842E-02  4400   0.286E-01    0.285E-02
DAV:   2    -0.851706513702E+03   -0.41637E-04   -0.51526E-04  4320   0.383E-02    0.203E-02
DAV:   3    -0.851706511317E+03    0.23844E-05   -0.70804E-06  5340   0.561E-03    0.155E-02
DAV:   4    -0.851706514440E+03   -0.31229E-05   -0.95491E-06  4200   0.685E-03    0.396E-03
DAV:   5    -0.851706514930E+03   -0.48992E-06   -0.24117E-06  3890   0.275E-03
 105 F= -.85957455E+03 E0= -.85957455E+03  d E =-.193675E-03  mag=    -0.0000
       N       E                     dE             d eps       ncg     rms          rms(c)
DAV:   1    -0.851706698770E+03   -0.18433E-03   -0.36180E-02  4400   0.358E-01    0.350E-02
DAV:   2    -0.851706765356E+03   -0.66587E-04   -0.81856E-04  4320   0.477E-02    0.247E-02
DAV:   3    -0.851706761945E+03    0.34111E-05   -0.97916E-06  5340   0.658E-03    0.190E-02
DAV:   4    -0.851706768242E+03   -0.62963E-05   -0.15017E-05  4200   0.856E-03    0.429E-03
DAV:   5    -0.851706768684E+03   -0.44256E-06   -0.35936E-06  4600   0.336E-03
 106 F= -.85957481E+03 E0= -.85957481E+03  d E =-.257818E-03  mag=    -0.0000
       N       E                     dE             d eps       ncg     rms          rms(c)
DAV:   1    -0.851706968365E+03   -0.20012E-03   -0.56199E-02  4400   0.448E-01    0.431E-02
DAV:   2    -0.851707072195E+03   -0.10383E-03   -0.12792E-03  4320   0.597E-02    0.309E-02
DAV:   3    -0.851707066546E+03    0.56490E-05   -0.15470E-05  5400   0.821E-03    0.239E-02
DAV:   4    -0.851707076936E+03   -0.10390E-04   -0.25033E-05  4200   0.110E-02    0.565E-03
DAV:   5    -0.851707077542E+03   -0.60655E-06   -0.58948E-06  4760   0.438E-03
 107 F= -.85957512E+03 E0= -.85957512E+03  d E =-.318327E-03  mag=    -0.0000
       N       E                     dE             d eps       ncg     rms          rms(c)
DAV:   1    -0.851707284054E+03   -0.20712E-03   -0.84727E-02  4400   0.549E-01    0.527E-02
DAV:   2    -0.851707438843E+03   -0.15479E-03   -0.19224E-03  4320   0.730E-02    0.379E-02
DAV:   3    -0.851707430339E+03    0.85033E-05   -0.22918E-05  5340   0.101E-02    0.292E-02
DAV:   4    -0.851707446845E+03   -0.16505E-04   -0.38462E-05  4280   0.136E-02    0.712E-03
DAV:   5    -0.851707447724E+03   -0.87904E-06   -0.91650E-06  4760   0.561E-03
 108 F= -.85957551E+03 E0= -.85957551E+03  d E =-.384561E-03  mag=    -0.0000
       N       E                     dE             d eps       ncg     rms          rms(c)
DAV:   1    -0.851707630681E+03   -0.18384E-03   -0.12947E-01  4400   0.679E-01    0.651E-02
DAV:   2    -0.851707869636E+03   -0.23895E-03   -0.29378E-03  4320   0.904E-02    0.467E-02
DAV:   3    -0.851707856872E+03    0.12764E-04   -0.34663E-05  5340   0.123E-02    0.361E-02
DAV:   4    -0.851707879030E+03   -0.22158E-04   -0.57846E-05  4480   0.166E-02    0.828E-03
DAV:   5    -0.851707880449E+03   -0.14200E-05   -0.13501E-05  4800   0.671E-03    0.475E-03
DAV:   6    -0.851707880650E+03   -0.20087E-06   -0.21353E-06  3660   0.278E-03
 109 F= -.85957596E+03 E0= -.85957596E+03  d E =-.450503E-03  mag=    -0.0000
       N       E                     dE             d eps       ncg     rms          rms(c)
DAV:   1    -0.851708063671E+03   -0.18322E-03   -0.17763E-01  4380   0.798E-01    0.777E-02
DAV:   2    -0.851708378126E+03   -0.31445E-03   -0.39276E-03  4320   0.106E-01    0.560E-02
DAV:   3    -0.851708359909E+03    0.18217E-04   -0.51461E-05  5360   0.150E-02    0.428E-02
DAV:   4    -0.851708385848E+03   -0.25940E-04   -0.81550E-05  4840   0.195E-02    0.957E-03
DAV:   5    -0.851708387901E+03   -0.20522E-05   -0.18114E-05  4820   0.757E-03    0.557E-03
DAV:   6    -0.851708388116E+03   -0.21572E-06   -0.28246E-06  4000   0.321E-03
 110 F= -.85957648E+03 E0= -.85957648E+03  d E =-.524610E-03  mag=     0.0000
       N       E                     dE             d eps       ncg     rms          rms(c)
DAV:   1    -0.851708538179E+03   -0.15028E-03   -0.24865E-01  4380   0.948E-01    0.913E-02
DAV:   2    -0.851708972642E+03   -0.43446E-03   -0.54385E-03  4420   0.126E-01    0.667E-02
DAV:   3    -0.851708945874E+03    0.26768E-04   -0.74608E-05  5320   0.181E-02    0.510E-02
DAV:   4    -0.851708978836E+03   -0.32961E-04   -0.12086E-04  5020   0.235E-02    0.116E-02
DAV:   5    -0.851708981746E+03   -0.29107E-05   -0.26763E-05  4820   0.934E-03    0.655E-03
DAV:   6    -0.851708982375E+03   -0.62848E-06   -0.39347E-06  4100   0.369E-03
 111 F= -.85957709E+03 E0= -.85957709E+03  d E =-.610318E-03  mag=    -0.0000
       N       E                     dE             d eps       ncg     rms          rms(c)
DAV:   1    -0.851709028887E+03   -0.47140E-04   -0.33074E-01  4380   0.110E+00    0.105E-01
DAV:   2    -0.851709596476E+03   -0.56759E-03   -0.71660E-03  4460   0.146E-01    0.789E-02
DAV:   3    -0.851709558036E+03    0.38440E-04   -0.10776E-04  5380   0.218E-02    0.602E-02
DAV:   4    -0.851709596888E+03   -0.38852E-04   -0.17102E-04  5040   0.281E-02    0.148E-02
DAV:   5    -0.851709600454E+03   -0.35659E-05   -0.40794E-05  4800   0.117E-02    0.767E-03
DAV:   6    -0.851709601514E+03   -0.10601E-05   -0.48629E-06  4120   0.406E-03    0.383E-03
DAV:   7    -0.851709601704E+03   -0.19078E-06   -0.67816E-07  3680   0.182E-03
 112 F= -.85957773E+03 E0= -.85957773E+03  d E =-.639242E-03  mag=     0.0000
       N       E                     dE             d eps       ncg     rms          rms(c)
DAV:   1    -0.851709589601E+03    0.11913E-04   -0.41849E-01  4380   0.124E+00    0.119E-01
DAV:   2    -0.851710256142E+03   -0.66654E-03   -0.87081E-03  4480   0.164E-01    0.919E-02
DAV:   3    -0.851710198977E+03    0.57165E-04   -0.15295E-04  5360   0.260E-02    0.694E-02
DAV:   4    -0.851710240589E+03   -0.41612E-04   -0.22518E-04  4960   0.323E-02    0.170E-02
DAV:   5    -0.851710245339E+03   -0.47506E-05   -0.55316E-05  4800   0.132E-02    0.917E-03
DAV:   6    -0.851710246230E+03   -0.89069E-06   -0.69433E-06  4220   0.494E-03
 113 F= -.85957841E+03 E0= -.85957841E+03  d E =-.679107E-03  mag=    -0.0000
       N       E                     dE             d eps       ncg     rms          rms(c)
DAV:   1    -0.851710199796E+03    0.45543E-04   -0.52067E-01  4380   0.139E+00    0.135E-01
DAV:   2    -0.851710932920E+03   -0.73312E-03   -0.10200E-02  4420   0.183E-01    0.108E-01
DAV:   3    -0.851710846760E+03    0.86160E-04   -0.22789E-04  5380   0.316E-02    0.801E-02
DAV:   4    -0.851710889965E+03   -0.43205E-04   -0.28624E-04  4980   0.366E-02    0.209E-02
DAV:   5    -0.851710898183E+03   -0.82174E-05   -0.85258E-05  4680   0.159E-02    0.100E-02
DAV:   6    -0.851710899797E+03   -0.16137E-05   -0.70795E-06  4460   0.486E-03    0.521E-03
DAV:   7    -0.851710900155E+03   -0.35885E-06   -0.11993E-06  3240   0.230E-03
 114 F= -.85957909E+03 E0= -.85957909E+03  d E =-.681487E-03  mag=    -0.0000
       N       E                     dE             d eps       ncg     rms          rms(c)
DAV:   1    -0.851710561135E+03    0.33866E-03   -0.64124E-01  4380   0.155E+00    0.150E-01
DAV:   2    -0.851711329643E+03   -0.76851E-03   -0.11646E-02  4420   0.201E-01    0.131E-01
DAV:   3    -0.851711182419E+03    0.14722E-03   -0.36487E-04  5460   0.394E-02    0.951E-02
DAV:   4    -0.851711198359E+03   -0.15940E-04   -0.41820E-04  4780   0.442E-02    0.277E-02
DAV:   5    -0.851711207777E+03   -0.94179E-05   -0.14879E-04  4660   0.207E-02    0.123E-02
DAV:   6    -0.851711212008E+03   -0.42309E-05   -0.91104E-06  4760   0.519E-03    0.640E-03
DAV:   7    -0.851711212087E+03   -0.79381E-07   -0.93087E-07  3620   0.225E-03
 115 F= -.85957944E+03 E0= -.85957944E+03  d E =-.344165E-03  mag=    -0.0000
       N       E                     dE             d eps       ncg     rms          rms(c)
DAV:   1    -0.851711686214E+03   -0.47421E-03   -0.23731E-02  4420   0.315E-01    0.347E-02
DAV:   2    -0.851711727833E+03   -0.41619E-04   -0.60169E-04  5380   0.456E-02    0.314E-02
DAV:   3    -0.851711715685E+03    0.12148E-04   -0.29150E-05  5660   0.100E-02    0.237E-02
DAV:   4    -0.851711706194E+03    0.94911E-05   -0.25625E-05  4480   0.107E-02    0.103E-02
DAV:   5    -0.851711705867E+03    0.32719E-06   -0.66048E-06  4180   0.461E-03
 116 F= -.85957993E+03 E0= -.85957993E+03  d E =-.488040E-03  mag=    -0.0000
       N       E                     dE             d eps       ncg     rms          rms(c)
DAV:   1    -0.851711337399E+03    0.36880E-03   -0.30008E-02  4320   0.354E-01    0.364E-02
DAV:   2    -0.851711390784E+03   -0.53386E-04   -0.73335E-04  5180   0.503E-02    0.330E-02
DAV:   3    -0.851711379704E+03    0.11081E-04   -0.30044E-05  5660   0.102E-02    0.257E-02
DAV:   4    -0.851711371115E+03    0.85888E-05   -0.30483E-05  4440   0.117E-02    0.104E-02
DAV:   5    -0.851711371278E+03   -0.16345E-06   -0.77434E-06  4520   0.495E-03
 117 F= -.85957958E+03 E0= -.85957958E+03  d E =0.344248E-03  mag=     0.0000
       N       E                     dE             d eps       ncg     rms          rms(c)
DAV:   1    -0.851711524950E+03   -0.15384E-03   -0.11989E-03  4380   0.708E-02    0.802E-03
DAV:   2    -0.851711526863E+03   -0.19124E-05   -0.32170E-05  5460   0.104E-02    0.745E-03
DAV:   3    -0.851711526069E+03    0.79310E-06   -0.13867E-06  2800   0.238E-03
 118 F= -.85957974E+03 E0= -.85957974E+03  d E =-.155405E-03  mag=    -0.0000
       N       E                     dE             d eps       ncg     rms          rms(c)
DAV:   1    -0.851711689519E+03   -0.16266E-03   -0.37089E-03  4340   0.125E-01    0.150E-02
DAV:   2    -0.851711695395E+03   -0.58753E-05   -0.88631E-05  5500   0.175E-02    0.135E-02
DAV:   3    -0.851711693204E+03    0.21902E-05   -0.43626E-06  4660   0.406E-03    0.984E-03
DAV:   4    -0.851711691929E+03    0.12758E-05   -0.50745E-06  4240   0.471E-03    0.386E-03
DAV:   5    -0.851711691872E+03    0.57167E-07   -0.11836E-06  2920   0.198E-03
 119 F= -.85957990E+03 E0= -.85957990E+03  d E =-.166465E-03  mag=     0.0000
       N       E                     dE             d eps       ncg     rms          rms(c)
DAV:   1    -0.851711710955E+03   -0.19026E-04   -0.56993E-03  4320   0.155E-01    0.164E-02
DAV:   2    -0.851711721189E+03   -0.10234E-04   -0.14285E-04  5280   0.222E-02    0.148E-02
DAV:   3    -0.851711718732E+03    0.24570E-05   -0.63886E-06  5220   0.469E-03    0.113E-02
DAV:   4    -0.851711716882E+03    0.18506E-05   -0.61963E-06  4240   0.516E-03    0.484E-03
DAV:   5    -0.851711716843E+03    0.38694E-07   -0.13847E-06  3180   0.215E-03
 120 F= -.85957993E+03 E0= -.85957993E+03  d E =-.248221E-04  mag=     0.0000
       N       E                     dE             d eps       ncg     rms          rms(c)
DAV:   1    -0.851711610441E+03    0.10644E-03   -0.51344E-03  4320   0.145E-01    0.144E-02
DAV:   2    -0.851711619230E+03   -0.87893E-05   -0.12009E-04  4780   0.203E-02    0.130E-02
DAV:   3    -0.851711617575E+03    0.16551E-05   -0.43394E-06  4660   0.401E-03    0.102E-02
DAV:   4    -0.851711616494E+03    0.10810E-05   -0.61549E-06  4080   0.508E-03    0.384E-03
DAV:   5    -0.851711616505E+03   -0.11190E-07   -0.12887E-06  3000   0.211E-03
 121 F= -.85957983E+03 E0= -.85957983E+03  d E =0.102368E-03  mag=    -0.0000
       N       E                     dE             d eps       ncg     rms          rms(c)
DAV:   1    -0.851711629997E+03   -0.13502E-04   -0.29880E-05  4320   0.112E-02    0.134E-03
DAV:   2    -0.851711630038E+03   -0.41662E-07   -0.76613E-07  2240   0.171E-03
 122 F= -.85957984E+03 E0= -.85957984E+03  d E =-.132682E-04  mag=    -0.0000
       N       E                     dE             d eps       ncg     rms          rms(c)
DAV:   1    -0.851711654058E+03   -0.24062E-04   -0.10706E-04  4320   0.211E-02    0.291E-03
DAV:   2    -0.851711654179E+03   -0.12072E-06   -0.25178E-06  3380   0.305E-03
 123 F= -.85957986E+03 E0= -.85957986E+03  d E =-.235930E-04  mag=    -0.0000
       N       E                     dE             d eps       ncg     rms          rms(c)
DAV:   1    -0.851711682881E+03   -0.28823E-04   -0.22185E-04  4320   0.304E-02    0.463E-03
DAV:   2    -0.851711683108E+03   -0.22702E-06   -0.51156E-06  5140   0.426E-03
 124 F= -.85957989E+03 E0= -.85957989E+03  d E =-.281213E-04  mag=     0.0000
