<?xml version="1.0" encoding="ISO-8859-1"?>
<modeling>
 <generator>
  <i name="program" type="string">vasp </i>
  <i name="version" type="string">6.4.2  </i>
  <i name="subversion" type="string">20Jul23 (build Aug 26 2025 15:10:52) complex                          parallel </i>
  <i name="platform" type="string">LinuxIFC </i>
  <i name="date" type="string">2025 12 16 </i>
  <i name="time" type="string">07:56:45 </i>
 </generator>
 <incar>
  <i type="int" name="ISTART">     0</i>
  <i type="string" name="ALGO">Normal</i>
  <i type="logical" name="ADDGRID"> T  </i>
  <i type="int" name="ISPIN">     2</i>
  <i type="int" name="IMIX">     4</i>
  <i name="AMIX">      0.20000000</i>
  <i name="BMIX">      0.00010000</i>
  <i name="AMIX_MAG">      0.80000000</i>
  <i name="BMIX_MAG">      0.00010000</i>
  <i type="int" name="ICHARG">     2</i>
  <i type="int" name="NELM">   200</i>
  <i type="int" name="IBRION">     3</i>
  <i name="EDIFF">      0.00000100</i>
  <i name="EDIFFG">     -0.03000000</i>
  <i type="int" name="NSW">  1000</i>
  <i type="int" name="ISIF">     2</i>
  <i type="int" name="ISYM">     0</i>
  <i name="ENCUT">    520.00000000</i>
  <i name="POTIM">      0.00000000</i>
  <v name="MAGMOM">      0.60000000      0.60000000      0.60000000      0.60000000      0.60000000      0.60000000      0.60000000      0.60000000      0.60000000      0.60000000      0.60000000      0.60000000      0.60000000      0.60000000      0.60000000      0.60000000      0.60000000      0.60000000      0.60000000      0.60000000
      0.60000000      0.60000000      0.60000000      0.60000000      0.60000000      0.60000000      0.60000000      0.60000000      0.60000000      0.60000000      0.60000000      0.60000000      0.60000000      0.60000000      0.60000000      0.60000000      0.60000000      0.60000000      0.60000000      0.60000000
      0.60000000      0.60000000      0.60000000      0.60000000      0.60000000      0.60000000      0.60000000      0.60000000      0.60000000      0.60000000      0.60000000      0.60000000      0.60000000      0.60000000      0.60000000      0.60000000      0.60000000      0.60000000      0.60000000      0.60000000
      0.60000000      0.60000000      0.60000000      0.60000000      0.60000000      0.60000000      0.60000000      0.60000000      0.60000000      0.60000000      0.60000000      0.60000000      0.60000000      0.60000000      0.60000000      0.60000000      0.60000000      0.60000000      0.60000000      0.60000000
      0.60000000      0.60000000      0.60000000      0.60000000      0.60000000      0.60000000      0.60000000      0.60000000      0.60000000      0.60000000      0.60000000      0.60000000      0.60000000      0.60000000      0.60000000      0.60000000      0.60000000      0.60000000      0.60000000</v>
  <i type="string" name="LREAL">Auto</i>
  <i type="int" name="ISMEAR">     0</i>
  <i name="SIGMA">      0.05000000</i>
  <i type="logical" name="LWAVE"> F  </i>
  <i type="logical" name="LCHARG"> F  </i>
  <i type="logical" name="LASPH"> T  </i>
  <i type="int" name="IVDW">    12</i>
  <i name="SPRING">     -5.00000000</i>
 </incar>
 <primitive_cell>
  <structure name="primitive_cell" >
   <crystal>
    <varray name="basis" >
     <v>      17.27103806       0.00000000       0.00000000 </v>
     <v>      -8.63551903      14.95715771       0.00000000 </v>
     <v>       0.00000000       0.00000000      15.00000000 </v>
    </varray>
    <i name="volume">   3874.88459904 </i>
    <varray name="rec_basis" >
     <v>       0.05790040       0.03342881       0.00000000 </v>
     <v>       0.00000000       0.06685762       0.00000000 </v>
     <v>       0.00000000       0.00000000       0.06666667 </v>
    </varray>
   </crystal>
   <varray name="positions" >
    <v>       0.99947277       0.99948032       0.50769519 </v>
    <v>       0.99906171       0.14221913       0.50559133 </v>
    <v>       0.99898502       0.28513882       0.50341076 </v>
    <v>       0.99933859       0.42826317       0.50339057 </v>
    <v>       0.99994991       0.57140149       0.50568035 </v>
    <v>       0.00096889       0.71458351       0.50877103 </v>
    <v>       0.00071807       0.85754627       0.50950901 </v>
    <v>       0.14285335       0.00019630       0.50493553 </v>
    <v>       0.14213164       0.14258167       0.50715261 </v>
    <v>       0.14138699       0.28481848       0.50713748 </v>
    <v>       0.14150861       0.42796358       0.50429250 </v>
    <v>       0.14244492       0.57102606       0.50135476 </v>
    <v>       0.14299248       0.71419113       0.50108131 </v>
    <v>       0.14311762       0.85734891       0.50264514 </v>
    <v>       0.28556215       0.99995737       0.50360334 </v>
    <v>       0.28527018       0.14251697       0.50949313 </v>
    <v>       0.28500858       0.28649999       0.51513340 </v>
    <v>       0.28305790       0.42724162       0.51505265 </v>
    <v>       0.28537936       0.57010637       0.50714575 </v>
    <v>       0.28541016       0.71436707       0.50123035 </v>
    <v>       0.28556300       0.85738905       0.50032571 </v>
    <v>       0.42852448       0.00023395       0.50392853 </v>
    <v>       0.42827286       0.14264617       0.51029752 </v>
    <v>       0.42636081       0.28203769       0.51816711 </v>
    <v>       0.42653722       0.71609233       0.50385105 </v>
    <v>       0.42822851       0.85747211       0.50224950 </v>
    <v>       0.57114765       0.00038370       0.50512745 </v>
    <v>       0.57120409       0.14279015       0.50868470 </v>
    <v>       0.57214619       0.28607255       0.51902114 </v>
    <v>       0.57192400       0.85803130       0.50826680 </v>
    <v>       0.71394964       0.99981728       0.50907565 </v>
    <v>       0.71405975       0.14279994       0.50625114 </v>
    <v>       0.71415932       0.28569057       0.51223805 </v>
    <v>       0.71417511       0.42772440       0.52569976 </v>
    <v>       0.71988921       0.57369984       0.54464383 </v>
    <v>       0.72191755       0.71716358       0.54517882 </v>
    <v>       0.71303477       0.85702038       0.52092305 </v>
    <v>       0.85668586       0.99964358       0.51147304 </v>
    <v>       0.85642571       0.14240221       0.50559205 </v>
    <v>       0.85655082       0.28536296       0.50554194 </v>
    <v>       0.85716855       0.42844294       0.51151293 </v>
    <v>       0.85821836       0.57182966       0.51995635 </v>
    <v>       0.86007753       0.71539809       0.52425101 </v>
    <v>       0.85734358       0.85670168       0.51895573 </v>
    <v>       0.04693740       0.09477926       0.50625232 </v>
    <v>       0.04616660       0.23715689       0.50457964 </v>
    <v>       0.04630200       0.38032484       0.50281696 </v>
    <v>       0.04732494       0.52359715       0.50270384 </v>
    <v>       0.04790283       0.66673925       0.50451534 </v>
    <v>       0.04805181       0.80973056       0.50654802 </v>
    <v>       0.04764596       0.95237892       0.50676311 </v>
    <v>       0.19003633       0.09496708       0.50685875 </v>
    <v>       0.18936678       0.23765374       0.50939863 </v>
    <v>       0.18796736       0.37965051       0.50816060 </v>
    <v>       0.18962957       0.52315782       0.50348560 </v>
    <v>       0.19025056       0.66660905       0.50070106 </v>
    <v>       0.19060743       0.80970024       0.50080144 </v>
    <v>       0.19059262       0.95247600       0.50323072 </v>
    <v>       0.33314542       0.09524113       0.50747949 </v>
    <v>       0.33341804       0.23761191       0.51478943 </v>
    <v>       0.32896939       0.37921983       0.52007088 </v>
    <v>       0.32912453       0.52136223       0.51535716 </v>
    <v>       0.33365399       0.66739808       0.50388591 </v>
    <v>       0.33312676       0.80955498       0.50055459 </v>
    <v>       0.33313164       0.95245242       0.50219531 </v>
    <v>       0.47603821       0.09515625       0.50758296 </v>
    <v>       0.47526745       0.23762247       0.51620318 </v>
    <v>       0.47525420       0.80943177       0.50415527 </v>
    <v>       0.47601084       0.95274758       0.50339862 </v>
    <v>       0.61868049       0.09531241       0.50637279 </v>
    <v>       0.61904498       0.23802993       0.51330775 </v>
    <v>       0.62109140       0.37928148       0.52652340 </v>
    <v>       0.62007493       0.81314569       0.51578835 </v>
    <v>       0.61887735       0.95285769       0.50730020 </v>
    <v>       0.76151257       0.09512978       0.50637028 </v>
    <v>       0.76159914       0.23783961       0.50742581 </v>
    <v>       0.76206276       0.38078882       0.51646169 </v>
    <v>       0.76304296       0.52500659       0.53102984 </v>
    <v>       0.76620416       0.66756241       0.53958865 </v>
    <v>       0.76157530       0.80858383       0.52908399 </v>
    <v>       0.76153104       0.95225411       0.51405267 </v>
    <v>       0.90387165       0.09442578       0.50694609 </v>
    <v>       0.90386132       0.23757201       0.50409484 </v>
    <v>       0.90417972       0.38078842       0.50616344 </v>
    <v>       0.90503550       0.52397645       0.51188813 </v>
    <v>       0.90618773       0.66694612       0.51767821 </v>
    <v>       0.90580707       0.81001684       0.51754123 </v>
    <v>       0.90424893       0.95165429       0.51202603 </v>
    <v>       0.46231954       0.35452547       0.52113026 </v>
    <v>       0.40140690       0.41793715       0.52566346 </v>
    <v>       0.40149299       0.55518698       0.52319517 </v>
    <v>       0.64826519       0.54026099       0.55576137 </v>
    <v>       0.58530928       0.41584264       0.53139430 </v>
    <v>       0.58368032       0.74109480       0.51821478 </v>
    <v>       0.46280575       0.67982682       0.50411032 </v>
    <v>       0.53507867       0.47147801       0.37565119 </v>
    <v>       0.50404172       0.53541652       0.41045914 </v>
    <v>       0.63293465       0.66764901       0.56630797 </v>
    <v>       0.53492761       0.50388277       0.42864300 </v>
   </varray>
  </structure>
  <varray name="primitive_index" >
   <v type="int" >        1 </v>
   <v type="int" >        2 </v>
   <v type="int" >        3 </v>
   <v type="int" >        4 </v>
   <v type="int" >        5 </v>
   <v type="int" >        6 </v>
   <v type="int" >        7 </v>
   <v type="int" >        8 </v>
   <v type="int" >        9 </v>
   <v type="int" >       10 </v>
   <v type="int" >       11 </v>
   <v type="int" >       12 </v>
   <v type="int" >       13 </v>
   <v type="int" >       14 </v>
   <v type="int" >       15 </v>
   <v type="int" >       16 </v>
   <v type="int" >       17 </v>
   <v type="int" >       18 </v>
   <v type="int" >       19 </v>
   <v type="int" >       20 </v>
   <v type="int" >       21 </v>
   <v type="int" >       22 </v>
   <v type="int" >       23 </v>
   <v type="int" >       24 </v>
   <v type="int" >       25 </v>
   <v type="int" >       26 </v>
   <v type="int" >       27 </v>
   <v type="int" >       28 </v>
   <v type="int" >       29 </v>
   <v type="int" >       30 </v>
   <v type="int" >       31 </v>
   <v type="int" >       32 </v>
   <v type="int" >       33 </v>
   <v type="int" >       34 </v>
   <v type="int" >       35 </v>
   <v type="int" >       36 </v>
   <v type="int" >       37 </v>
   <v type="int" >       38 </v>
   <v type="int" >       39 </v>
   <v type="int" >       40 </v>
   <v type="int" >       41 </v>
   <v type="int" >       42 </v>
   <v type="int" >       43 </v>
   <v type="int" >       44 </v>
   <v type="int" >       45 </v>
   <v type="int" >       46 </v>
   <v type="int" >       47 </v>
   <v type="int" >       48 </v>
   <v type="int" >       49 </v>
   <v type="int" >       50 </v>
   <v type="int" >       51 </v>
   <v type="int" >       52 </v>
   <v type="int" >       53 </v>
   <v type="int" >       54 </v>
   <v type="int" >       55 </v>
   <v type="int" >       56 </v>
   <v type="int" >       57 </v>
   <v type="int" >       58 </v>
   <v type="int" >       59 </v>
   <v type="int" >       60 </v>
   <v type="int" >       61 </v>
   <v type="int" >       62 </v>
   <v type="int" >       63 </v>
   <v type="int" >       64 </v>
   <v type="int" >       65 </v>
   <v type="int" >       66 </v>
   <v type="int" >       67 </v>
   <v type="int" >       68 </v>
   <v type="int" >       69 </v>
   <v type="int" >       70 </v>
   <v type="int" >       71 </v>
   <v type="int" >       72 </v>
   <v type="int" >       73 </v>
   <v type="int" >       74 </v>
   <v type="int" >       75 </v>
   <v type="int" >       76 </v>
   <v type="int" >       77 </v>
   <v type="int" >       78 </v>
   <v type="int" >       79 </v>
   <v type="int" >       80 </v>
   <v type="int" >       81 </v>
   <v type="int" >       82 </v>
   <v type="int" >       83 </v>
   <v type="int" >       84 </v>
   <v type="int" >       85 </v>
   <v type="int" >       86 </v>
   <v type="int" >       87 </v>
   <v type="int" >       88 </v>
   <v type="int" >       89 </v>
   <v type="int" >       90 </v>
   <v type="int" >       91 </v>
   <v type="int" >       92 </v>
   <v type="int" >       93 </v>
   <v type="int" >       94 </v>
   <v type="int" >       95 </v>
   <v type="int" >       96 </v>
   <v type="int" >       97 </v>
   <v type="int" >       98 </v>
   <v type="int" >       99 </v>
  </varray>
 </primitive_cell>
 <kpoints>
  <generation param="Gamma">
   <v type="int" name="divisions">       2        2        1 </v>
   <v name="usershift">      0.00000000       0.00000000       0.00000000 </v>
   <v name="genvec1">      0.50000000       0.00000000       0.00000000 </v>
   <v name="genvec2">      0.00000000       0.50000000       0.00000000 </v>
   <v name="genvec3">      0.00000000       0.00000000       1.00000000 </v>
   <v name="shift">      0.00000000       0.00000000       0.00000000 </v>
  </generation>
  <varray name="kpointlist" >
   <v>       0.00000000       0.00000000       0.00000000 </v>
   <v>       0.50000000       0.00000000       0.00000000 </v>
   <v>       0.00000000       0.50000000       0.00000000 </v>
   <v>       0.50000000       0.50000000       0.00000000 </v>
  </varray>
  <varray name="weights" >
   <v>       0.25000000 </v>
   <v>       0.25000000 </v>
   <v>       0.25000000 </v>
   <v>       0.25000000 </v>
  </varray>
 </kpoints>
 <parameters>
  <separator name="general" >
   <i type="string" name="SYSTEM">unknown system</i>
   <i type="logical" name="LCOMPAT"> F  </i>
  </separator>
  <separator name="electronic" >
   <i type="string" name="PREC">normal</i>
   <i name="ENMAX">    520.00000000</i>
   <i name="ENAUG">    644.87300000</i>
   <i name="EDIFF">      0.00000100</i>
   <i type="int" name="IALGO">    38</i>
   <i type="int" name="IWAVPR">    11</i>
   <i type="int" name="NBANDS">   270</i>
   <i type="int" name="NBANDSLOW">    -1</i>
   <i type="int" name="NBANDSHIGH">    -1</i>
   <i name="NELECT">    374.00000000</i>
   <i type="int" name="TURBO">     0</i>
   <i type="int" name="IRESTART">     0</i>
   <i type="int" name="NREBOOT">     0</i>
   <i type="int" name="NMIN">     0</i>
   <i name="EREF">      0.00000000</i>
   <separator name="electronic smearing" >
    <i type="int" name="ISMEAR">     0</i>
    <i name="SIGMA">      0.05000000</i>
    <i name="KSPACING">      0.50000000</i>
    <i type="logical" name="KGAMMA"> T  </i>
    <i type="logical" name="KBLOWUP"> T  </i>
   </separator>
   <separator name="electronic projectors" >
    <i type="logical" name="LREAL"> T  </i>
    <v name="ROPT">     -0.00050000     -0.00050000     -0.00050000     -0.00050000</v>
    <i type="int" name="LMAXPAW">  -100</i>
    <i type="int" name="LMAXMIX">     2</i>
    <i type="logical" name="NLSPLINE"> F  </i>
   </separator>
   <separator name="electronic startup" >
    <i type="int" name="ISTART">     0</i>
    <i type="int" name="ICHARG">     2</i>
    <i type="int" name="INIWAV">     1</i>
   </separator>
   <separator name="electronic spin" >
    <i type="int" name="ISPIN">     2</i>
    <i type="logical" name="LNONCOLLINEAR"> F  </i>
    <v name="MAGMOM">      0.60000000      0.60000000      0.60000000      0.60000000      0.60000000      0.60000000      0.60000000      0.60000000      0.60000000      0.60000000      0.60000000      0.60000000      0.60000000      0.60000000      0.60000000      0.60000000      0.60000000      0.60000000      0.60000000      0.60000000
      0.60000000      0.60000000      0.60000000      0.60000000      0.60000000      0.60000000      0.60000000      0.60000000      0.60000000      0.60000000      0.60000000      0.60000000      0.60000000      0.60000000      0.60000000      0.60000000      0.60000000      0.60000000      0.60000000      0.60000000
      0.60000000      0.60000000      0.60000000      0.60000000      0.60000000      0.60000000      0.60000000      0.60000000      0.60000000      0.60000000      0.60000000      0.60000000      0.60000000      0.60000000      0.60000000      0.60000000      0.60000000      0.60000000      0.60000000      0.60000000
      0.60000000      0.60000000      0.60000000      0.60000000      0.60000000      0.60000000      0.60000000      0.60000000      0.60000000      0.60000000      0.60000000      0.60000000      0.60000000      0.60000000      0.60000000      0.60000000      0.60000000      0.60000000      0.60000000      0.60000000
      0.60000000      0.60000000      0.60000000      0.60000000      0.60000000      0.60000000      0.60000000      0.60000000      0.60000000      0.60000000      0.60000000      0.60000000      0.60000000      0.60000000      0.60000000      0.60000000      0.60000000      0.60000000      0.60000000</v>
    <i name="NUPDOWN">     -1.00000000</i>
    <i type="logical" name="LSORBIT"> F  </i>
    <v name="SAXIS">      0.00000000      0.00000000      1.00000000</v>
    <i type="logical" name="LSPIRAL"> F  </i>
    <v name="QSPIRAL">      0.00000000      0.00000000      0.00000000</v>
    <i type="logical" name="LZEROZ"> F  </i>
   </separator>
   <separator name="electronic exchange-correlation" >
    <i type="logical" name="LASPH"> T  </i>
    <i type="logical" name="LMETAGGA"> F  </i>
   </separator>
   <separator name="electronic convergence" >
    <i type="int" name="NELM">   200</i>
    <i type="int" name="NELMDL">    -5</i>
    <i type="int" name="NELMIN">     2</i>
    <i name="ENINI">    520.00000000</i>
    <separator name="electronic convergence detail" >
     <i type="logical" name="LDIAG"> T  </i>
     <i type="logical" name="LSUBROT"> F  </i>
     <i name="WEIMIN">      0.00100000</i>
     <i name="EBREAK">      0.00000000</i>
     <i name="DEPER">      0.30000000</i>
     <i type="int" name="NRMM">     4</i>
     <i name="TIME">      0.40000000</i>
    </separator>
   </separator>
   <separator name="electronic mixer" >
    <i name="AMIX">      0.20000000</i>
    <i name="BMIX">      0.00010000</i>
    <i name="AMIN">      0.10000000</i>
    <i name="AMIX_MAG">      0.80000000</i>
    <i name="BMIX_MAG">      0.00010000</i>
    <separator name="electronic mixer details" >
     <i type="int" name="IMIX">     4</i>
     <i type="logical" name="MIXFIRST"> F  </i>
     <i type="int" name="MAXMIX">   -45</i>
     <i name="WC">    100.00000000</i>
     <i type="int" name="INIMIX">     1</i>
     <i type="int" name="MIXPRE">     1</i>
     <i type="int" name="MREMOVE">     5</i>
    </separator>
   </separator>
   <separator name="electronic dipolcorrection" >
    <i type="logical" name="LDIPOL"> F  </i>
    <i type="logical" name="LMONO"> F  </i>
    <i type="int" name="IDIPOL">     0</i>
    <i name="EPSILON">      1.00000000</i>
    <v name="DIPOL">   -100.00000000   -100.00000000   -100.00000000</v>
    <i name="EFIELD">      0.00000000</i>
   </separator>
  </separator>
  <separator name="grids" >
   <i type="int" name="NGX">    96</i>
   <i type="int" name="NGY">    96</i>
   <i type="int" name="NGZ">    84</i>
   <i type="int" name="NGXF">   192</i>
   <i type="int" name="NGYF">   192</i>
   <i type="int" name="NGZF">   168</i>
   <i type="logical" name="ADDGRID"> T  </i>
  </separator>
  <separator name="ionic" >
   <i type="int" name="NSW">  1000</i>
   <i type="int" name="IBRION">     3</i>
   <i type="int" name="MDALGO">     0</i>
   <i type="int" name="ISIF">     2</i>
   <i name="PSTRESS">      0.00000000</i>
   <i name="EDIFFG">     -0.03000000</i>
   <i type="int" name="NFREE">     0</i>
   <i name="POTIM">      0.00000000</i>
   <i name="SMASS">     -3.00000000</i>
   <i name="SCALEE">      1.00000000</i>
  </separator>
  <separator name="ionic md" >
   <i name="TEBEG">      0.00010000</i>
   <i name="TEEND">      0.00010000</i>
   <i type="int" name="NBLOCK">     1</i>
   <i type="int" name="KBLOCK">  1000</i>
   <i type="int" name="NPACO">   256</i>
   <i name="APACO">     10.00000000</i>
  </separator>
  <separator name="symmetry" >
   <i type="int" name="ISYM">     0</i>
   <i name="SYMPREC">      0.00001000</i>
  </separator>
  <separator name="dos" >
   <i type="int" name="LORBIT">     0</i>
   <v name="RWIGS">     -1.00000000     -1.00000000     -1.00000000     -1.00000000</v>
   <i type="int" name="NEDOS">   301</i>
   <i name="EMIN">     10.00000000</i>
   <i name="EMAX">    -10.00000000</i>
   <i name="EFERMI">      0.00000000</i>
  </separator>
  <separator name="writing" >
   <i type="int" name="NWRITE">     2</i>
   <i type="logical" name="LWAVE"> F  </i>
   <i type="logical" name="LDOWNSAMPLE"> F  </i>
   <i type="logical" name="LCHARG"> F  </i>
   <i type="logical" name="LPARD"> F  </i>
   <i type="logical" name="LVTOT"> F  </i>
   <i type="logical" name="LVHAR"> F  </i>
   <i type="logical" name="LELF"> F  </i>
   <i type="logical" name="LOPTICS"> F  </i>
   <v name="STM">      0.00000000      0.00000000      0.00000000      0.00000000      0.00000000      0.00000000      0.00000000</v>
  </separator>
  <separator name="performance" >
   <i type="int" name="NPAR">     5</i>
   <i type="int" name="NSIM">     4</i>
   <i type="int" name="NBLK">    -1</i>
   <i type="logical" name="LPLANE"> T  </i>
   <i type="logical" name="LSCALAPACK"> T  </i>
   <i type="logical" name="LSCAAWARE"> F  </i>
   <i type="logical" name="LSCALU"> F  </i>
   <i type="logical" name="LASYNC"> F  </i>
   <i type="logical" name="LORBITALREAL"> F  </i>
  </separator>
  <separator name="miscellaneous" >
   <i type="int" name="IDIOT">     3</i>
   <i type="int" name="PHON_NSTRUCT">    -1</i>
   <i type="logical" name="LMUSIC"> F  </i>
   <v name="POMASS">     12.01100000      1.00000000     18.99800000     16.00000000</v>
   <v name="DARWINR">      0.00000000      0.00000000      0.00000000      0.00000000</v>
   <v name="DARWINV">      1.00000000      1.00000000      1.00000000      1.00000000</v>
   <i type="logical" name="LCORR"> T  </i>
  </separator>
  <i type="logical" name="GGA_COMPAT"> T  </i>
  <i type="logical" name="LBERRY"> F  </i>
  <i type="int" name="ICORELEVEL">     0</i>
  <i type="logical" name="LDAU"> F  </i>
  <i type="int" name="I_CONSTRAINED_M">     0</i>
  <separator name="electronic exchange-correlation" >
   <i type="string" name="GGA">--</i>
   <i type="int" name="VOSKOWN">     0</i>
   <i type="logical" name="LHFCALC"> F  </i>
   <i type="string" name="PRECFOCK"></i>
   <i type="logical" name="LSYMGRAD"> F  </i>
   <i type="logical" name="LHFONE"> F  </i>
   <i type="logical" name="LRHFCALC"> F  </i>
   <i type="logical" name="LTHOMAS"> F  </i>
   <i type="logical" name="LMODELHF"> F  </i>
   <i type="logical" name="LFOCKACE"> F  </i>
   <i name="ENCUT4O">     -1.00000000</i>
   <i type="int" name="EXXOEP">     0</i>
   <i type="int" name="FOURORBIT">     0</i>
   <i name="AEXX">      0.00000000</i>
   <i name="HFALPHA">      0.00000000</i>
   <i name="MCALPHA">      0.00000000</i>
   <i name="ALDAX">      1.00000000</i>
   <i name="AGGAX">      1.00000000</i>
   <i name="ALDAC">      1.00000000</i>
   <i name="AGGAC">      1.00000000</i>
   <i type="int" name="NKREDX">     1</i>
   <i type="int" name="NKREDY">     1</i>
   <i type="int" name="NKREDZ">     1</i>
   <i type="logical" name="SHIFTRED"> F  </i>
   <i type="logical" name="ODDONLY"> F  </i>
   <i type="logical" name="EVENONLY"> F  </i>
   <i type="int" name="LMAXFOCK">     0</i>
   <i type="int" name="NMAXFOCKAE">     0</i>
   <i type="logical" name="LFOCKAEDFT"> F  </i>
   <i name="HFSCREEN">      0.00000000</i>
   <i name="HFSCREENC">      0.00000000</i>
   <i type="int" name="NBANDSGWLOW">     0</i>
  </separator>
  <separator name="vdW DFT" >
   <i type="logical" name="LUSE_VDW"> F  </i>
   <i type="int" name="IVDW_NL">     1</i>
   <i type="logical" name="LSPIN_VDW"> F  </i>
   <i name="Zab_VDW">     -0.84910000</i>
   <i name="PARAM1">      0.12340000</i>
   <i name="PARAM2">      1.00000000</i>
   <i name="PARAM3">      0.00000000</i>
  </separator>
  <separator name="model GW" >
   <i type="int" name="MODEL_GW">     0</i>
   <i name="MODEL_EPS0">     23.48414909</i>
   <i name="MODEL_ALPHA">      1.00000000</i>
  </separator>
  <separator name="linear response parameters" >
   <i type="logical" name="LEPSILON"> F  </i>
   <i type="logical" name="LRPA"> F  </i>
   <i type="logical" name="LNABLA"> F  </i>
   <i type="logical" name="LVEL"> F  </i>
   <i name="CSHIFT">      0.10000000</i>
   <i name="OMEGAMAX">     -1.00000000</i>
   <i name="DEG_THRESHOLD">      0.00200000</i>
   <i name="RTIME">     -0.10000000</i>
   <i name="WPLASMAI">      0.00000000</i>
   <v name="DFIELD">      0.00000000      0.00000000      0.00000000</v>
   <v name="WPLASMA">      0.00000000      0.00000000      0.00000000      0.00000000      0.00000000      0.00000000      0.00000000      0.00000000      0.00000000</v>
  </separator>
  <separator name="orbital magnetization" >
   <i type="logical" name="NUCIND"> F  </i>
   <v name="MAGPOS">      0.00000000      0.00000000      0.00000000</v>
   <i type="logical" name="LNICSALL"> T  </i>
   <i type="logical" name="ORBITALMAG"> F  </i>
   <i type="logical" name="LMAGBLOCH"> F  </i>
   <i type="logical" name="LCHIMAG"> F  </i>
   <i type="logical" name="LGAUGE"> T  </i>
   <i type="int" name="MAGATOM">     0</i>
   <v name="MAGDIPOL">      0.00000000      0.00000000      0.00000000</v>
   <v name="AVECCONST">      0.00000000      0.00000000      0.00000000</v>
  </separator>
  <separator name="response functions" >
   <i type="logical" name="LALL_IN_ONE"> F  </i>
   <i type="int" name="IALL_IN_ONE">    -1</i>
   <i type="int" name="NBANDS_WAVE">    -1</i>
   <i type="logical" name="LFINITE_TEMPERATURE"> F  </i>
   <i type="logical" name="LADDER"> F  </i>
   <i type="logical" name="LRPAFORCE"> F  </i>
   <i type="logical" name="LFXC"> F  </i>
   <i type="logical" name="LHARTREE"> T  </i>
   <i type="int" name="IBSE">     0</i>
   <v type="int" name="KPOINT">    -1     0     0     0</v>
   <i type="logical" name="LTCTC"> F  </i>
   <i type="logical" name="LTCTE"> F  </i>
   <i type="logical" name="LTETE"> F  </i>
   <i type="logical" name="LTRIPLET"> F  </i>
   <i type="logical" name="LFXCEPS"> F  </i>
   <i type="logical" name="LFXHEG"> F  </i>
   <i type="int" name="NATURALO">     2</i>
   <i type="logical" name="LHOLEGF"> F  </i>
   <i type="logical" name="L2ORDER"> F  </i>
   <i type="logical" name="LDMP1"> F  </i>
   <i type="logical" name="LMP2LT"> F  </i>
   <i type="logical" name="LSMP2LT"> F  </i>
   <i type="logical" name="LGWLF"> F  </i>
   <i name="ENCUTGW">     -1.60000002</i>
   <i name="ENCUTGWSOFT">     -1.60000002</i>
   <i name="ENCUTLF">     -1.00000000</i>
   <i type="logical" name="LESF_SPLINES"> F  </i>
   <i type="int" name="LMAXMP2">    -1</i>
   <i name="SCISSOR">      0.00000000</i>
   <i type="int" name="NOMEGA">     0</i>
   <i type="int" name="NOMEGAR">     0</i>
   <i type="int" name="NBANDSGW">    -1</i>
   <i type="int" name="NBANDSO">    -1</i>
   <i type="int" name="NBANDSV">    -1</i>
   <i type="int" name="NELMGW">     1</i>
   <i type="int" name="NELMHF">     1</i>
   <i type="int" name="DIM">     3</i>
   <i type="int" name="IESPILON">     4</i>
   <i type="int" name="ANTIRES">     0</i>
   <i name="OMEGAMAX">    -30.00000000</i>
   <i name="OMEGAMIN">    -30.00000000</i>
   <i name="OMEGATL">   -200.00000000</i>
   <i type="int" name="OMEGAGRID">     0</i>
   <i name="CSHIFT">     -0.10000000</i>
   <i type="logical" name="LSELFENERGY"> F  </i>
   <i type="logical" name="LSPECTRAL"> F  </i>
   <i type="logical" name="LSPECTRALGW"> F  </i>
   <i type="logical" name="LSINGLES"> F  </i>
   <i type="logical" name="LFERMIGW"> F  </i>
   <i type="logical" name="ODDONLYGW"> F  </i>
   <i type="logical" name="EVENONLYGW"> F  </i>
   <i type="int" name="NKREDLFX">     1</i>
   <i type="int" name="NKREDLFY">     1</i>
   <i type="int" name="NKREDLFZ">     1</i>
   <i type="int" name="MAXMEM">  2800</i>
   <i type="int" name="TELESCOPE">     0</i>
   <i type="int" name="NTAUPAR">    -1</i>
   <i type="int" name="NOMEGAPAR">    -1</i>
   <i name="DAMP_NEWTON">      0.80000001</i>
   <i name="LAMBDA">      1.00000000</i>
  </separator>
  <separator name="External order field" >
   <i name="OFIELD_KAPPA">      0.00000000</i>
   <v name="OFIELD_K">      0.00000000      0.00000000      0.00000000</v>
   <i name="OFIELD_Q6_NEAR">      0.00000000</i>
   <i name="OFIELD_Q6_FAR">      0.00000000</i>
   <i name="OFIELD_A">      0.00000000</i>
  </separator>
  <separator name="optional k-points parameters" >
   <i type="int" name="KPOINTS_OPT_MODE">     1</i>
   <i type="logical" name="LKPOINTS_OPT"> F  </i>
  </separator>
 </parameters>
 <atominfo>
  <atoms>      99 </atoms>
  <types>       4 </types>
  <array name="atoms" >
   <dimension dim="1">ion</dimension>
   <field type="string">element</field>
   <field type="int">atomtype</field>
   <set>
    <rc><c>C </c><c>   1</c></rc>
    <rc><c>C </c><c>   1</c></rc>
    <rc><c>C </c><c>   1</c></rc>
    <rc><c>C </c><c>   1</c></rc>
    <rc><c>C </c><c>   1</c></rc>
    <rc><c>C </c><c>   1</c></rc>
    <rc><c>C </c><c>   1</c></rc>
    <rc><c>C </c><c>   1</c></rc>
    <rc><c>C </c><c>   1</c></rc>
    <rc><c>C </c><c>   1</c></rc>
    <rc><c>C </c><c>   1</c></rc>
    <rc><c>C </c><c>   1</c></rc>
    <rc><c>C </c><c>   1</c></rc>
    <rc><c>C </c><c>   1</c></rc>
    <rc><c>C </c><c>   1</c></rc>
    <rc><c>C </c><c>   1</c></rc>
    <rc><c>C </c><c>   1</c></rc>
    <rc><c>C </c><c>   1</c></rc>
    <rc><c>C </c><c>   1</c></rc>
    <rc><c>C </c><c>   1</c></rc>
    <rc><c>C </c><c>   1</c></rc>
    <rc><c>C </c><c>   1</c></rc>
    <rc><c>C </c><c>   1</c></rc>
    <rc><c>C </c><c>   1</c></rc>
    <rc><c>C </c><c>   1</c></rc>
    <rc><c>C </c><c>   1</c></rc>
    <rc><c>C </c><c>   1</c></rc>
    <rc><c>C </c><c>   1</c></rc>
    <rc><c>C </c><c>   1</c></rc>
    <rc><c>C </c><c>   1</c></rc>
    <rc><c>C </c><c>   1</c></rc>
    <rc><c>C </c><c>   1</c></rc>
    <rc><c>C </c><c>   1</c></rc>
    <rc><c>C </c><c>   1</c></rc>
    <rc><c>C </c><c>   1</c></rc>
    <rc><c>C </c><c>   1</c></rc>
    <rc><c>C </c><c>   1</c></rc>
    <rc><c>C </c><c>   1</c></rc>
    <rc><c>C </c><c>   1</c></rc>
    <rc><c>C </c><c>   1</c></rc>
    <rc><c>C </c><c>   1</c></rc>
    <rc><c>C </c><c>   1</c></rc>
    <rc><c>C </c><c>   1</c></rc>
    <rc><c>C </c><c>   1</c></rc>
    <rc><c>C </c><c>   1</c></rc>
    <rc><c>C </c><c>   1</c></rc>
    <rc><c>C </c><c>   1</c></rc>
    <rc><c>C </c><c>   1</c></rc>
    <rc><c>C </c><c>   1</c></rc>
    <rc><c>C </c><c>   1</c></rc>
    <rc><c>C </c><c>   1</c></rc>
    <rc><c>C </c><c>   1</c></rc>
    <rc><c>C </c><c>   1</c></rc>
    <rc><c>C </c><c>   1</c></rc>
    <rc><c>C </c><c>   1</c></rc>
    <rc><c>C </c><c>   1</c></rc>
    <rc><c>C </c><c>   1</c></rc>
    <rc><c>C </c><c>   1</c></rc>
    <rc><c>C </c><c>   1</c></rc>
    <rc><c>C </c><c>   1</c></rc>
    <rc><c>C </c><c>   1</c></rc>
    <rc><c>C </c><c>   1</c></rc>
    <rc><c>C </c><c>   1</c></rc>
    <rc><c>C </c><c>   1</c></rc>
    <rc><c>C </c><c>   1</c></rc>
    <rc><c>C </c><c>   1</c></rc>
    <rc><c>C </c><c>   1</c></rc>
    <rc><c>C </c><c>   1</c></rc>
    <rc><c>C </c><c>   1</c></rc>
    <rc><c>C </c><c>   1</c></rc>
    <rc><c>C </c><c>   1</c></rc>
    <rc><c>C </c><c>   1</c></rc>
    <rc><c>C </c><c>   1</c></rc>
    <rc><c>C </c><c>   1</c></rc>
    <rc><c>C </c><c>   1</c></rc>
    <rc><c>C </c><c>   1</c></rc>
    <rc><c>C </c><c>   1</c></rc>
    <rc><c>C </c><c>   1</c></rc>
    <rc><c>C </c><c>   1</c></rc>
    <rc><c>C </c><c>   1</c></rc>
    <rc><c>C </c><c>   1</c></rc>
    <rc><c>C </c><c>   1</c></rc>
    <rc><c>C </c><c>   1</c></rc>
    <rc><c>C </c><c>   1</c></rc>
    <rc><c>C </c><c>   1</c></rc>
    <rc><c>C </c><c>   1</c></rc>
    <rc><c>C </c><c>   1</c></rc>
    <rc><c>C </c><c>   1</c></rc>
    <rc><c>H </c><c>   2</c></rc>
    <rc><c>H </c><c>   2</c></rc>
    <rc><c>H </c><c>   2</c></rc>
    <rc><c>H </c><c>   2</c></rc>
    <rc><c>H </c><c>   2</c></rc>
    <rc><c>H </c><c>   2</c></rc>
    <rc><c>H </c><c>   2</c></rc>
    <rc><c>H </c><c>   2</c></rc>
    <rc><c>H </c><c>   2</c></rc>
    <rc><c>F </c><c>   3</c></rc>
    <rc><c>O </c><c>   4</c></rc>
   </set>
  </array>
  <array name="atomtypes" >
   <dimension dim="1">type</dimension>
   <field type="int">atomspertype</field>
   <field type="string">element</field>
   <field>mass</field>
   <field>valence</field>
   <field type="string">pseudopotential</field>
   <set>
    <rc><c>  88</c><c>C </c><c>     12.01100000</c><c>      4.00000000</c><c>  PAW_PBE C 08Apr2002                   </c></rc>
    <rc><c>   9</c><c>H </c><c>      1.00000000</c><c>      1.00000000</c><c>  PAW_PBE H 15Jun2001                   </c></rc>
    <rc><c>   1</c><c>F </c><c>     18.99800000</c><c>      7.00000000</c><c>  PAW_PBE F 08Apr2002                   </c></rc>
    <rc><c>   1</c><c>O </c><c>     16.00000000</c><c>      6.00000000</c><c>  PAW_PBE O 08Apr2002                   </c></rc>
   </set>
  </array>
 </atominfo>
 <structure name="initialpos" >
  <crystal>
   <varray name="basis" >
    <v>      17.27103806       0.00000000       0.00000000 </v>
    <v>      -8.63551903      14.95715771       0.00000000 </v>
    <v>       0.00000000       0.00000000      15.00000000 </v>
   </varray>
   <i name="volume">   3874.88459904 </i>
   <varray name="rec_basis" >
    <v>       0.05790040       0.03342881       0.00000000 </v>
    <v>       0.00000000       0.06685762       0.00000000 </v>
    <v>       0.00000000       0.00000000       0.06666667 </v>
   </varray>
  </crystal>
  <varray name="positions" >
   <v>       0.99947277       0.99948032       0.50769519 </v>
   <v>       0.99906171       0.14221913       0.50559133 </v>
   <v>       0.99898502       0.28513882       0.50341076 </v>
   <v>       0.99933859       0.42826317       0.50339057 </v>
   <v>       0.99994991       0.57140149       0.50568035 </v>
   <v>       0.00096889       0.71458351       0.50877103 </v>
   <v>       0.00071807       0.85754627       0.50950901 </v>
   <v>       0.14285335       0.00019630       0.50493553 </v>
   <v>       0.14213164       0.14258167       0.50715261 </v>
   <v>       0.14138699       0.28481848       0.50713748 </v>
   <v>       0.14150861       0.42796358       0.50429250 </v>
   <v>       0.14244492       0.57102606       0.50135476 </v>
   <v>       0.14299248       0.71419113       0.50108131 </v>
   <v>       0.14311762       0.85734891       0.50264514 </v>
   <v>       0.28556215       0.99995737       0.50360334 </v>
   <v>       0.28527018       0.14251697       0.50949313 </v>
   <v>       0.28500858       0.28649999       0.51513340 </v>
   <v>       0.28305790       0.42724162       0.51505265 </v>
   <v>       0.28537936       0.57010637       0.50714575 </v>
   <v>       0.28541016       0.71436707       0.50123035 </v>
   <v>       0.28556300       0.85738905       0.50032571 </v>
   <v>       0.42852448       0.00023395       0.50392853 </v>
   <v>       0.42827286       0.14264617       0.51029752 </v>
   <v>       0.42636081       0.28203769       0.51816711 </v>
   <v>       0.42653722       0.71609233       0.50385105 </v>
   <v>       0.42822851       0.85747211       0.50224950 </v>
   <v>       0.57114765       0.00038370       0.50512745 </v>
   <v>       0.57120409       0.14279015       0.50868470 </v>
   <v>       0.57214619       0.28607255       0.51902114 </v>
   <v>       0.57192400       0.85803130       0.50826680 </v>
   <v>       0.71394964       0.99981728       0.50907565 </v>
   <v>       0.71405975       0.14279994       0.50625114 </v>
   <v>       0.71415932       0.28569057       0.51223805 </v>
   <v>       0.71417511       0.42772440       0.52569976 </v>
   <v>       0.71988921       0.57369984       0.54464383 </v>
   <v>       0.72191755       0.71716358       0.54517882 </v>
   <v>       0.71303477       0.85702038       0.52092305 </v>
   <v>       0.85668586       0.99964358       0.51147304 </v>
   <v>       0.85642571       0.14240221       0.50559205 </v>
   <v>       0.85655082       0.28536296       0.50554194 </v>
   <v>       0.85716855       0.42844294       0.51151293 </v>
   <v>       0.85821836       0.57182966       0.51995635 </v>
   <v>       0.86007753       0.71539809       0.52425101 </v>
   <v>       0.85734358       0.85670168       0.51895573 </v>
   <v>       0.04693740       0.09477926       0.50625232 </v>
   <v>       0.04616660       0.23715689       0.50457964 </v>
   <v>       0.04630200       0.38032484       0.50281696 </v>
   <v>       0.04732494       0.52359715       0.50270384 </v>
   <v>       0.04790283       0.66673925       0.50451534 </v>
   <v>       0.04805181       0.80973056       0.50654802 </v>
   <v>       0.04764596       0.95237892       0.50676311 </v>
   <v>       0.19003633       0.09496708       0.50685875 </v>
   <v>       0.18936678       0.23765374       0.50939863 </v>
   <v>       0.18796736       0.37965051       0.50816060 </v>
   <v>       0.18962957       0.52315782       0.50348560 </v>
   <v>       0.19025056       0.66660905       0.50070106 </v>
   <v>       0.19060743       0.80970024       0.50080144 </v>
   <v>       0.19059262       0.95247600       0.50323072 </v>
   <v>       0.33314542       0.09524113       0.50747949 </v>
   <v>       0.33341804       0.23761191       0.51478943 </v>
   <v>       0.32896939       0.37921983       0.52007088 </v>
   <v>       0.32912453       0.52136223       0.51535716 </v>
   <v>       0.33365399       0.66739808       0.50388591 </v>
   <v>       0.33312676       0.80955498       0.50055459 </v>
   <v>       0.33313164       0.95245242       0.50219531 </v>
   <v>       0.47603821       0.09515625       0.50758296 </v>
   <v>       0.47526745       0.23762247       0.51620318 </v>
   <v>       0.47525420       0.80943177       0.50415527 </v>
   <v>       0.47601084       0.95274758       0.50339862 </v>
   <v>       0.61868049       0.09531241       0.50637279 </v>
   <v>       0.61904498       0.23802993       0.51330775 </v>
   <v>       0.62109140       0.37928148       0.52652340 </v>
   <v>       0.62007493       0.81314569       0.51578835 </v>
   <v>       0.61887735       0.95285769       0.50730020 </v>
   <v>       0.76151257       0.09512978       0.50637028 </v>
   <v>       0.76159914       0.23783961       0.50742581 </v>
   <v>       0.76206276       0.38078882       0.51646169 </v>
   <v>       0.76304296       0.52500659       0.53102984 </v>
   <v>       0.76620416       0.66756241       0.53958865 </v>
   <v>       0.76157530       0.80858383       0.52908399 </v>
   <v>       0.76153104       0.95225411       0.51405267 </v>
   <v>       0.90387165       0.09442578       0.50694609 </v>
   <v>       0.90386132       0.23757201       0.50409484 </v>
   <v>       0.90417972       0.38078842       0.50616344 </v>
   <v>       0.90503550       0.52397645       0.51188813 </v>
   <v>       0.90618773       0.66694612       0.51767821 </v>
   <v>       0.90580707       0.81001684       0.51754123 </v>
   <v>       0.90424893       0.95165429       0.51202603 </v>
   <v>       0.46231954       0.35452547       0.52113026 </v>
   <v>       0.40140690       0.41793715       0.52566346 </v>
   <v>       0.40149299       0.55518698       0.52319517 </v>
   <v>       0.64826519       0.54026099       0.55576137 </v>
   <v>       0.58530928       0.41584264       0.53139430 </v>
   <v>       0.58368032       0.74109480       0.51821478 </v>
   <v>       0.46280575       0.67982682       0.50411032 </v>
   <v>       0.53507867       0.47147801       0.37565119 </v>
   <v>       0.50404172       0.53541652       0.41045914 </v>
   <v>       0.63293465       0.66764901       0.56630797 </v>
   <v>       0.53492761       0.50388277       0.42864300 </v>
  </varray>
  <varray name="selective"  type="logical" >
   <v type="logical" >  T  T  T </v>
   <v type="logical" >  T  T  T </v>
   <v type="logical" >  T  T  T </v>
   <v type="logical" >  T  T  T </v>
   <v type="logical" >  T  T  T </v>
   <v type="logical" >  T  T  T </v>
   <v type="logical" >  T  T  T </v>
   <v type="logical" >  T  T  T </v>
   <v type="logical" >  T  T  T </v>
   <v type="logical" >  T  T  T </v>
   <v type="logical" >  T  T  T </v>
   <v type="logical" >  T  T  T </v>
   <v type="logical" >  T  T  T </v>
   <v type="logical" >  T  T  T </v>
   <v type="logical" >  T  T  T </v>
   <v type="logical" >  T  T  T </v>
   <v type="logical" >  T  T  T </v>
   <v type="logical" >  T  T  T </v>
   <v type="logical" >  T  T  T </v>
   <v type="logical" >  T  T  T </v>
   <v type="logical" >  T  T  T </v>
   <v type="logical" >  T  T  T </v>
   <v type="logical" >  T  T  T </v>
   <v type="logical" >  T  T  T </v>
   <v type="logical" >  T  T  T </v>
   <v type="logical" >  T  T  T </v>
   <v type="logical" >  T  T  T </v>
   <v type="logical" >  T  T  T </v>
   <v type="logical" >  T  T  T </v>
   <v type="logical" >  T  T  T </v>
   <v type="logical" >  T  T  T </v>
   <v type="logical" >  T  T  T </v>
   <v type="logical" >  T  T  T </v>
   <v type="logical" >  T  T  T </v>
   <v type="logical" >  T  T  T </v>
   <v type="logical" >  T  T  T </v>
   <v type="logical" >  T  T  T </v>
   <v type="logical" >  T  T  T </v>
   <v type="logical" >  T  T  T </v>
   <v type="logical" >  T  T  T </v>
   <v type="logical" >  T  T  T </v>
   <v type="logical" >  T  T  T </v>
   <v type="logical" >  T  T  T </v>
   <v type="logical" >  T  T  T </v>
   <v type="logical" >  T  T  T </v>
   <v type="logical" >  T  T  T </v>
   <v type="logical" >  T  T  T </v>
   <v type="logical" >  T  T  T </v>
   <v type="logical" >  T  T  T </v>
   <v type="logical" >  T  T  T </v>
   <v type="logical" >  T  T  T </v>
   <v type="logical" >  T  T  T </v>
   <v type="logical" >  T  T  T </v>
   <v type="logical" >  T  T  T </v>
   <v type="logical" >  T  T  T </v>
   <v type="logical" >  T  T  T </v>
   <v type="logical" >  T  T  T </v>
   <v type="logical" >  T  T  T </v>
   <v type="logical" >  T  T  T </v>
   <v type="logical" >  T  T  T </v>
   <v type="logical" >  T  T  T </v>
   <v type="logical" >  T  T  T </v>
   <v type="logical" >  T  T  T </v>
   <v type="logical" >  T  T  T </v>
   <v type="logical" >  T  T  T </v>
   <v type="logical" >  T  T  T </v>
   <v type="logical" >  T  T  T </v>
   <v type="logical" >  T  T  T </v>
   <v type="logical" >  T  T  T </v>
   <v type="logical" >  T  T  T </v>
   <v type="logical" >  T  T  T </v>
   <v type="logical" >  T  T  T </v>
   <v type="logical" >  T  T  T </v>
   <v type="logical" >  T  T  T </v>
   <v type="logical" >  T  T  T </v>
   <v type="logical" >  T  T  T </v>
   <v type="logical" >  T  T  T </v>
   <v type="logical" >  T  T  T </v>
   <v type="logical" >  T  T  T </v>
   <v type="logical" >  T  T  T </v>
   <v type="logical" >  T  T  T </v>
   <v type="logical" >  T  T  T </v>
   <v type="logical" >  T  T  T </v>
   <v type="logical" >  T  T  T </v>
   <v type="logical" >  T  T  T </v>
   <v type="logical" >  T  T  T </v>
   <v type="logical" >  T  T  T </v>
   <v type="logical" >  T  T  T </v>
   <v type="logical" >  T  T  T </v>
   <v type="logical" >  T  T  T </v>
   <v type="logical" >  T  T  T </v>
   <v type="logical" >  T  T  T </v>
   <v type="logical" >  T  T  T </v>
   <v type="logical" >  T  T  T </v>
   <v type="logical" >  T  T  T </v>
   <v type="logical" >  T  T  T </v>
   <v type="logical" >  T  T  T </v>
   <v type="logical" >  T  T  T </v>
   <v type="logical" >  T  T  T </v>
  </varray>
  <nose>
   <v>      -3.00000000       0.00000000       0.00010000       0.00010000 </v>
  </nose>
 </structure>
 <calculation>
  <scstep>
   <time name="dav">   74.86   75.32</time>
   <time name="total">   80.27   80.82</time>
   <energy>
    <i name="alphaZ">    181.20502200 </i>
    <i name="ewald">  37020.33809768 </i>
    <i name="hartreedc"> -47593.11041415 </i>
    <i name="XCdc">   1251.50404279 </i>
    <i name="pawpsdc">  10449.77820547 </i>
    <i name="pawaedc"> -10506.58854235 </i>
    <i name="eentropy">     -0.03885816 </i>
    <i name="bandstr">  -1631.85178793 </i>
    <i name="atom">  14153.45850732 </i>
    <i name="e_fr_energy">   3324.69427268 </i>
    <i name="e_wo_entrp">   3324.73313084 </i>
    <i name="e_0_energy">   3324.71370176 </i>
   </energy>
  </scstep>
  <scstep>
   <time name="dav">   98.11   98.77</time>
   <time name="total">   98.12   98.79</time>
   <energy>
    <i name="e_fr_energy">   -255.37468965 </i>
    <i name="e_wo_entrp">   -255.37438434 </i>
    <i name="e_0_energy">   -255.37453699 </i>
   </energy>
  </scstep>
  <scstep>
   <time name="dav">   83.52   84.06</time>
   <time name="total">   83.52   84.08</time>
   <energy>
    <i name="e_fr_energy">   -875.45678004 </i>
    <i name="e_wo_entrp">   -875.45674119 </i>
    <i name="e_0_energy">   -875.45676062 </i>
   </energy>
  </scstep>
  <scstep>
   <time name="dav">   84.60   85.19</time>
   <time name="total">   84.60   85.20</time>
   <energy>
    <i name="e_fr_energy">   -897.55406042 </i>
    <i name="e_wo_entrp">   -897.55401440 </i>
    <i name="e_0_energy">   -897.55403741 </i>
   </energy>
  </scstep>
  <scstep>
   <time name="dav">   93.83   94.45</time>
   <time name="total">   99.44  100.11</time>
   <energy>
    <i name="e_fr_energy">   -898.20891240 </i>
    <i name="e_wo_entrp">   -898.20886541 </i>
    <i name="e_0_energy">   -898.20888890 </i>
   </energy>
  </scstep>
  <scstep>
   <time name="dav">   82.55   83.07</time>
   <time name="total">   93.84   94.48</time>
   <energy>
    <i name="e_fr_energy">   -879.87310944 </i>
    <i name="e_wo_entrp">   -879.87175981 </i>
    <i name="e_0_energy">   -879.87243462 </i>
   </energy>
  </scstep>
  <scstep>
   <time name="dav">   81.68   82.18</time>
   <time name="total">   92.98   93.60</time>
   <energy>
    <i name="e_fr_energy">   -856.88873927 </i>
    <i name="e_wo_entrp">   -856.88873450 </i>
    <i name="e_0_energy">   -856.88873688 </i>
   </energy>
  </scstep>
  <scstep>
   <time name="dav">   82.66   83.14</time>
   <time name="total">   94.06   94.67</time>
   <energy>
    <i name="e_fr_energy">   -851.91415756 </i>
    <i name="e_wo_entrp">   -851.91415751 </i>
    <i name="e_0_energy">   -851.91415753 </i>
   </energy>
  </scstep>
  <scstep>
   <time name="dav">   80.89   81.38</time>
   <time name="total">   92.29   92.90</time>
   <energy>
    <i name="e_fr_energy">   -851.80292747 </i>
    <i name="e_wo_entrp">   -851.80292744 </i>
    <i name="e_0_energy">   -851.80292745 </i>
   </energy>
  </scstep>
  <scstep>
   <time name="dav">   80.85   81.32</time>
   <time name="total">   91.66   92.28</time>
   <energy>
    <i name="e_fr_energy">   -851.71913031 </i>
    <i name="e_wo_entrp">   -851.71913029 </i>
    <i name="e_0_energy">   -851.71913030 </i>
   </energy>
  </scstep>
  <scstep>
   <time name="dav">   78.20   78.67</time>
   <time name="total">   89.33   89.91</time>
   <energy>
    <i name="e_fr_energy">   -851.70394423 </i>
    <i name="e_wo_entrp">   -851.70394421 </i>
    <i name="e_0_energy">   -851.70394422 </i>
   </energy>
  </scstep>
  <scstep>
   <time name="dav">   84.32   84.85</time>
   <time name="total">   95.32   95.95</time>
   <energy>
    <i name="e_fr_energy">   -851.70267024 </i>
    <i name="e_wo_entrp">   -851.70267023 </i>
    <i name="e_0_energy">   -851.70267024 </i>
   </energy>
  </scstep>
  <scstep>
   <time name="dav">   84.74   85.37</time>
   <time name="total">   95.05   95.78</time>
   <energy>
    <i name="e_fr_energy">   -851.70256575 </i>
    <i name="e_wo_entrp">   -851.70256573 </i>
    <i name="e_0_energy">   -851.70256574 </i>
   </energy>
  </scstep>
  <scstep>
   <time name="dav">   82.18   82.73</time>
   <time name="total">   92.47   93.11</time>
   <energy>
    <i name="e_fr_energy">   -851.70261997 </i>
    <i name="e_wo_entrp">   -851.70261995 </i>
    <i name="e_0_energy">   -851.70261996 </i>
   </energy>
  </scstep>
  <scstep>
   <time name="dav">   81.82   82.38</time>
   <time name="total">   92.49   93.15</time>
   <energy>
    <i name="e_fr_energy">   -851.70266743 </i>
    <i name="e_wo_entrp">   -851.70266741 </i>
    <i name="e_0_energy">   -851.70266742 </i>
   </energy>
  </scstep>
  <scstep>
   <time name="dav">   76.19   76.66</time>
   <time name="total">   87.23   87.81</time>
   <energy>
    <i name="e_fr_energy">   -851.70268302 </i>
    <i name="e_wo_entrp">   -851.70268300 </i>
    <i name="e_0_energy">   -851.70268301 </i>
   </energy>
  </scstep>
  <scstep>
   <time name="dav">   81.45   82.00</time>
   <time name="total">   86.73   87.35</time>
   <energy>
    <i name="alphaZ">    181.20502200 </i>
    <i name="ewald">  37020.33809768 </i>
    <i name="hartreedc"> -49151.32599491 </i>
    <i name="XCdc">   1302.57907037 </i>
    <i name="pawpsdc">  37966.16898520 </i>
    <i name="pawaedc"> -38033.94405337 </i>
    <i name="eentropy">     -0.00000002 </i>
    <i name="bandstr">  -4290.18231747 </i>
    <i name="atom">  14153.45850732 </i>
    <i name="e_fr_energy">   -851.70268320 </i>
    <i name="e_wo_entrp">   -851.70268318 </i>
    <i name="e_0_energy">   -851.70268319 </i>
   </energy>
  </scstep>
  <structure>
   <crystal>
    <varray name="basis" >
     <v>      17.27103806       0.00000000       0.00000000 </v>
     <v>      -8.63551903      14.95715771       0.00000000 </v>
     <v>       0.00000000       0.00000000      15.00000000 </v>
    </varray>
    <i name="volume">   3874.88459904 </i>
    <varray name="rec_basis" >
     <v>       0.05790040       0.03342881       0.00000000 </v>
     <v>       0.00000000       0.06685762       0.00000000 </v>
     <v>       0.00000000       0.00000000       0.06666667 </v>
    </varray>
   </crystal>
   <varray name="positions" >
    <v>       0.99947277       0.99948032       0.50769519 </v>
    <v>       0.99906171       0.14221913       0.50559133 </v>
    <v>       0.99898502       0.28513882       0.50341076 </v>
    <v>       0.99933859       0.42826317       0.50339057 </v>
    <v>       0.99994991       0.57140149       0.50568035 </v>
    <v>       0.00096889       0.71458351       0.50877103 </v>
    <v>       0.00071807       0.85754627       0.50950901 </v>
    <v>       0.14285335       0.00019630       0.50493553 </v>
    <v>       0.14213164       0.14258167       0.50715261 </v>
    <v>       0.14138699       0.28481848       0.50713748 </v>
    <v>       0.14150861       0.42796358       0.50429250 </v>
    <v>       0.14244492       0.57102606       0.50135476 </v>
    <v>       0.14299248       0.71419113       0.50108131 </v>
    <v>       0.14311762       0.85734891       0.50264514 </v>
    <v>       0.28556215       0.99995737       0.50360334 </v>
    <v>       0.28527018       0.14251697       0.50949313 </v>
    <v>       0.28500858       0.28649999       0.51513340 </v>
    <v>       0.28305790       0.42724162       0.51505265 </v>
    <v>       0.28537936       0.57010637       0.50714575 </v>
    <v>       0.28541016       0.71436707       0.50123035 </v>
    <v>       0.28556300       0.85738905       0.50032571 </v>
    <v>       0.42852448       0.00023395       0.50392853 </v>
    <v>       0.42827286       0.14264617       0.51029752 </v>
    <v>       0.42636081       0.28203769       0.51816711 </v>
    <v>       0.42653722       0.71609233       0.50385105 </v>
    <v>       0.42822851       0.85747211       0.50224950 </v>
    <v>       0.57114765       0.00038370       0.50512745 </v>
    <v>       0.57120409       0.14279015       0.50868470 </v>
    <v>       0.57214619       0.28607255       0.51902114 </v>
    <v>       0.57192400       0.85803130       0.50826680 </v>
    <v>       0.71394964       0.99981728       0.50907565 </v>
    <v>       0.71405975       0.14279994       0.50625114 </v>
    <v>       0.71415932       0.28569057       0.51223805 </v>
    <v>       0.71417511       0.42772440       0.52569976 </v>
    <v>       0.71988921       0.57369984       0.54464383 </v>
    <v>       0.72191755       0.71716358       0.54517882 </v>
    <v>       0.71303477       0.85702038       0.52092305 </v>
    <v>       0.85668586       0.99964358       0.51147304 </v>
    <v>       0.85642571       0.14240221       0.50559205 </v>
    <v>       0.85655082       0.28536296       0.50554194 </v>
    <v>       0.85716855       0.42844294       0.51151293 </v>
    <v>       0.85821836       0.57182966       0.51995635 </v>
    <v>       0.86007753       0.71539809       0.52425101 </v>
    <v>       0.85734358       0.85670168       0.51895573 </v>
    <v>       0.04693740       0.09477926       0.50625232 </v>
    <v>       0.04616660       0.23715689       0.50457964 </v>
    <v>       0.04630200       0.38032484       0.50281696 </v>
    <v>       0.04732494       0.52359715       0.50270384 </v>
    <v>       0.04790283       0.66673925       0.50451534 </v>
    <v>       0.04805181       0.80973056       0.50654802 </v>
    <v>       0.04764596       0.95237892       0.50676311 </v>
    <v>       0.19003633       0.09496708       0.50685875 </v>
    <v>       0.18936678       0.23765374       0.50939863 </v>
    <v>       0.18796736       0.37965051       0.50816060 </v>
    <v>       0.18962957       0.52315782       0.50348560 </v>
    <v>       0.19025056       0.66660905       0.50070106 </v>
    <v>       0.19060743       0.80970024       0.50080144 </v>
    <v>       0.19059262       0.95247600       0.50323072 </v>
    <v>       0.33314542       0.09524113       0.50747949 </v>
    <v>       0.33341804       0.23761191       0.51478943 </v>
    <v>       0.32896939       0.37921983       0.52007088 </v>
    <v>       0.32912453       0.52136223       0.51535716 </v>
    <v>       0.33365399       0.66739808       0.50388591 </v>
    <v>       0.33312676       0.80955498       0.50055459 </v>
    <v>       0.33313164       0.95245242       0.50219531 </v>
    <v>       0.47603821       0.09515625       0.50758296 </v>
    <v>       0.47526745       0.23762247       0.51620318 </v>
    <v>       0.47525420       0.80943177       0.50415527 </v>
    <v>       0.47601084       0.95274758       0.50339862 </v>
    <v>       0.61868049       0.09531241       0.50637279 </v>
    <v>       0.61904498       0.23802993       0.51330775 </v>
    <v>       0.62109140       0.37928148       0.52652340 </v>
    <v>       0.62007493       0.81314569       0.51578835 </v>
    <v>       0.61887735       0.95285769       0.50730020 </v>
    <v>       0.76151257       0.09512978       0.50637028 </v>
    <v>       0.76159914       0.23783961       0.50742581 </v>
    <v>       0.76206276       0.38078882       0.51646169 </v>
    <v>       0.76304296       0.52500659       0.53102984 </v>
    <v>       0.76620416       0.66756241       0.53958865 </v>
    <v>       0.76157530       0.80858383       0.52908399 </v>
    <v>       0.76153104       0.95225411       0.51405267 </v>
    <v>       0.90387165       0.09442578       0.50694609 </v>
    <v>       0.90386132       0.23757201       0.50409484 </v>
    <v>       0.90417972       0.38078842       0.50616344 </v>
    <v>       0.90503550       0.52397645       0.51188813 </v>
    <v>       0.90618773       0.66694612       0.51767821 </v>
    <v>       0.90580707       0.81001684       0.51754123 </v>
    <v>       0.90424893       0.95165429       0.51202603 </v>
    <v>       0.46231954       0.35452547       0.52113026 </v>
    <v>       0.40140690       0.41793715       0.52566346 </v>
    <v>       0.40149299       0.55518698       0.52319517 </v>
    <v>       0.64826519       0.54026099       0.55576137 </v>
    <v>       0.58530928       0.41584264       0.53139430 </v>
    <v>       0.58368032       0.74109480       0.51821478 </v>
    <v>       0.46280575       0.67982682       0.50411032 </v>
    <v>       0.53507867       0.47147801       0.37565119 </v>
    <v>       0.50404172       0.53541652       0.41045914 </v>
    <v>       0.63293465       0.66764901       0.56630797 </v>
    <v>       0.53492761       0.50388277       0.42864300 </v>
   </varray>
  </structure>
  <varray name="forces" >
   <v>      -0.02544299      -0.01813142       0.00732446 </v>
   <v>       0.00873682      -0.01323405      -0.00030574 </v>
   <v>       0.00414265      -0.00657041       0.00888897 </v>
   <v>      -0.01522784      -0.00313738       0.00010510 </v>
   <v>       0.00080494       0.01062244       0.00989167 </v>
   <v>      -0.00397552       0.00062987       0.00375506 </v>
   <v>      -0.00450126      -0.00264400       0.00653885 </v>
   <v>       0.02808129      -0.02164838       0.00183439 </v>
   <v>      -0.00524124      -0.00075456       0.00164625 </v>
   <v>       0.01397100      -0.01959848      -0.00445637 </v>
   <v>       0.01872351      -0.00193330       0.00479353 </v>
   <v>       0.00101495       0.00582475       0.01256963 </v>
   <v>       0.02387315       0.02340620       0.00628758 </v>
   <v>       0.02147178      -0.00820690       0.00479756 </v>
   <v>       0.04403658      -0.04153050       0.00332247 </v>
   <v>       0.00590359      -0.01381637      -0.00728718 </v>
   <v>       0.00319594       0.02179777      -0.00672745 </v>
   <v>       0.01318424      -0.00822049      -0.00700024 </v>
   <v>       0.01443474       0.00072096       0.00299622 </v>
   <v>      -0.00125340       0.00652461       0.00643038 </v>
   <v>       0.01648826       0.00124053       0.00849460 </v>
   <v>      -0.00009501      -0.01435267       0.00312911 </v>
   <v>       0.00773135      -0.03073939      -0.00516186 </v>
   <v>       0.00392874       0.01606378      -0.00000375 </v>
   <v>      -0.00232491      -0.00308619       0.00664311 </v>
   <v>      -0.00992628      -0.02302994       0.01212801 </v>
   <v>       0.00070193      -0.01074405       0.00602685 </v>
   <v>      -0.00778391      -0.00721076       0.00208492 </v>
   <v>      -0.01200626       0.03577737      -0.00285048 </v>
   <v>       0.00994105      -0.02924190       0.00959297 </v>
   <v>       0.00378753      -0.03000557       0.00410867 </v>
   <v>      -0.00190481      -0.00204680       0.00720013 </v>
   <v>      -0.01153507       0.00261383       0.00623223 </v>
   <v>      -0.03053202       0.01029997      -0.00343227 </v>
   <v>      -0.02013697      -0.00933900      -0.00830593 </v>
   <v>      -0.00743411      -0.00841158      -0.01244229 </v>
   <v>      -0.00614018      -0.03528935      -0.00454492 </v>
   <v>      -0.01933871      -0.02527711       0.00220023 </v>
   <v>      -0.00246928       0.00085970       0.00599372 </v>
   <v>      -0.01324084       0.00027679       0.00751512 </v>
   <v>      -0.01328599      -0.00162452       0.01117835 </v>
   <v>      -0.03544926       0.00101473      -0.00035535 </v>
   <v>      -0.03108515       0.00103842      -0.00096820 </v>
   <v>      -0.01273720      -0.01364984      -0.00065524 </v>
   <v>       0.00525981       0.01339933      -0.00166293 </v>
   <v>      -0.01028983       0.01524751       0.00518265 </v>
   <v>      -0.00033693       0.00503283       0.00779050 </v>
   <v>       0.00859495      -0.00390793       0.00889854 </v>
   <v>      -0.00531268      -0.01814232       0.01022431 </v>
   <v>      -0.00127533      -0.00065174       0.00487296 </v>
   <v>       0.00449774       0.00408621       0.00430111 </v>
   <v>       0.00430512       0.01241194       0.00240886 </v>
   <v>      -0.01174921      -0.00062929      -0.00034783 </v>
   <v>      -0.01890566       0.02807192       0.00131836 </v>
   <v>      -0.00320075      -0.01398993       0.00103436 </v>
   <v>      -0.01021751      -0.00928238       0.01231777 </v>
   <v>      -0.03289556      -0.01530855      -0.00148234 </v>
   <v>      -0.03597041       0.01755266       0.00419477 </v>
   <v>      -0.01380132       0.04219302       0.00259251 </v>
   <v>      -0.00267032      -0.00798074      -0.00588555 </v>
   <v>      -0.01610662      -0.00984128      -0.01290861 </v>
   <v>      -0.02131972      -0.00286470      -0.00752776 </v>
   <v>       0.00465496      -0.01158133       0.01068012 </v>
   <v>       0.00505002       0.00690117       0.00906899 </v>
   <v>      -0.02822997       0.02409980      -0.00206030 </v>
   <v>      -0.00292203       0.02294859       0.00338663 </v>
   <v>      -0.00261214       0.00123150      -0.00259648 </v>
   <v>       0.00801856       0.01988924       0.00153843 </v>
   <v>       0.00528646       0.01385984       0.00942668 </v>
   <v>       0.00486444       0.00658223       0.00510317 </v>
   <v>       0.01391493      -0.00156648       0.00128323 </v>
   <v>       0.03257528      -0.03440477      -0.01340495 </v>
   <v>      -0.00099998       0.03356585       0.00057888 </v>
   <v>      -0.00394020       0.03076618       0.00521648 </v>
   <v>       0.00144743       0.01178540       0.00431805 </v>
   <v>       0.00834352       0.00771389       0.00274202 </v>
   <v>       0.01869212      -0.00713462       0.00158087 </v>
   <v>       0.03046619      -0.00474324      -0.01522215 </v>
   <v>       0.00220171       0.00806345      -0.01557017 </v>
   <v>      -0.00168795       0.00496123      -0.01310373 </v>
   <v>       0.00211287       0.03107241      -0.00332323 </v>
   <v>       0.00045107       0.03296686       0.00513491 </v>
   <v>       0.01375232      -0.00598974       0.00662976 </v>
   <v>       0.01263232       0.00559721       0.00928687 </v>
   <v>       0.01587284      -0.01557677       0.00206515 </v>
   <v>       0.03259368      -0.00295061      -0.00705427 </v>
   <v>       0.01786052       0.00593348      -0.00433439 </v>
   <v>       0.02649816       0.01951453      -0.00202155 </v>
   <v>       0.00072923      -0.00830264      -0.00904876 </v>
   <v>       0.01289148       0.00493431      -0.01623623 </v>
   <v>       0.00868036       0.00273358      -0.00890425 </v>
   <v>       0.00500885       0.00418082      -0.02432953 </v>
   <v>      -0.01635199       0.01037905      -0.00634746 </v>
   <v>       0.00009380      -0.01099712      -0.00196083 </v>
   <v>      -0.00155510       0.00179369       0.01078840 </v>
   <v>      -0.00287223       0.01061986       0.01592362 </v>
   <v>       0.02064808      -0.01383886      -0.02196838 </v>
   <v>      -0.00661099       0.00391937      -0.03314275 </v>
   <v>      -0.02725024       0.00043926      -0.04865738 </v>
  </varray>
  <varray name="stress" >
   <v>       4.31749155       0.72879823      -0.02243267 </v>
   <v>       0.72879548       2.42569646      -0.00071500 </v>
   <v>      -0.02243287      -0.00071460      -0.31906642 </v>
  </varray>
  <energy>
   <i name="e_fr_energy">   -859.57106565 </i>
   <i name="e_wo_entrp">   -859.57106563 </i>
   <i name="e_0_energy">   -859.57106564 </i>
  </energy>
  <time name="totalsc"> 1958.19 1970.87</time>
 </calculation>
 <calculation>
  <scstep>
   <time name="dav">   72.84   73.29</time>
   <time name="total">   84.19   84.72</time>
   <energy>
    <i name="alphaZ">    181.20502200 </i>
    <i name="ewald">  37020.39383778 </i>
    <i name="hartreedc"> -49151.35872066 </i>
    <i name="XCdc">   1302.58156648 </i>
    <i name="pawpsdc">  37964.39443498 </i>
    <i name="pawaedc"> -38032.16977426 </i>
    <i name="eentropy">     -0.00000002 </i>
    <i name="bandstr">  -4290.20783055 </i>
    <i name="atom">  14153.45850732 </i>
    <i name="e_fr_energy">   -851.70295692 </i>
    <i name="e_wo_entrp">   -851.70295691 </i>
    <i name="e_0_energy">   -851.70295692 </i>
   </energy>
  </scstep>
  <scstep>
   <time name="dav">   84.10   84.65</time>
   <time name="total">   94.46   95.11</time>
   <energy>
    <i name="e_fr_energy">   -851.70298306 </i>
    <i name="e_wo_entrp">   -851.70298305 </i>
    <i name="e_0_energy">   -851.70298305 </i>
   </energy>
  </scstep>
  <scstep>
   <time name="dav">   84.44   84.94</time>
   <time name="total">   95.46   96.06</time>
   <energy>
    <i name="e_fr_energy">   -851.70297560 </i>
    <i name="e_wo_entrp">   -851.70297559 </i>
    <i name="e_0_energy">   -851.70297559 </i>
   </energy>
  </scstep>
  <scstep>
   <time name="dav">   60.28   60.60</time>
   <time name="total">   68.99   69.40</time>
   <energy>
    <i name="e_fr_energy">   -851.70296987 </i>
    <i name="e_wo_entrp">   -851.70296985 </i>
    <i name="e_0_energy">   -851.70296986 </i>
   </energy>
  </scstep>
  <scstep>
   <time name="dav">   41.07   41.25</time>
   <time name="total">   45.09   45.34</time>
   <energy>
    <i name="alphaZ">    181.20502200 </i>
    <i name="ewald">  37020.39383778 </i>
    <i name="hartreedc"> -49151.34286768 </i>
    <i name="XCdc">   1302.58195952 </i>
    <i name="pawpsdc">  37964.52493538 </i>
    <i name="pawaedc"> -38032.30063378 </i>
    <i name="eentropy">     -0.00000002 </i>
    <i name="bandstr">  -4290.22372998 </i>
    <i name="atom">  14153.45850732 </i>
    <i name="e_fr_energy">   -851.70296945 </i>
    <i name="e_wo_entrp">   -851.70296944 </i>
    <i name="e_0_energy">   -851.70296945 </i>
   </energy>
  </scstep>
  <structure>
   <crystal>
    <varray name="basis" >
     <v>      17.27103806       0.00000000       0.00000000 </v>
     <v>      -8.63551903      14.95715771       0.00000000 </v>
     <v>       0.00000000       0.00000000      15.00000000 </v>
    </varray>
    <i name="volume">   3874.88459904 </i>
    <varray name="rec_basis" >
     <v>       0.05790040       0.03342881       0.00000000 </v>
     <v>       0.00000000       0.06685762       0.00000000 </v>
     <v>       0.00000000       0.00000000       0.06666667 </v>
    </varray>
   </crystal>
   <varray name="positions" >
    <v>       0.99945198       0.99946798       0.50770139 </v>
    <v>       0.99906231       0.14221006       0.50559198 </v>
    <v>       0.99898516       0.28513421       0.50341718 </v>
    <v>       0.99932865       0.42826087       0.50339144 </v>
    <v>       0.99995384       0.57140840       0.50568854 </v>
    <v>       0.00096675       0.71458373       0.50877563 </v>
    <v>       0.00071458       0.85754429       0.50951528 </v>
    <v>       0.14286237       0.00018160       0.50493801 </v>
    <v>       0.14212832       0.14258093       0.50715516 </v>
    <v>       0.14138848       0.28480514       0.50713573 </v>
    <v>       0.14151872       0.42796205       0.50429644 </v>
    <v>       0.14244738       0.57102973       0.50136372 </v>
    <v>       0.14301407       0.71420656       0.50108637 </v>
    <v>       0.14312729       0.85734320       0.50264942 </v>
    <v>       0.28557377       0.99992939       0.50360702 </v>
    <v>       0.28526895       0.14250750       0.50949070 </v>
    <v>       0.28501763       0.28651429       0.51513202 </v>
    <v>       0.28306267       0.42723587       0.51505065 </v>
    <v>       0.28538785       0.57010660       0.50714906 </v>
    <v>       0.28541158       0.71437118       0.50123536 </v>
    <v>       0.28557297       0.85738965       0.50033221 </v>
    <v>       0.42851964       0.00022412       0.50393227 </v>
    <v>       0.42826707       0.14262540       0.51029715 </v>
    <v>       0.42636839       0.28204814       0.51817185 </v>
    <v>       0.42653481       0.71608998       0.50385605 </v>
    <v>       0.42821510       0.85745645       0.50225856 </v>
    <v>       0.57114447       0.00037624       0.50513293 </v>
    <v>       0.57119717       0.14278511       0.50868861 </v>
    <v>       0.57215119       0.28609625       0.51902428 </v>
    <v>       0.57192003       0.85801140       0.50827479 </v>
    <v>       0.71394179       0.99979696       0.50908007 </v>
    <v>       0.71405794       0.14279835       0.50625743 </v>
    <v>       0.71415350       0.28569214       0.51224518 </v>
    <v>       0.71416092       0.42773113       0.52570318 </v>
    <v>       0.71987483       0.57369364       0.54464631 </v>
    <v>       0.72191085       0.71715818       0.54517845 </v>
    <v>       0.71301950       0.85699660       0.52092363 </v>
    <v>       0.85666623       0.99962648       0.51147635 </v>
    <v>       0.85642453       0.14240255       0.50559697 </v>
    <v>       0.85654319       0.28536295       0.50554811 </v>
    <v>       0.85716027       0.42844168       0.51152294 </v>
    <v>       0.85819819       0.57183018       0.51996031 </v>
    <v>       0.86005995       0.71539866       0.52425482 </v>
    <v>       0.85733172       0.85669241       0.51895846 </v>
    <v>       0.04694489       0.09478799       0.50625230 </v>
    <v>       0.04616569       0.23716686       0.50458378 </v>
    <v>       0.04630341       0.38032799       0.50282266 </v>
    <v>       0.04732852       0.52359433       0.50271064 </v>
    <v>       0.04789363       0.66672693       0.50452361 </v>
    <v>       0.04805085       0.80972992       0.50655290 </v>
    <v>       0.04764992       0.95238143       0.50676735 </v>
    <v>       0.19004295       0.09497514       0.50686197 </v>
    <v>       0.18935972       0.23765308       0.50940022 </v>
    <v>       0.18796573       0.37966904       0.50816287 </v>
    <v>       0.18962295       0.52314823       0.50348701 </v>
    <v>       0.19024149       0.66660263       0.50070996 </v>
    <v>       0.19058325       0.80968979       0.50080133 </v>
    <v>       0.19057768       0.95248752       0.50323469 </v>
    <v>       0.33315154       0.09526911       0.50748352 </v>
    <v>       0.33341376       0.23760631       0.51478904 </v>
    <v>       0.32895661       0.37921296       0.52006605 </v>
    <v>       0.32911107       0.52136007       0.51535488 </v>
    <v>       0.33365277       0.66739007       0.50389388 </v>
    <v>       0.33313200       0.80955935       0.50056140 </v>
    <v>       0.33312337       0.95246831       0.50219523 </v>
    <v>       0.47604419       0.09517136       0.50758766 </v>
    <v>       0.47526634       0.23762305       0.51620592 </v>
    <v>       0.47526552       0.80944477       0.50415724 </v>
    <v>       0.47601855       0.95275659       0.50340625 </v>
    <v>       0.61868549       0.09531656       0.50637796 </v>
    <v>       0.61905249       0.23802868       0.51331209 </v>
    <v>       0.62109877       0.37925824       0.52652114 </v>
    <v>       0.62008565       0.81316781       0.51579152 </v>
    <v>       0.61888535       0.95287794       0.50730523 </v>
    <v>       0.76151731       0.09513740       0.50637439 </v>
    <v>       0.76160649       0.23784456       0.50742939 </v>
    <v>       0.76207118       0.38078389       0.51646643 </v>
    <v>       0.76305913       0.52500332       0.53102589 </v>
    <v>       0.76620844       0.66756786       0.53958527 </v>
    <v>       0.76157620       0.80858711       0.52908023 </v>
    <v>       0.76154266       0.95227466       0.51405285 </v>
    <v>       0.90388289       0.09444758       0.50695058 </v>
    <v>       0.90386722       0.23756778       0.50409995 </v>
    <v>       0.90418883       0.38079198       0.50617099 </v>
    <v>       0.90503943       0.52396587       0.51189226 </v>
    <v>       0.90620562       0.66694398       0.51767708 </v>
    <v>       0.90581945       0.81002065       0.51754147 </v>
    <v>       0.90427081       0.95166714       0.51202663 </v>
    <v>       0.46231711       0.35451963       0.52112988 </v>
    <v>       0.40141580       0.41794004       0.52565778 </v>
    <v>       0.40149870       0.55518870       0.52319355 </v>
    <v>       0.64827004       0.54026400       0.55575472 </v>
    <v>       0.58530329       0.41584934       0.53139872 </v>
    <v>       0.58367693       0.74108708       0.51821666 </v>
    <v>       0.46280544       0.67982773       0.50411760 </v>
    <v>       0.53507450       0.47146322       0.37565707 </v>
    <v>       0.50405146       0.53541753       0.41046091 </v>
    <v>       0.63293321       0.66765272       0.56629795 </v>
    <v>       0.53491461       0.50388311       0.42861810 </v>
   </varray>
  </structure>
  <varray name="forces" >
   <v>      -0.00083671       0.00103166       0.00552783 </v>
   <v>       0.00428691       0.00361808      -0.00007498 </v>
   <v>       0.00082780       0.00311714       0.00879086 </v>
   <v>      -0.00158021      -0.00019625       0.00104739 </v>
   <v>       0.00352388      -0.00135776       0.00992466 </v>
   <v>       0.00488182      -0.00089492       0.00314782 </v>
   <v>       0.00408429       0.00359121       0.00536859 </v>
   <v>       0.00139188       0.00331040       0.00166920 </v>
   <v>       0.00113022       0.00019761       0.00160111 </v>
   <v>      -0.00083106       0.00124726      -0.00377426 </v>
   <v>       0.00029875       0.00143487       0.00405389 </v>
   <v>       0.00097234      -0.00452877       0.01226561 </v>
   <v>      -0.00163425      -0.00025491       0.00860679 </v>
   <v>      -0.00422658       0.00027676       0.00497439 </v>
   <v>      -0.00337618       0.00259938       0.00368404 </v>
   <v>      -0.00267308       0.00102054      -0.00586032 </v>
   <v>      -0.00131053      -0.00087153      -0.00788376 </v>
   <v>      -0.00391740      -0.00096005      -0.00794367 </v>
   <v>      -0.00175646      -0.00313212       0.00194202 </v>
   <v>      -0.00200201      -0.00263940       0.00718843 </v>
   <v>      -0.00291186       0.00136591       0.00750528 </v>
   <v>       0.00008613       0.00495861       0.00370159 </v>
   <v>      -0.00253499      -0.00063605      -0.00455554 </v>
   <v>      -0.00108113      -0.00051072      -0.00141446 </v>
   <v>      -0.00169957       0.00236798       0.00675928 </v>
   <v>       0.00158120      -0.00088662       0.01169773 </v>
   <v>       0.00167696       0.00461895       0.00632659 </v>
   <v>      -0.00006986       0.00253850       0.00265498 </v>
   <v>      -0.00061302      -0.00518860      -0.00526498 </v>
   <v>      -0.00211676       0.00646572       0.00606888 </v>
   <v>       0.00020845       0.00052061       0.00313490 </v>
   <v>       0.00144622       0.00341561       0.00686262 </v>
   <v>       0.00315402      -0.00030454       0.00578836 </v>
   <v>       0.00356984       0.00144291      -0.00660304 </v>
   <v>       0.00347767      -0.00294230      -0.01350044 </v>
   <v>      -0.00302449      -0.00189452      -0.01410312 </v>
   <v>       0.00381265       0.00061166      -0.00566755 </v>
   <v>      -0.00041226       0.00702319       0.00162712 </v>
   <v>      -0.00044597       0.00595816       0.00587847 </v>
   <v>       0.00361296      -0.00045501       0.00688472 </v>
   <v>       0.00174202      -0.00285619       0.00964559 </v>
   <v>       0.00215700      -0.00198757      -0.00330472 </v>
   <v>       0.00079905       0.00101854      -0.00671149 </v>
   <v>       0.00059978       0.00000782      -0.00288191 </v>
   <v>       0.00120788      -0.00129387      -0.00107241 </v>
   <v>       0.00481676      -0.00141388       0.00567724 </v>
   <v>      -0.00018528       0.00147053       0.00737653 </v>
   <v>       0.00354178       0.00091076       0.00891666 </v>
   <v>       0.00501052       0.00014456       0.00937957 </v>
   <v>       0.00330423       0.00053998       0.00479016 </v>
   <v>       0.00101619      -0.00111566       0.00478773 </v>
   <v>       0.00277537      -0.00138894       0.00154425 </v>
   <v>      -0.00065439       0.00087894      -0.00055960 </v>
   <v>       0.00300866      -0.00034929       0.00105150 </v>
   <v>       0.00242806      -0.00159055       0.00184075 </v>
   <v>       0.00199934       0.00336916       0.01192842 </v>
   <v>       0.00282662       0.00130469       0.00062769 </v>
   <v>       0.00317933      -0.00242185       0.00364098 </v>
   <v>       0.00241869      -0.00336315       0.00308235 </v>
   <v>       0.00065818       0.00206938      -0.00545186 </v>
   <v>       0.00217118       0.00413578      -0.01118960 </v>
   <v>       0.00145407      -0.00350667      -0.00522407 </v>
   <v>       0.00261261      -0.00209704       0.00994280 </v>
   <v>      -0.00087585       0.00081991       0.00916683 </v>
   <v>      -0.00068431      -0.00750623      -0.00262770 </v>
   <v>       0.00026463      -0.00294112       0.00195876 </v>
   <v>      -0.00030092       0.00132981      -0.00273833 </v>
   <v>       0.00345448       0.00197791       0.00104848 </v>
   <v>      -0.00240114      -0.00613343       0.00754693 </v>
   <v>      -0.00010697      -0.00044900       0.00353286 </v>
   <v>      -0.00148645       0.00355874       0.00109691 </v>
   <v>      -0.00331592       0.00408640      -0.00788575 </v>
   <v>       0.00093820      -0.00331371       0.00179593 </v>
   <v>      -0.00135387      -0.00108729       0.00586289 </v>
   <v>      -0.00033161      -0.00321627       0.00489411 </v>
   <v>      -0.00110025       0.00354377       0.00370185 </v>
   <v>      -0.00409454       0.00091408       0.00394437 </v>
   <v>      -0.00579831      -0.00036347      -0.00971551 </v>
   <v>      -0.00823951      -0.00387965      -0.01271357 </v>
   <v>      -0.00410832      -0.00515546      -0.01130212 </v>
   <v>       0.00014293      -0.00519666      -0.00096211 </v>
   <v>       0.00124470       0.00132271       0.00544095 </v>
   <v>       0.00151665      -0.00100332       0.00689740 </v>
   <v>      -0.00134802       0.00038908       0.00946775 </v>
   <v>      -0.00220952      -0.00392362       0.00402678 </v>
   <v>      -0.00293659       0.00105816      -0.00291754 </v>
   <v>      -0.00154093      -0.00116832      -0.00198496 </v>
   <v>      -0.00398016      -0.00517657       0.00286888 </v>
   <v>       0.00079080       0.00007602      -0.00847444 </v>
   <v>       0.00414313       0.00026933      -0.01709235 </v>
   <v>       0.00096021      -0.00066544      -0.00996794 </v>
   <v>      -0.00335486      -0.00039847      -0.02279798 </v>
   <v>       0.00058352      -0.00039577      -0.00796181 </v>
   <v>      -0.00039620       0.00342493      -0.00259038 </v>
   <v>      -0.00078113       0.00156326       0.01066906 </v>
   <v>      -0.00290142       0.00834865       0.00860231 </v>
   <v>       0.00492900      -0.00531128      -0.02992987 </v>
   <v>      -0.00736892       0.00219472      -0.03344345 </v>
   <v>      -0.01180980      -0.00513654      -0.03329085 </v>
  </varray>
  <varray name="stress" >
   <v>       4.34881384       0.72990470      -0.01772213 </v>
   <v>       0.72990196       2.39462116      -0.00401632 </v>
   <v>      -0.01772231      -0.00401593      -0.31666978 </v>
  </varray>
  <energy>
   <i name="e_fr_energy">   -859.57134630 </i>
   <i name="e_wo_entrp">   -859.57134628 </i>
   <i name="e_0_energy">   -859.57134629 </i>
  </energy>
  <time name="totalsc">  525.94  529.56</time>
 </calculation>
 <calculation>
  <scstep>
   <time name="dav">   74.50   74.95</time>
[...]
       <r>   -17.0570    11.0105    36.1579 </r>
       <r>   -16.9334     4.3151    36.6914 </r>
       <r>   -16.8098     8.1290    37.6964 </r>
       <r>   -16.6861     9.4349    38.8629 </r>
       <r>   -16.5625     2.6743    39.1935 </r>
       <r>   -16.4389     6.3164    39.9744 </r>
       <r>   -16.3152     9.0373    41.0917 </r>
       <r>   -16.1916    14.5797    42.8942 </r>
       <r>   -16.0680     7.4432    43.8144 </r>
       <r>   -15.9443     1.6313    44.0161 </r>
       <r>   -15.8207     4.0844    44.5211 </r>
       <r>   -15.6971     1.9662    44.7642 </r>
       <r>   -15.5734     3.6269    45.2126 </r>
       <r>   -15.4498     1.1931    45.3601 </r>
       <r>   -15.3262     7.9331    46.3409 </r>
       <r>   -15.2026     8.2993    47.3669 </r>
       <r>   -15.0789     7.4787    48.2915 </r>
       <r>   -14.9553     5.7614    49.0038 </r>
       <r>   -14.8317    14.2522    50.7658 </r>
       <r>   -14.7080     9.9533    51.9964 </r>
       <r>   -14.5844     2.3509    52.2870 </r>
       <r>   -14.4608    11.1167    53.6614 </r>
       <r>   -14.3371    11.1265    55.0370 </r>
       <r>   -14.2135     7.4967    55.9638 </r>
       <r>   -14.0899     8.9491    57.0702 </r>
       <r>   -13.9662    12.8962    58.6646 </r>
       <r>   -13.8426     3.9616    59.1544 </r>
       <r>   -13.7190     5.2914    59.8086 </r>
       <r>   -13.5953     5.2651    60.4595 </r>
       <r>   -13.4717     7.3794    61.3719 </r>
       <r>   -13.3481     9.7589    62.5784 </r>
       <r>   -13.2244     6.8935    63.4306 </r>
       <r>   -13.1008     7.9010    64.4074 </r>
       <r>   -12.9772     5.3180    65.0649 </r>
       <r>   -12.8535     3.8466    65.5405 </r>
       <r>   -12.7299     5.9759    66.2793 </r>
       <r>   -12.6063     8.9779    67.3893 </r>
       <r>   -12.4826     6.5089    68.1940 </r>
       <r>   -12.3590    15.8000    70.1473 </r>
       <r>   -12.2354    12.5702    71.7014 </r>
       <r>   -12.1118     8.0229    72.6933 </r>
       <r>   -11.9881     4.6665    73.2702 </r>
       <r>   -11.8645    12.0037    74.7543 </r>
       <r>   -11.7409     8.2379    75.7727 </r>
       <r>   -11.6172     8.1898    76.7853 </r>
       <r>   -11.4936     7.5049    77.7131 </r>
       <r>   -11.3700    10.7091    79.0371 </r>
       <r>   -11.2463    12.8627    80.6273 </r>
       <r>   -11.1227    12.0522    82.1174 </r>
       <r>   -10.9991    10.4563    83.4101 </r>
       <r>   -10.8754     7.4586    84.3322 </r>
       <r>   -10.7518    14.6877    86.1481 </r>
       <r>   -10.6282     8.1017    87.1497 </r>
       <r>   -10.5045     6.0763    87.9009 </r>
       <r>   -10.3809     3.7721    88.3673 </r>
       <r>   -10.2573     5.3255    89.0257 </r>
       <r>   -10.1336    13.7494    90.7256 </r>
       <r>   -10.0100    14.8004    92.5554 </r>
       <r>    -9.8864    20.9936    95.1508 </r>
       <r>    -9.7627    16.6285    97.2067 </r>
       <r>    -9.6391    19.4859    99.6157 </r>
       <r>    -9.5155    16.0253   101.5970 </r>
       <r>    -9.3918     8.9704   102.7060 </r>
       <r>    -9.2682    21.6062   105.3772 </r>
       <r>    -9.1446    13.3546   107.0283 </r>
       <r>    -9.0210    20.9855   109.6228 </r>
       <r>    -8.8973    20.3248   112.1356 </r>
       <r>    -8.7737    30.5208   115.9089 </r>
       <r>    -8.6501    28.0618   119.3782 </r>
       <r>    -8.5264    19.8588   121.8334 </r>
       <r>    -8.4028    15.7793   123.7843 </r>
       <r>    -8.2792    20.1857   126.2799 </r>
       <r>    -8.1555    20.5476   128.8202 </r>
       <r>    -8.0319    22.7911   131.6379 </r>
       <r>    -7.9083    23.9453   134.5983 </r>
       <r>    -7.7846    13.9003   136.3168 </r>
       <r>    -7.6610    19.0725   138.6748 </r>
       <r>    -7.5374    17.9041   140.8883 </r>
       <r>    -7.4137     9.0545   142.0078 </r>
       <r>    -7.2901     6.7459   142.8418 </r>
       <r>    -7.1665    19.2832   145.2258 </r>
       <r>    -7.0428    22.7233   148.0351 </r>
       <r>    -6.9192    19.5828   150.4562 </r>
       <r>    -6.7956    12.3533   151.9834 </r>
       <r>    -6.6719    10.6318   153.2979 </r>
       <r>    -6.5483    10.8325   154.6371 </r>
       <r>    -6.4247    13.1478   156.2626 </r>
       <r>    -6.3011    11.5804   157.6943 </r>
       <r>    -6.1774    13.0088   159.3026 </r>
       <r>    -6.0538    20.6095   161.8506 </r>
       <r>    -5.9302    19.0904   164.2108 </r>
       <r>    -5.8065    10.7997   165.5460 </r>
       <r>    -5.6829    15.9924   167.5231 </r>
       <r>    -5.5593    14.8418   169.3581 </r>
       <r>    -5.4356     9.6024   170.5452 </r>
       <r>    -5.3120     6.3155   171.3260 </r>
       <r>    -5.1884     3.6110   171.7725 </r>
       <r>    -5.0647     2.0085   172.0208 </r>
       <r>    -4.9411    14.7025   173.8385 </r>
       <r>    -4.8175    20.2250   176.3389 </r>
       <r>    -4.6938    15.4827   178.2531 </r>
       <r>    -4.5702     4.6576   178.8289 </r>
       <r>    -4.4466     9.6182   180.0180 </r>
       <r>    -4.3229     1.8799   180.2505 </r>
       <r>    -4.1993     2.4313   180.5510 </r>
       <r>    -4.0757     8.7538   181.6333 </r>
       <r>    -3.9520     6.8227   182.4768 </r>
       <r>    -3.8284     6.6879   183.3036 </r>
       <r>    -3.7048     7.8430   184.2733 </r>
       <r>    -3.5811     5.7010   184.9781 </r>
       <r>    -3.4575     0.1771   185.0000 </r>
       <r>    -3.3339     0.0440   185.0054 </r>
       <r>    -3.2103     2.6709   185.3357 </r>
       <r>    -3.0866     6.2384   186.1069 </r>
       <r>    -2.9630     1.4529   186.2865 </r>
       <r>    -2.8394     1.7119   186.4982 </r>
       <r>    -2.7157     0.0146   186.5000 </r>
       <r>    -2.5921     0.0976   186.5121 </r>
       <r>    -2.4685     3.6620   186.9648 </r>
       <r>    -2.3448     0.2847   187.0000 </r>
       <r>    -2.2212     0.0360   187.0045 </r>
       <r>    -2.0976     3.3128   187.4140 </r>
       <r>    -1.9739     0.6954   187.5000 </r>
       <r>    -1.8503     0.0001   187.5000 </r>
       <r>    -1.7267     0.7119   187.5880 </r>
       <r>    -1.6030     2.7941   187.9335 </r>
       <r>    -1.4794     5.3720   188.5976 </r>
       <r>    -1.3558     3.2521   188.9997 </r>
       <r>    -1.2321     0.0314   189.0036 </r>
       <r>    -1.1085     5.0361   189.6262 </r>
       <r>    -0.9849     6.7864   190.4652 </r>
       <r>    -0.8612     2.2377   190.7418 </r>
       <r>    -0.7376    13.4402   192.4035 </r>
       <r>    -0.6140    12.2371   193.9164 </r>
       <r>    -0.4903     5.9216   194.6485 </r>
       <r>    -0.3667    11.9211   196.1223 </r>
       <r>    -0.2431     6.6645   196.9463 </r>
       <r>    -0.1195     3.5985   197.3911 </r>
       <r>     0.0042     9.4990   198.5655 </r>
       <r>     0.1278     7.9035   199.5426 </r>
       <r>     0.2514    11.2775   200.9369 </r>
       <r>     0.3751    11.0979   202.3090 </r>
       <r>     0.4987    10.4492   203.6008 </r>
       <r>     0.6223     3.2558   204.0033 </r>
       <r>     0.7460     4.8257   204.5999 </r>
       <r>     0.8696     8.4984   205.6506 </r>
       <r>     0.9932     8.1507   206.6583 </r>
       <r>     1.1169    10.6779   207.9784 </r>
       <r>     1.2405     6.3035   208.7577 </r>
       <r>     1.3641     9.3575   209.9146 </r>
       <r>     1.4878    10.5597   211.2201 </r>
       <r>     1.6114    16.5806   213.2700 </r>
       <r>     1.7350    20.5043   215.8050 </r>
       <r>     1.8587     7.9644   216.7897 </r>
       <r>     1.9823    11.9282   218.2644 </r>
       <r>     2.1059    21.8436   220.9650 </r>
       <r>     2.2296    16.4478   222.9984 </r>
       <r>     2.3532    17.3950   225.1490 </r>
       <r>     2.4768    26.4157   228.4148 </r>
       <r>     2.6005     9.3414   229.5697 </r>
       <r>     2.7241    12.9935   231.1762 </r>
       <r>     2.8477    25.8563   234.3728 </r>
       <r>     2.9713    31.6332   238.2837 </r>
       <r>     3.0950    23.1497   241.1457 </r>
       <r>     3.2186    24.1896   244.1363 </r>
       <r>     3.3422    21.3363   246.7742 </r>
       <r>     3.4659    21.8432   249.4747 </r>
       <r>     3.5895    22.4851   252.2546 </r>
       <r>     3.7131    13.4248   253.9143 </r>
       <r>     3.8368    27.6780   257.3362 </r>
       <r>     3.9604    19.8397   259.7890 </r>
       <r>     4.0840    22.7904   262.6066 </r>
       <r>     4.2077    14.8104   264.4377 </r>
       <r>     4.3313    28.4468   267.9546 </r>
       <r>     4.4549    16.4906   269.9934 </r>
       <r>     4.5786     0.0534   270.0000 </r>
       <r>     4.7022     0.0000   270.0000 </r>
       <r>     4.8258     0.0000   270.0000 </r>
       <r>     4.9495     0.0000   270.0000 </r>
       <r>     5.0731     0.0000   270.0000 </r>
       <r>     5.1967     0.0000   270.0000 </r>
       <r>     5.3204     0.0000   270.0000 </r>
       <r>     5.4440     0.0000   270.0000 </r>
       <r>     5.5676     0.0000   270.0000 </r>
       <r>     5.6913     0.0000   270.0000 </r>
       <r>     5.8149     0.0000   270.0000 </r>
       <r>     5.9385     0.0000   270.0000 </r>
       <r>     6.0621     0.0000   270.0000 </r>
      </set>
     </set>
    </array>
   </total>
  </dos>
 </calculation>
 <structure name="finalpos" >
  <crystal>
   <varray name="basis" >
    <v>      17.27103806       0.00000000       0.00000000 </v>
    <v>      -8.63551903      14.95715771       0.00000000 </v>
    <v>       0.00000000       0.00000000      15.00000000 </v>
   </varray>
   <i name="volume">   3874.88459904 </i>
   <varray name="rec_basis" >
    <v>       0.05790040       0.03342881       0.00000000 </v>
    <v>       0.00000000       0.06685762       0.00000000 </v>
    <v>       0.00000000       0.00000000       0.06666667 </v>
   </varray>
  </crystal>
  <varray name="positions" >
   <v>       0.99940452       0.99921926       0.51081440 </v>
   <v>       0.99910093       0.14198216       0.50877993 </v>
   <v>       0.99905056       0.28494607       0.50717155 </v>
   <v>       0.99942367       0.42806329       0.50735689 </v>
   <v>       1.00004384       0.57116433       0.50960091 </v>
   <v>       0.00099922       0.71439162       0.51195460 </v>
   <v>       0.00069760       0.85733823       0.51255114 </v>
   <v>       0.14284617      -0.00002049       0.50809505 </v>
   <v>       0.14213850       0.14234105       0.50980218 </v>
   <v>       0.14141704       0.28459507       0.50971664 </v>
   <v>       0.14157971       0.42777715       0.50758782 </v>
   <v>       0.14257906       0.57086311       0.50535875 </v>
   <v>       0.14306328       0.71402128       0.50516205 </v>
   <v>       0.14312719       0.85714694       0.50626153 </v>
   <v>       0.28554846       0.99974348       0.50707186 </v>
   <v>       0.28530247       0.14234782       0.51198530 </v>
   <v>       0.28510518       0.28636006       0.51622135 </v>
   <v>       0.28319974       0.42706043       0.51579518 </v>
   <v>       0.28550260       0.56992752       0.50934161 </v>
   <v>       0.28544512       0.71421869       0.50474838 </v>
   <v>       0.28554123       0.85717770       0.50410091 </v>
   <v>       0.42848410       0.00004537       0.50712400 </v>
   <v>       0.42826376       0.14244104       0.51322028 </v>
   <v>       0.42642608       0.28192116       0.52009679 </v>
   <v>       0.42658646       0.71600529       0.50692074 </v>
   <v>       0.42818800       0.85730220       0.50573607 </v>
   <v>       0.57113338       0.00025426       0.50820783 </v>
   <v>       0.57118818       0.14258023       0.51191663 </v>
   <v>       0.57216381       0.28586251       0.52191649 </v>
   <v>       0.57191847       0.85799621       0.51155693 </v>
   <v>       0.71398708       0.99966757       0.51202532 </v>
   <v>       0.71407939       0.14260899       0.50974286 </v>
   <v>       0.71418237       0.28544316       0.51594164 </v>
   <v>       0.71417723       0.42748505       0.52847026 </v>
   <v>       0.71965989       0.57338526       0.54572071 </v>
   <v>       0.72151564       0.71661858       0.54574528 </v>
   <v>       0.71297274       0.85680413       0.52337352 </v>
   <v>       0.85665471       0.99943764       0.51440231 </v>
   <v>       0.85649451       0.14226133       0.50906034 </v>
   <v>       0.85662891       0.28517123       0.50950284 </v>
   <v>       0.85722230       0.42819922       0.51550404 </v>
   <v>       0.85820139       0.57162776       0.52262115 </v>
   <v>       0.85998007       0.71516814       0.52629503 </v>
   <v>       0.85725299       0.85644704       0.52148370 </v>
   <v>       0.04695196       0.09453496       0.50923958 </v>
   <v>       0.04619388       0.23694395       0.50785541 </v>
   <v>       0.04634604       0.38012082       0.50669806 </v>
   <v>       0.04744861       0.52339656       0.50685360 </v>
   <v>       0.04792991       0.66650137       0.50834376 </v>
   <v>       0.04804361       0.80952212       0.50981044 </v>
   <v>       0.04760973       0.95217553       0.50990886 </v>
   <v>       0.19008143       0.09478310       0.50962014 </v>
   <v>       0.18939617       0.23743914       0.51157434 </v>
   <v>       0.18803054       0.37945708       0.51046980 </v>
   <v>       0.18970622       0.52294586       0.50671583 </v>
   <v>       0.19030388       0.66643893       0.50472586 </v>
   <v>       0.19059047       0.80948741       0.50467079 </v>
   <v>       0.19055125       0.95227833       0.50668214 </v>
   <v>       0.33314513       0.09508568       0.51054595 </v>
   <v>       0.33348591       0.23748437       0.51644179 </v>
   <v>       0.32921619       0.37911685       0.51987320 </v>
   <v>       0.32932182       0.52114801       0.51590494 </v>
   <v>       0.33372198       0.66723216       0.50661794 </v>
   <v>       0.33313657       0.80940424       0.50426071 </v>
   <v>       0.33308964       0.95224844       0.50569145 </v>
   <v>       0.47603172       0.09497817       0.51066420 </v>
   <v>       0.47529259       0.23746332       0.51881481 </v>
   <v>       0.47528034       0.80936531       0.50752847 </v>
   <v>       0.47600001       0.95258961       0.50671537 </v>
   <v>       0.61870473       0.09514347       0.50960119 </v>
   <v>       0.61907148       0.23779185       0.51660846 </v>
   <v>       0.62113663       0.37904124       0.52916919 </v>
   <v>       0.62002813       0.81313493       0.51896071 </v>
   <v>       0.61892446       0.95282069       0.51033011 </v>
   <v>       0.76159505       0.09500723       0.50968017 </v>
   <v>       0.76168595       0.23764438       0.51125039 </v>
   <v>       0.76211971       0.38053678       0.52010177 </v>
   <v>       0.76301783       0.52476578       0.53314039 </v>
   <v>       0.76599055       0.66722187       0.54066995 </v>
   <v>       0.76139040       0.80826741       0.53096579 </v>
   <v>       0.76154137       0.95208355       0.51672120 </v>
   <v>       0.90391536       0.09427701       0.51020463 </v>
   <v>       0.90394394       0.23739859       0.50784348 </v>
   <v>       0.90426247       0.38058470       0.51026882 </v>
   <v>       0.90508646       0.52372802       0.51549184 </v>
   <v>       0.90616125       0.66675570       0.52012084 </v>
   <v>       0.90575505       0.80979038       0.52004351 </v>
   <v>       0.90421617       0.95144760       0.51495613 </v>
   <v>       0.46239537       0.35438951       0.52313823 </v>
   <v>       0.40176791       0.41795484       0.52387651 </v>
   <v>       0.40182332       0.55486337       0.52226468 </v>
   <v>       0.64795851       0.53991245       0.55609856 </v>
   <v>       0.58536593       0.41565151       0.53376727 </v>
   <v>       0.58350544       0.74110440       0.52159646 </v>
   <v>       0.46289541       0.67978661       0.50744845 </v>
   <v>       0.52654132       0.46166702       0.37631408 </v>
   <v>       0.51151670       0.53813142       0.40822732 </v>
   <v>       0.63203650       0.66645679       0.56492809 </v>
   <v>       0.53492218       0.49997452       0.42726287 </v>
  </varray>
  <varray name="selective"  type="logical" >
   <v type="logical" >  T  T  T </v>
   <v type="logical" >  T  T  T </v>
   <v type="logical" >  T  T  T </v>
   <v type="logical" >  T  T  T </v>
   <v type="logical" >  T  T  T </v>
   <v type="logical" >  T  T  T </v>
   <v type="logical" >  T  T  T </v>
   <v type="logical" >  T  T  T </v>
   <v type="logical" >  T  T  T </v>
   <v type="logical" >  T  T  T </v>
   <v type="logical" >  T  T  T </v>
   <v type="logical" >  T  T  T </v>
   <v type="logical" >  T  T  T </v>
   <v type="logical" >  T  T  T </v>
   <v type="logical" >  T  T  T </v>
   <v type="logical" >  T  T  T </v>
   <v type="logical" >  T  T  T </v>
   <v type="logical" >  T  T  T </v>
   <v type="logical" >  T  T  T </v>
   <v type="logical" >  T  T  T </v>
   <v type="logical" >  T  T  T </v>
   <v type="logical" >  T  T  T </v>
   <v type="logical" >  T  T  T </v>
   <v type="logical" >  T  T  T </v>
   <v type="logical" >  T  T  T </v>
   <v type="logical" >  T  T  T </v>
   <v type="logical" >  T  T  T </v>
   <v type="logical" >  T  T  T </v>
   <v type="logical" >  T  T  T </v>
   <v type="logical" >  T  T  T </v>
   <v type="logical" >  T  T  T </v>
   <v type="logical" >  T  T  T </v>
   <v type="logical" >  T  T  T </v>
   <v type="logical" >  T  T  T </v>
   <v type="logical" >  T  T  T </v>
   <v type="logical" >  T  T  T </v>
   <v type="logical" >  T  T  T </v>
   <v type="logical" >  T  T  T </v>
   <v type="logical" >  T  T  T </v>
   <v type="logical" >  T  T  T </v>
   <v type="logical" >  T  T  T </v>
   <v type="logical" >  T  T  T </v>
   <v type="logical" >  T  T  T </v>
   <v type="logical" >  T  T  T </v>
   <v type="logical" >  T  T  T </v>
   <v type="logical" >  T  T  T </v>
   <v type="logical" >  T  T  T </v>
   <v type="logical" >  T  T  T </v>
   <v type="logical" >  T  T  T </v>
   <v type="logical" >  T  T  T </v>
   <v type="logical" >  T  T  T </v>
   <v type="logical" >  T  T  T </v>
   <v type="logical" >  T  T  T </v>
   <v type="logical" >  T  T  T </v>
   <v type="logical" >  T  T  T </v>
   <v type="logical" >  T  T  T </v>
   <v type="logical" >  T  T  T </v>
   <v type="logical" >  T  T  T </v>
   <v type="logical" >  T  T  T </v>
   <v type="logical" >  T  T  T </v>
   <v type="logical" >  T  T  T </v>
   <v type="logical" >  T  T  T </v>
   <v type="logical" >  T  T  T </v>
   <v type="logical" >  T  T  T </v>
   <v type="logical" >  T  T  T </v>
   <v type="logical" >  T  T  T </v>
   <v type="logical" >  T  T  T </v>
   <v type="logical" >  T  T  T </v>
   <v type="logical" >  T  T  T </v>
   <v type="logical" >  T  T  T </v>
   <v type="logical" >  T  T  T </v>
   <v type="logical" >  T  T  T </v>
   <v type="logical" >  T  T  T </v>
   <v type="logical" >  T  T  T </v>
   <v type="logical" >  T  T  T </v>
   <v type="logical" >  T  T  T </v>
   <v type="logical" >  T  T  T </v>
   <v type="logical" >  T  T  T </v>
   <v type="logical" >  T  T  T </v>
   <v type="logical" >  T  T  T </v>
   <v type="logical" >  T  T  T </v>
   <v type="logical" >  T  T  T </v>
   <v type="logical" >  T  T  T </v>
   <v type="logical" >  T  T  T </v>
   <v type="logical" >  T  T  T </v>
   <v type="logical" >  T  T  T </v>
   <v type="logical" >  T  T  T </v>
   <v type="logical" >  T  T  T </v>
   <v type="logical" >  T  T  T </v>
   <v type="logical" >  T  T  T </v>
   <v type="logical" >  T  T  T </v>
   <v type="logical" >  T  T  T </v>
   <v type="logical" >  T  T  T </v>
   <v type="logical" >  T  T  T </v>
   <v type="logical" >  T  T  T </v>
   <v type="logical" >  T  T  T </v>
   <v type="logical" >  T  T  T </v>
   <v type="logical" >  T  T  T </v>
   <v type="logical" >  T  T  T </v>
  </varray>
  <nose>
   <v>      -3.00000000       0.00000000       0.00010000       0.00010000 </v>
  </nose>
 </structure>
</modeling>
