unknown system                          
           1
    17.271038    0.000000    0.000000
    -8.635519   14.957158    0.000000
     0.000000    0.000000   15.000000
   C    H    F    O 
    88     9     1     1
Direct configuration=     1
   0.99945198  0.99946798  0.50770139
   0.99906231  0.14221006  0.50559198
   0.99898516  0.28513421  0.50341718
   0.99932865  0.42826087  0.50339144
   0.99995384  0.57140840  0.50568854
   0.00096675  0.71458373  0.50877563
   0.00071458  0.85754429  0.50951528
   0.14286237  0.00018160  0.50493801
   0.14212832  0.14258093  0.50715516
   0.14138848  0.28480514  0.50713573
   0.14151872  0.42796205  0.50429644
   0.14244738  0.57102973  0.50136372
   0.14301407  0.71420656  0.50108637
   0.14312729  0.85734320  0.50264942
   0.28557377  0.99992939  0.50360702
   0.28526895  0.14250750  0.50949070
   0.28501763  0.28651429  0.51513202
   0.28306267  0.42723587  0.51505065
   0.28538785  0.57010660  0.50714906
   0.28541158  0.71437118  0.50123536
   0.28557297  0.85738965  0.50033221
   0.42851964  0.00022412  0.50393227
   0.42826707  0.14262540  0.51029715
   0.42636839  0.28204814  0.51817185
   0.42653481  0.71608998  0.50385605
   0.42821510  0.85745645  0.50225856
   0.57114447  0.00037624  0.50513293
   0.57119717  0.14278511  0.50868861
   0.57215119  0.28609625  0.51902428
   0.57192003  0.85801140  0.50827479
   0.71394179  0.99979696  0.50908007
   0.71405794  0.14279835  0.50625743
   0.71415350  0.28569214  0.51224518
   0.71416092  0.42773113  0.52570318
   0.71987483  0.57369364  0.54464631
   0.72191085  0.71715818  0.54517845
   0.71301950  0.85699660  0.52092363
   0.85666623  0.99962648  0.51147635
   0.85642453  0.14240255  0.50559697
   0.85654319  0.28536295  0.50554811
   0.85716027  0.42844168  0.51152294
   0.85819819  0.57183018  0.51996031
   0.86005995  0.71539866  0.52425482
   0.85733172  0.85669241  0.51895846
   0.04694489  0.09478799  0.50625230
   0.04616569  0.23716686  0.50458378
   0.04630341  0.38032799  0.50282266
   0.04732852  0.52359433  0.50271064
   0.04789363  0.66672693  0.50452361
   0.04805085  0.80972992  0.50655290
   0.04764992  0.95238143  0.50676735
   0.19004295  0.09497514  0.50686197
   0.18935972  0.23765308  0.50940022
   0.18796573  0.37966904  0.50816287
   0.18962295  0.52314823  0.50348701
   0.19024149  0.66660263  0.50070996
   0.19058325  0.80968979  0.50080133
   0.19057768  0.95248752  0.50323469
   0.33315154  0.09526911  0.50748352
   0.33341376  0.23760631  0.51478904
   0.32895661  0.37921296  0.52006605
   0.32911107  0.52136007  0.51535488
   0.33365277  0.66739007  0.50389388
   0.33313200  0.80955935  0.50056140
   0.33312337  0.95246831  0.50219523
   0.47604419  0.09517136  0.50758766
   0.47526634  0.23762305  0.51620592
   0.47526552  0.80944477  0.50415724
   0.47601855  0.95275659  0.50340625
   0.61868549  0.09531656  0.50637796
   0.61905249  0.23802868  0.51331209
   0.62109877  0.37925824  0.52652114
   0.62008565  0.81316781  0.51579152
   0.61888535  0.95287794  0.50730523
   0.76151731  0.09513740  0.50637439
   0.76160649  0.23784456  0.50742939
   0.76207118  0.38078389  0.51646643
   0.76305913  0.52500332  0.53102589
   0.76620844  0.66756786  0.53958527
   0.76157620  0.80858711  0.52908023
   0.76154266  0.95227466  0.51405285
   0.90388289  0.09444758  0.50695058
   0.90386722  0.23756778  0.50409995
   0.90418883  0.38079198  0.50617099
   0.90503943  0.52396587  0.51189226
   0.90620562  0.66694398  0.51767708
   0.90581945  0.81002065  0.51754147
   0.90427081  0.95166714  0.51202663
   0.46231711  0.35451963  0.52112988
   0.40141580  0.41794004  0.52565778
   0.40149870  0.55518870  0.52319355
   0.64827004  0.54026400  0.55575472
   0.58530329  0.41584934  0.53139872
   0.58367693  0.74108708  0.51821666
   0.46280544  0.67982773  0.50411760
   0.53507450  0.47146322  0.37565707
   0.50405146  0.53541753  0.41046091
   0.63293321  0.66765272  0.56629795
   0.53491461  0.50388311  0.42861810
Direct configuration=     2
   0.99943307  0.99945746  0.50771341
   0.99906750  0.14220469  0.50559362
   0.99898716  0.28513242  0.50343108
   0.99931835  0.42825836  0.50339415
   0.99995929  0.57141322  0.50570646
   0.00096798  0.71458291  0.50878522
   0.00071599  0.85754530  0.50952799
   0.14287292  0.00017090  0.50494333
   0.14212621  0.14258013  0.50716071
   0.14138967  0.28479389  0.50713256
   0.14152856  0.42796159  0.50430442
   0.14244826  0.57102889  0.50138297
   0.14303212  0.71421994  0.50109940
   0.14313298  0.85733802  0.50265894
   0.28558287  0.99990615  0.50361539
   0.28526628  0.14249954  0.50948673
   0.28502431  0.28652606  0.51512814
   0.28306353  0.42722955  0.51504561
   0.28539272  0.57010379  0.50715541
   0.28541020  0.71437232  0.50124693
   0.28558038  0.85739106  0.50034556
   0.42851749  0.00021919  0.50394097
   0.42825972  0.14260587  0.51029698
   0.42637412  0.28205673  0.51818114
   0.42653236  0.71608948  0.50386706
   0.42820385  0.85744125  0.50227795
   0.57114484  0.00037308  0.50514516
   0.57119198  0.14278244  0.50869770
   0.57215303  0.28611287  0.51902924
   0.57191770  0.85799852  0.50828925
   0.71393510  0.99977878  0.50908893
   0.71405880  0.14279954  0.50627089
   0.71415043  0.28569306  0.51226043
   0.71415145  0.42773822  0.52570817
   0.71986371  0.57368559  0.54464762
   0.72190231  0.71715200  0.54517654
   0.71300895  0.85697547  0.52092407
   0.85665125  0.99961679  0.51148313
   0.85642562  0.14240763  0.50560761
   0.85653873  0.28536228  0.50556103
   0.85715283  0.42843788  0.51154349
   0.85818080  0.57182875  0.51996658
   0.86004526  0.71539989  0.52425841
   0.85732161  0.85668388  0.51896265
   0.04695193  0.09479445  0.50625279
   0.04616775  0.23717431  0.50459324
   0.04630507  0.38033178  0.50283471
   0.04733463  0.52359231  0.50272546
   0.04788904  0.66671571  0.50454093
   0.04805264  0.80972953  0.50656352
   0.04765377  0.95238245  0.50677703
   0.19005033  0.09498091  0.50686830
   0.18935318  0.23765290  0.50940356
   0.18796624  0.37968512  0.50816764
   0.18961799  0.52313793  0.50349080
   0.19023617  0.66659942  0.50072900
   0.19056412  0.80968121  0.50080290
   0.19056555  0.95249554  0.50324292
   0.33315740  0.09529114  0.50749277
   0.33341120  0.23760270  0.51478870
   0.32894824  0.37920991  0.52005716
   0.32909831  0.52135481  0.51535198
   0.33365263  0.66738072  0.50391060
   0.33313643  0.80956367  0.50057632
   0.33311224  0.95247592  0.50219461
   0.47604852  0.09518215  0.50759677
   0.47526566  0.23762438  0.51621194
   0.47527916  0.80945778  0.50416115
   0.47602112  0.95275913  0.50342130
   0.61868970  0.09531959  0.50638795
   0.61905965  0.23803030  0.51332151
   0.62110472  0.37924049  0.52652116
   0.62009469  0.81318447  0.51579958
   0.61889110  0.95289482  0.50731677
   0.76151991  0.09514120  0.50638387
   0.76161375  0.23785178  0.50743806
   0.76207610  0.38078002  0.51647890
   0.76306941  0.52499994  0.53102222
   0.76620494  0.66756953  0.53958064
   0.76157206  0.80858562  0.52907378
   0.76155103  0.95228843  0.51405533
   0.90389446  0.09446803  0.50696064
   0.90387314  0.23756283  0.50411131
   0.90419611  0.38079527  0.50618761
   0.90503961  0.52395279  0.51190300
   0.90622003  0.66694274  0.51767830
   0.90582904  0.81002287  0.51754412
   0.90428538  0.95167404  0.51203218
   0.46231545  0.35451405  0.52112977
   0.40142670  0.41794235  0.52564490
   0.40150395  0.55518955  0.52318929
   0.64827249  0.54026667  0.55574192
   0.58529818  0.41585470  0.53140730
   0.58367535  0.74108256  0.51822033
   0.46280525  0.67982951  0.50413336
   0.53506420  0.47142824  0.37566347
   0.50406479  0.53542738  0.41045863
   0.63292882  0.66765938  0.56627640
   0.53489546  0.50387909  0.42857728
Direct configuration=     3
   0.99943822  0.99945998  0.50771430
   0.99906860  0.14220720  0.50559401
   0.99898783  0.28513390  0.50343270
   0.99932068  0.42825865  0.50339501
   0.99995809  0.57141065  0.50570791
   0.00096924  0.71458248  0.50878635
   0.00071778  0.85754614  0.50952929
   0.14287134  0.00017433  0.50494435
   0.14212723  0.14258012  0.50716137
   0.14138965  0.28479732  0.50713267
   0.14152656  0.42796194  0.50430521
   0.14244780  0.57102727  0.50138507
   0.14302788  0.71421675  0.50110121
   0.14313044  0.85733912  0.50266004
   0.28558001  0.99991240  0.50361653
   0.28526656  0.14250194  0.50948710
   0.28502238  0.28652331  0.51512766
   0.28306186  0.42723038  0.51504503
   0.28539034  0.57010272  0.50715603
   0.28540955  0.71437084  0.50124859
   0.28557778  0.85739077  0.50034676
   0.42851856  0.00022192  0.50394196
   0.42826073  0.14261043  0.51029751
   0.42637226  0.28205423  0.51818201
   0.42653298  0.71609040  0.50386839
   0.42820684  0.85744410  0.50227999
   0.57114616  0.00037556  0.50514660
   0.57119374  0.14278400  0.50869898
   0.57215183  0.28610735  0.51902932
   0.57191884  0.85800426  0.50829027
   0.71393693  0.99978314  0.50908980
   0.71405980  0.14280046  0.50627236
   0.71415180  0.28569285  0.51226211
   0.71415489  0.42773686  0.52570836
   0.71986675  0.57368628  0.54464704
   0.72190248  0.71715262  0.54517607
   0.71301218  0.85698010  0.52092420
   0.85665553  0.99962146  0.51148375
   0.85642631  0.14240837  0.50560888
   0.85654097  0.28536244  0.50556225
   0.85715430  0.42843726  0.51154560
   0.85818516  0.57182825  0.51996645
   0.86004894  0.71539999  0.52425830
   0.85732426  0.85668566  0.51896278
   0.04695056  0.09479182  0.50625332
   0.04616862  0.23717235  0.50459399
   0.04630486  0.38033135  0.50283597
   0.04733447  0.52359278  0.50272724
   0.04789189  0.66671808  0.50454282
   0.04805341  0.80972952  0.50656484
   0.04765322  0.95238186  0.50677834
   0.19004926  0.09497887  0.50686884
   0.18935464  0.23765304  0.50940387
   0.18796717  0.37968121  0.50816821
   0.18961960  0.52313942  0.50349158
   0.19023850  0.66660095  0.50073112
   0.19056934  0.80968340  0.50080356
   0.19056932  0.95249259  0.50324400
   0.33315593  0.09528455  0.50749325
   0.33341225  0.23760411  0.51478886
   0.32895161  0.37921177  0.52005683
   0.32910098  0.52135435  0.51535222
   0.33365295  0.66738182  0.50391231
   0.33313507  0.80956250  0.50057815
   0.33311384  0.95247213  0.50219490
   0.47604701  0.09517809  0.50759748
   0.47526565  0.23762405  0.51621272
   0.47527761  0.80945528  0.50416200
   0.47601884  0.95275644  0.50342299
   0.61868875  0.09531890  0.50638914
   0.61905807  0.23803084  0.51332278
   0.62110297  0.37924577  0.52652241
   0.62009242  0.81317936  0.51580079
   0.61888923  0.95289043  0.50731833
   0.76151871  0.09513903  0.50638518
   0.76161219  0.23785106  0.50743925
   0.76207381  0.38078113  0.51648071
   0.76306477  0.52500047  0.53102328
   0.76620221  0.66756739  0.53958093
   0.76157102  0.80858314  0.52907371
   0.76154825  0.95228300  0.51405619
   0.90389275  0.09446394  0.50696195
   0.90387244  0.23756391  0.50411249
   0.90419391  0.38079424  0.50618955
   0.90503816  0.52395409  0.51190482
   0.90621543  0.66694321  0.51767942
   0.90582634  0.81002194  0.51754505
   0.90428008  0.95167072  0.51203354
   0.46231614  0.35451517  0.52113014
   0.40142576  0.41794160  0.52564343
   0.40150262  0.55518879  0.52318874
   0.64827089  0.54026597  0.55574115
   0.58529948  0.41585311  0.53140827
   0.58367642  0.74108474  0.51822075
   0.46280531  0.67982965  0.50413513
   0.53506230  0.47142283  0.37566191
   0.50406420  0.53543067  0.41045679
   0.63292766  0.66765951  0.56627443
   0.53489604  0.50387741  0.42857707
Direct configuration=     4
   0.99944730  0.99946426  0.50771631
   0.99907058  0.14221153  0.50559491
   0.99898906  0.28513642  0.50343605
   0.99932485  0.42825916  0.50339688
   0.99995592  0.57140607  0.50571078
   0.00097142  0.71458167  0.50878892
   0.00072087  0.85754749  0.50953217
   0.14286900  0.00018008  0.50494636
   0.14212907  0.14258004  0.50716285
   0.14138974  0.28480340  0.50713305
   0.14152305  0.42796246  0.50430693
   0.14244713  0.57102454  0.50138940
   0.14302053  0.71421113  0.50110498
   0.14312618  0.85734104  0.50266238
   0.28557494  0.99992329  0.50361894
   0.28526707  0.14250595  0.50948781
   0.28501903  0.28651850  0.51512703
   0.28305909  0.42723179  0.51504419
   0.28538625  0.57010079  0.50715747
   0.28540852  0.71436826  0.50125208
   0.28557325  0.85739018  0.50034927
   0.42852023  0.00022646  0.50394413
   0.42826250  0.14261840  0.51029884
   0.42636901  0.28204983  0.51818429
   0.42653414  0.71609200  0.50387120
   0.42821203  0.85744902  0.50228422
   0.57114832  0.00037979  0.50514969
   0.57119680  0.14278665  0.50870182
   0.57214968  0.28609765  0.51903015
   0.57192084  0.85801423  0.50829258
   0.71394012  0.99979065  0.50909181
   0.71406151  0.14280201  0.50627551
   0.71415420  0.28569252  0.51226586
   0.71416071  0.42773446  0.52570949
   0.71987190  0.57368747  0.54464683
   0.72190266  0.71715359  0.54517592
   0.71301800  0.85698786  0.52092468
   0.85666307  0.99962954  0.51148528
   0.85642749  0.14240953  0.50561159
   0.85654490  0.28536265  0.50556487
   0.85715677  0.42843605  0.51155021
   0.85819254  0.57182720  0.51996707
   0.86005522  0.71540009  0.52425869
   0.85732864  0.85668847  0.51896318
   0.04694822  0.09478749  0.50625428
   0.04617019  0.23716902  0.50459587
   0.04630453  0.38033061  0.50283860
   0.04733414  0.52359345  0.50273065
   0.04789686  0.66672209  0.50454686
   0.04805475  0.80972943  0.50656771
   0.04765242  0.95238094  0.50678114
   0.19004738  0.09497530  0.50687013
   0.18935721  0.23765322  0.50940465
   0.18796844  0.37967433  0.50816935
   0.18962237  0.52314196  0.50349327
   0.19024246  0.66660341  0.50073553
   0.19057842  0.80968724  0.50080505
   0.19057561  0.95248738  0.50324615
   0.33315322  0.09527299  0.50749451
   0.33341402  0.23760651  0.51478952
   0.32895749  0.37921495  0.52005644
   0.32910559  0.52135345  0.51535287
   0.33365343  0.66738365  0.50391588
   0.33313264  0.80956032  0.50058196
   0.33311666  0.95246552  0.50219568
   0.47604455  0.09517139  0.50759904
   0.47526554  0.23762332  0.51621474
   0.47527490  0.80945092  0.50416387
   0.47601498  0.95275178  0.50342658
   0.61868721  0.09531783  0.50639179
   0.61905531  0.23803173  0.51332569
   0.62109992  0.37925493  0.52652541
   0.62008847  0.81317058  0.51580346
   0.61888605  0.95288291  0.50732165
   0.76151671  0.09513529  0.50638798
   0.76160948  0.23784973  0.50744189
   0.76206986  0.38078301  0.51648470
   0.76305674  0.52500134  0.53102581
   0.76619749  0.66756361  0.53958209
   0.76156907  0.80857924  0.52907391
   0.76154342  0.95227355  0.51405809
   0.90389005  0.09445714  0.50696450
   0.90387133  0.23756593  0.50411499
   0.90419008  0.38079236  0.50619363
   0.90503569  0.52395633  0.51190872
   0.90620771  0.66694404  0.51768201
   0.90582179  0.81002040  0.51754718
   0.90427080  0.95166496  0.51203640
   0.46231738  0.35451708  0.52113146
   0.40142421  0.41794022  0.52564098
   0.40150023  0.55518736  0.52318809
   0.64826809  0.54026474  0.55574049
   0.58530174  0.41585031  0.53141114
   0.58367830  0.74108851  0.51822196
   0.46280541  0.67982991  0.50413873
   0.53505781  0.47140993  0.37565855
   0.50406365  0.53543791  0.41045487
   0.63292568  0.66765943  0.56627160
   0.53489705  0.50387423  0.42857684
Direct configuration=     5
   0.99945709  0.99946878  0.50771970
   0.99907294  0.14221628  0.50559660
   0.99899065  0.28513914  0.50344136
   0.99932915  0.42825979  0.50340001
   0.99995326  0.57140057  0.50571516
   0.00097375  0.71458052  0.50879351
   0.00072421  0.85754865  0.50953717
   0.14286660  0.00018627  0.50494965
   0.14213095  0.14257940  0.50716510
   0.14138999  0.28480996  0.50713388
   0.14151912  0.42796280  0.50430986
   0.14244675  0.57102168  0.50139624
   0.14301248  0.71420473  0.50111099
   0.14312174  0.85734304  0.50266617
   0.28556945  0.99993482  0.50362276
   0.28526796  0.14251039  0.50948927
   0.28501535  0.28651317  0.51512688
   0.28305633  0.42723323  0.51504364
   0.28538188  0.57009841  0.50716015
   0.28540765  0.71436533  0.50125773
   0.28556822  0.85738928  0.50035334
   0.42852165  0.00023098  0.50394780
   0.42826451  0.14262746  0.51030144
   0.42636541  0.28204484  0.51818888
   0.42653557  0.71609370  0.50387574
   0.42821773  0.85745438  0.50229097
   0.57115044  0.00038437  0.50515484
   0.57120021  0.14278957  0.50870673
   0.57214726  0.28608719  0.51903322
   0.57192366  0.85802480  0.50829694
   0.71394341  0.99979850  0.50909517
   0.71406333  0.14280366  0.50628039
   0.71415666  0.28569225  0.51227208
   0.71416676  0.42773165  0.52571280
   0.71987712  0.57368884  0.54464869
   0.72190256  0.71715432  0.54517743
   0.71302453  0.85699613  0.52092624
   0.85667167  0.99963845  0.51148828
   0.85642888  0.14241055  0.50561605
   0.85654931  0.28536274  0.50556929
   0.85715925  0.42843442  0.51155801
   0.85820051  0.57182586  0.51996957
   0.86006143  0.71539962  0.52426043
   0.85733291  0.85669104  0.51896495
   0.04694581  0.09478274  0.50625595
   0.04617222  0.23716543  0.50459909
   0.04630430  0.38032975  0.50284282
   0.04733363  0.52359388  0.50273600
   0.04790230  0.66672616  0.50455350
   0.04805616  0.80972906  0.50657258
   0.04765192  0.95238001  0.50678580
   0.19004539  0.09497137  0.50687255
   0.18936008  0.23765335  0.50940621
   0.18796939  0.37966630  0.50817127
   0.18962540  0.52314457  0.50349612
   0.19024668  0.66660564  0.50074255
   0.19058847  0.80969153  0.50080768
   0.19058241  0.95248151  0.50324974
   0.33314989  0.09525994  0.50749717
   0.33341582  0.23760915  0.51479126
   0.32896408  0.37921834  0.52005640
   0.32911070  0.52135231  0.51535421
   0.33365383  0.66738551  0.50392162
   0.33312980  0.80955750  0.50058809
   0.33311978  0.95245822  0.50219733
   0.47604200  0.09516438  0.50760206
   0.47526524  0.23762224  0.51621881
   0.47527185  0.80944600  0.50416710
   0.47601094  0.95274675  0.50343250
   0.61868611  0.09531692  0.50639600
   0.61905231  0.23803270  0.51333087
   0.62109652  0.37926496  0.52653098
   0.62008423  0.81316137  0.51580768
   0.61888278  0.95287496  0.50732711
   0.76151481  0.09513140  0.50639260
   0.76160655  0.23784816  0.50744640
   0.76206558  0.38078497  0.51649146
   0.76304849  0.52500211  0.53103024
   0.76619232  0.66755935  0.53958502
   0.76156730  0.80857542  0.52907492
   0.76153818  0.95226313  0.51406130
   0.90388748  0.09444988  0.50696851
   0.90387047  0.23756859  0.50411907
   0.90418590  0.38079006  0.50620019
   0.90503302  0.52395867  0.51191519
   0.90619963  0.66694475  0.51768629
   0.90581707  0.81001884  0.51755096
   0.90426061  0.95165880  0.51204074
   0.46231883  0.35451914  0.52113468
   0.40142270  0.41793852  0.52563832
   0.40149736  0.55518550  0.52318809
   0.64826481  0.54026334  0.55574128
   0.58530424  0.41584711  0.53141755
   0.58368045  0.74109267  0.51822459
   0.46280555  0.67983030  0.50414439
   0.53504950  0.47138622  0.37565347
   0.50406446  0.53544997  0.41045576
   0.63292295  0.66765929  0.56626964
   0.53489802  0.50386984  0.42857638
Direct configuration=     6
   0.99946443  0.99947166  0.50772472
   0.99907505  0.14221970  0.50559923
   0.99899229  0.28514105  0.50344856
   0.99933229  0.42826022  0.50340457
   0.99995070  0.57139545  0.50572100
   0.00097538  0.71457919  0.50880044
   0.00072661  0.85754891  0.50954453
   0.14286491  0.00019066  0.50495434
   0.14213237  0.14257823  0.50716832
   0.14139061  0.28481489  0.50713542
   0.14151613  0.42796252  0.50431376
   0.14244745  0.57101987  0.50140519
   0.14300718  0.71419981  0.50111884
   0.14311895  0.85734429  0.50267146
   0.28556521  0.99994291  0.50362797
   0.28526917  0.14251372  0.50949183
   0.28501266  0.28650913  0.51512785
   0.28305481  0.42723403  0.51504399
   0.28537891  0.57009616  0.50716434
   0.28540746  0.71436294  0.50126553
   0.28556440  0.85738806  0.50035898
   0.42852210  0.00023291  0.50395331
   0.42826605  0.14263404  0.51030577
   0.42636266  0.28204087  0.51819647
   0.42653691  0.71609483  0.50388200
   0.42822194  0.85745820  0.50230012
   0.57115117  0.00038714  0.50516229
   0.57120282  0.14279168  0.50871394
   0.57214586  0.28608043  0.51903946
   0.57192642  0.85803229  0.50830359
   0.71394571  0.99980380  0.50910020
   0.71406465  0.14280475  0.50628711
   0.71415779  0.28569225  0.51228101
   0.71417052  0.42772927  0.52571946
   0.71988016  0.57368984  0.54465422
   0.72190191  0.71715429  0.54518188
   0.71302949  0.85700187  0.52092958
   0.85667778  0.99964468  0.51149286
   0.85643004  0.14241084  0.50562230
   0.85655268  0.28536252  0.50557564
   0.85716065  0.42843264  0.51156926
   0.85820596  0.57182462  0.51997469
   0.86006508  0.71539853  0.52426455
   0.85733543  0.85669223  0.51896874
   0.04694439  0.09477901  0.50625849
   0.04617417  0.23716305  0.50460317
   0.04630432  0.38032902  0.50284859
   0.04733298  0.52359355  0.50274328
   0.04790631  0.66672841  0.50456246
   0.04805712  0.80972826  0.50657961
   0.04765225  0.95237955  0.50679236
   0.19004405  0.09496842  0.50687631
   0.18936231  0.23765324  0.50940873
   0.18796941  0.37965942  0.50817404
   0.18962760  0.52314616  0.50350025
   0.19024953  0.66660639  0.50075211
   0.19059598  0.80969476  0.50081166
   0.19058738  0.95247696  0.50325493
   0.33314703  0.09525028  0.50750103
   0.33341689  0.23761105  0.51479457
   0.32896918  0.37922060  0.52005712
   0.32911450  0.52135106  0.51535642
   0.33365389  0.66738657  0.50392950
   0.33312740  0.80955466  0.50059650
   0.33312287  0.95245404  0.50220041
   0.47604034  0.09515966  0.50760696
   0.47526468  0.23762088  0.51622553
   0.47526955  0.80944218  0.50417188
   0.47600830  0.95274323  0.50344085
   0.61868613  0.09531684  0.50640203
   0.61905032  0.23803339  0.51333837
   0.62109295  0.37927121  0.52653930
   0.62008129  0.81315529  0.51581364
   0.61888077  0.95286968  0.50733474
   0.76151394  0.09512886  0.50639908
   0.76160510  0.23784720  0.50745328
   0.76206253  0.38078617  0.51650123
   0.76304294  0.52500236  0.53103702
   0.76618850  0.66755594  0.53959054
   0.76156653  0.80857276  0.52907742
   0.76153452  0.95225540  0.51406593
   0.90388632  0.09444477  0.50697395
   0.90387051  0.23757133  0.50412478
   0.90418286  0.38078788  0.50620921
   0.90503115  0.52396009  0.51192434
   0.90619384  0.66694473  0.51769214
   0.90581408  0.81001785  0.51755665
   0.90425319  0.95165435  0.51204627
   0.46232007  0.35452053  0.52114060
   0.40142207  0.41793692  0.52563645
   0.40149480  0.55518355  0.52318954
   0.64826208  0.54026225  0.55574497
   0.58530604  0.41584460  0.53142878
   0.58368215  0.74109569  0.51822914
   0.46280571  0.67983076  0.50415192
   0.53503647  0.47135017  0.37564767
   0.50406811  0.53546678  0.41046246
   0.63291969  0.66765931  0.56627058
   0.53489842  0.50386443  0.42857500
Direct configuration=     7
   0.99946687  0.99947166  0.50773168
   0.99907655  0.14222081  0.50560288
   0.99899376  0.28514160  0.50345734
   0.99933354  0.42826016  0.50341062
   0.99994864  0.57139170  0.50572815
   0.00097587  0.71457776  0.50880976
   0.00072748  0.85754799  0.50955422
   0.14286443  0.00019197  0.50496042
   0.14213307  0.14257671  0.50717259
   0.14139161  0.28481680  0.50713785
   0.14151485  0.42796139  0.50431832
   0.14244918  0.57101949  0.50141593
   0.14300610  0.71419745  0.50112834
   0.14311872  0.85734431  0.50267814
   0.28556374  0.99994490  0.50363458
   0.28527054  0.14251502  0.50949575
   0.28501169  0.28650737  0.51513041
   0.28305510  0.42723371  0.51504567
   0.28537823  0.57009441  0.50717009
   0.28540830  0.71436165  0.50127499
   0.28556289  0.85738671  0.50036603
   0.42852130  0.00023155  0.50396060
   0.42826690  0.14263616  0.51031230
   0.42636170  0.28203913  0.51820710
   0.42653781  0.71609500  0.50388982
   0.42822346  0.85745927  0.50231137
   0.57115029  0.00038737  0.50517192
   0.57120400  0.14279239  0.50872343
   0.57214565  0.28607893  0.51904944
   0.57192847  0.85803469  0.50831248
   0.71394644  0.99980504  0.50910673
   0.71406526  0.14280496  0.50629562
   0.71415737  0.28569251  0.51229271
   0.71417068  0.42772780  0.52573012
   0.71987985  0.57369023  0.54466418
   0.72190064  0.71715333  0.54519016
   0.71303162  0.85700338  0.52093513
   0.85668001  0.99964650  0.51149921
   0.85643084  0.14241023  0.50563020
   0.85655416  0.28536192  0.50558387
   0.85716044  0.42843092  0.51158383
   0.85820737  0.57182374  0.51998271
   0.86006500  0.71539692  0.52427168
   0.85733547  0.85669154  0.51897488
   0.04694448  0.09477711  0.50626198
   0.04617564  0.23716282  0.50460803
   0.04630468  0.38032856  0.50285573
   0.04733233  0.52359227  0.50275229
   0.04790779  0.66672784  0.50457356
   0.04805737  0.80972699  0.50658874
   0.04765358  0.95237963  0.50680074
   0.19004385  0.09496709  0.50688117
   0.18936331  0.23765274  0.50941231
   0.18796867  0.37965613  0.50817778
   0.18962840  0.52314608  0.50350566
   0.19025024  0.66660511  0.50076384
   0.19059893  0.80969598  0.50081704
   0.19058918  0.95247485  0.50326168
   0.33314521  0.09524640  0.50750640
   0.33341687  0.23761162  0.51479979
   0.32897149  0.37922097  0.52005899
   0.32911592  0.52134978  0.51535968
   0.33365359  0.66738635  0.50393926
   0.33312602  0.80955226  0.50060693
   0.33312497  0.95245386  0.50220503
   0.47604005  0.09515851  0.50761395
   0.47526388  0.23761943  0.51623524
   0.47526869  0.80944041  0.50417827
   0.47600782  0.95274211  0.50345145
   0.61868740  0.09531774  0.50640995
   0.61904985  0.23803357  0.51334836
   0.62109021  0.37927198  0.52655082
   0.62008058  0.81315414  0.51582145
   0.61888075  0.95286866  0.50734407
   0.76151454  0.09512841  0.50640731
   0.76160492  0.23784660  0.50746222
   0.76206147  0.38078615  0.51651402
   0.76304150  0.52500189  0.53104655
   0.76618693  0.66755414  0.53959930
   0.76156704  0.80857166  0.52908203
   0.76153351  0.95225239  0.51407201
   0.90388688  0.09444357  0.50698052
   0.90387171  0.23757352  0.50413201
   0.90418180  0.38078620  0.50622042
   0.90503051  0.52395992  0.51193605
   0.90619169  0.66694382  0.51769974
   0.90581372  0.81001760  0.51756438
   0.90425116  0.95165317  0.51205271
   0.46232082  0.35452073  0.52114976
   0.40142269  0.41793563  0.52563620
   0.40149309  0.55518176  0.52319302
   0.64826042  0.54026167  0.55575265
   0.58530661  0.41584335  0.53144558
   0.58368303  0.74109675  0.51823587
   0.46280589  0.67983119  0.50416101
   0.53501823  0.47130196  0.37564276
   0.50407569  0.53548774  0.41047704
   0.63291625  0.66765966  0.56627601
   0.53489786  0.50385791  0.42857166
Direct configuration=     8
   0.99946421  0.99946867  0.50774049
   0.99907741  0.14221945  0.50560757
   0.99899489  0.28514071  0.50346726
   0.99933271  0.42825944  0.50341825
   0.99994739  0.57138969  0.50573679
   0.00097517  0.71457622  0.50882143
   0.00072638  0.85754593  0.50956606
   0.14286536  0.00018994  0.50496791
   0.14213302  0.14257498  0.50717788
   0.14139291  0.28481529  0.50714125
   0.14151547  0.42795948  0.50432358
   0.14245154  0.57102035  0.50142835
   0.14300937  0.71419781  0.50113948
   0.14312107  0.85734295  0.50268618
   0.28556518  0.99994050  0.50364246
   0.28527183  0.14251403  0.50950107
   0.28501260  0.28650806  0.51513462
   0.28305713  0.42723212  0.51504874
   0.28537995  0.57009327  0.50717741
   0.28540965  0.71436116  0.50128582
   0.28556404  0.85738543  0.50037445
   0.42851956  0.00022728  0.50396966
   0.42826656  0.14263362  0.51032070
   0.42636259  0.28203973  0.51822070
   0.42653843  0.71609437  0.50389890
   0.42822204  0.85745727  0.50232456
   0.57114847  0.00038563  0.50518355
   0.57120364  0.14279161  0.50873513
   0.57214644  0.28608259  0.51906318
   0.57192947  0.85803175  0.50832351
   0.71394562  0.99980209  0.50911480
   0.71406524  0.14280428  0.50630587
   0.71415582  0.28569316  0.51230680
   0.71416713  0.42772733  0.52574480
   0.71987627  0.57368973  0.54467853
   0.72189883  0.71715152  0.54520222
   0.71303028  0.85700022  0.52094297
   0.85667815  0.99964368  0.51150731
   0.85643134  0.14240898  0.50563967
   0.85655354  0.28536145  0.50559402
   0.85715869  0.42842938  0.51160155
   0.85820473  0.57182339  0.51999344
   0.86006127  0.71539498  0.52428183
   0.85733348  0.85668926  0.51898299
   0.04694612  0.09477715  0.50626647
   0.04617658  0.23716468  0.50461367
   0.04630510  0.38032827  0.50286387
   0.04733137  0.52359035  0.50276274
   0.04790659  0.66672433  0.50458634
   0.04805696  0.80972526  0.50659993
   0.04765570  0.95238003  0.50681087
   0.19004495  0.09496753  0.50688711
   0.18936296  0.23765180  0.50941691
   0.18796743  0.37965679  0.50818244
   0.18962778  0.52314415  0.50351237
   0.19024890  0.66660195  0.50077762
   0.19059641  0.80969451  0.50082355
   0.19058753  0.95247537  0.50326996
   0.33314478  0.09524881  0.50751332
   0.33341582  0.23761076  0.51480693
   0.32897079  0.37921932  0.52006201
   0.32911470  0.52134843  0.51536397
   0.33365310  0.66738473  0.50395078
   0.33312593  0.80955060  0.50061927
   0.33312559  0.95245731  0.50221126
   0.47604115  0.09516087  0.50762302
   0.47526297  0.23761805  0.51624791
   0.47526952  0.80944095  0.50418637
   0.47600932  0.95274329  0.50346390
   0.61868967  0.09531939  0.50641979
   0.61905113  0.23803362  0.51336068
   0.62108963  0.37926786  0.52656566
   0.62008233  0.81315801  0.51583108
   0.61888270  0.95287203  0.50735506
   0.76151655  0.09513019  0.50641693
   0.76160602  0.23784645  0.50747321
   0.76206242  0.38078484  0.51652980
   0.76304414  0.52500072  0.53105886
   0.76618762  0.66755408  0.53961131
   0.76156860  0.80857197  0.52908885
   0.76153538  0.95225449  0.51407951
   0.90388923  0.09444635  0.50698819
   0.90387400  0.23757468  0.50414077
   0.90418289  0.38078519  0.50623372