 vasp.6.4.2 20Jul23 (build Jan 24 2024 13:44:02) complex                         
 executed on              LinuxNV date 2025.11.08  10:37:00
 running   24 mpi-ranks, with    1 threads/rank, on    1 nodes
 distrk:  each k-point on   12 cores,    2 groups
 distr:  one band on NCORE=  12 cores,    1 groups
 OpenACC runtime initialized ...    0 GPUs detected


--------------------------------------------------------------------------------------------------------


 -----------------------------------------------------------------------------
|                                                                             |
|           W    W    AA    RRRRR   N    N  II  N    N   GGGG   !!!           |
|           W    W   A  A   R    R  NN   N  II  NN   N  G    G  !!!           |
|           W    W  A    A  R    R  N N  N  II  N N  N  G       !!!           |
|           W WW W  AAAAAA  RRRRR   N  N N  II  N  N N  G  GGG   !            |
|           WW  WW  A    A  R   R   N   NN  II  N   NN  G    G                |
|           W    W  A    A  R    R  N    N  II  N    N   GGGG   !!!           |
|                                                                             |
|     Found issues when parsing the INCAR file                                |
|     In line 12: Tagname ISPIN	 contains invalid characters.                 |
|     In line 13: Tagname MAGMOM	 contains invalid characters.                |
|     Please check if the interpretation in the OUTCAR file is correct.       |
|                                                                             |
 -----------------------------------------------------------------------------

 INCAR:
   ENCUT = 500
   EDIFF = 1E-6
   NELM = 200
   ALGO = Normal
   ISMEAR = 0
   SIGMA = 0.05
   LASPH = .TRUE.
   ADDGRID = .TRUE.
   LREAL = Auto
   ISYM = 0
   IMIX = 4
   AMIX = 0.20
   BMIX = 1E-4
   AMIX_MAG = 0.80
   BMIX_MAG = 1E-4
   IBRION = 2
   ISIF = 2
   EDIFFG = -0.02
   NSW = 300
   IVDW = 12
   ISTART = 0
   ICHARG = 2
   LWAVE = .FALSE.
   LCHARG = .FALSE.
   KPAR = 2
   NCORE = 26

 POTCAR:    PAW_PBE C 08Apr2002                   
 POTCAR:    PAW_PBE N 08Apr2002                   
 POTCAR:    PAW_PBE H 15Jun2001                   
 POTCAR:    PAW_PBE O 08Apr2002                   
 POTCAR:    PAW_PBE C 08Apr2002                   
   SHA256 =  253f7b50bb8d59471dbedb8285d89021f4a42ed1a2c5d38a03a736e69125dd95 C/POTCAR              
   COPYR  = (c) Copyright 08Apr2002 Georg Kresse                                                    
   COPYR  = This file is part of the software VASP. Any use, copying, and all other rights are regul
   COPYR  = If you do not have a valid VASP license, you may not use, copy or distribute this file. 
   VRHFIN =C: s2p2                                                                                  
   LEXCH  = PE                                                                                      
   EATOM  =   147.1560 eV,   10.8157 Ry                                                             
                                                                                                    
   TITEL  = PAW_PBE C 08Apr2002                                                                     
   LULTRA =        F    use ultrasoft PP ?                                                          
   IUNSCR =        1    unscreen: 0-lin 1-nonlin 2-no                                               
   RPACOR =    1.200    partial core radius                                                         
   POMASS =   12.011; ZVAL   =    4.000    mass and valenz                                          
   RCORE  =    1.500    outmost cutoff radius                                                       
   RWIGS  =    1.630; RWIGS  =    0.863    wigner-seitz radius (au A)                               
   ENMAX  =  400.000; ENMIN  =  300.000 eV                                                          
   ICORE  =        2    local potential                                                             
   LCOR   =        T    correct aug charges                                                         
   LPAW   =        T    paw PP                                                                      
   EAUG   =  644.873                                                                                
   DEXC   =    0.000                                                                                
   RMAX   =    1.529    core radius for proj-oper                                                   
   RAUG   =    1.300    factor for augmentation sphere                                              
   RDEP   =    1.501    radius for radial grids                                                     
   RDEPT  =    1.300    core radius for aug-charge                                                  
                                                                                                    
   Atomic configuration                                                                             
    4 entries                                                                                       
     n  l   j            E        occ.                                                              
     1  0  0.50      -273.3789   2.0000                                                             
     2  0  0.50       -13.7508   2.0000                                                             
     2  1  0.50        -5.2854   2.0000                                                             
     3  2  1.50        -5.4423   0.0000                                                             
   Description                                                                                      
     l       E           TYP  RCUT    TYP  RCUT                                                     
     0    -13.7508458     23  1.200                                                                 
     0     -8.2022199     23  1.200                                                                 
     1     -5.2854383     23  1.500                                                                 
     1     34.0145650     23  1.500                                                                 
     2     -5.4423304      7  1.500                                                                 
  local pseudopotential read in
  partial core-charges read in
  partial kinetic energy density read in
  atomic valenz-charges read in
  non local Contribution for L=            0  read in
    real space projection operators read in
  non local Contribution for L=            0  read in
    real space projection operators read in
  non local Contribution for L=            1  read in
    real space projection operators read in
  non local Contribution for L=            1  read in
    real space projection operators read in
    PAW grid and wavefunctions read in
 
   number of l-projection  operators is LMAX  =            4
   number of lm-projection operators is LMMAX =            8
 
 POTCAR:    PAW_PBE N 08Apr2002                   
   SHA256 =  e053789ff3a61a86a1b75d8a110fcc91f86041011e7b0817c7c99e4e8a6349d7 N/POTCAR              
   COPYR  = (c) Copyright 08Apr2002 Georg Kresse                                                    
   COPYR  = This file is part of the software VASP. Any use, copying, and all other rights are regul
   COPYR  = If you do not have a valid VASP license, you may not use, copy or distribute this file. 
   VRHFIN =N: s2p3                                                                                  
   LEXCH  = PE                                                                                      
   EATOM  =   264.5486 eV,   19.4438 Ry                                                             
                                                                                                    
   TITEL  = PAW_PBE N 08Apr2002                                                                     
   LULTRA =        F    use ultrasoft PP ?                                                          
   IUNSCR =        1    unscreen: 0-lin 1-nonlin 2-no                                               
   RPACOR =    1.200    partial core radius                                                         
   POMASS =   14.001; ZVAL   =    5.000    mass and valenz                                          
   RCORE  =    1.500    outmost cutoff radius                                                       
   RWIGS  =    1.400; RWIGS  =    0.741    wigner-seitz radius (au A)                               
   ENMAX  =  400.000; ENMIN  =  300.000 eV                                                          
   ICORE  =        2    local potential                                                             
   LCOR   =        T    correct aug charges                                                         
   LPAW   =        T    paw PP                                                                      
   EAUG   =  627.112                                                                                
   DEXC   =    0.000                                                                                
   RMAX   =    1.529    core radius for proj-oper                                                   
   RAUG   =    1.300    factor for augmentation sphere                                              
   RDEP   =    1.514    radius for radial grids                                                     
   RDEPT  =    1.338    core radius for aug-charge                                                  
                                                                                                    
   Atomic configuration                                                                             
    4 entries                                                                                       
     n  l   j            E        occ.                                                              
     1  0  0.50      -384.7179   2.0000                                                             
     2  0  0.50       -18.5828   2.0000                                                             
     2  1  0.50        -7.0898   3.0000                                                             
     3  2  1.50        -6.8029   0.0000                                                             
   Description                                                                                      
     l       E           TYP  RCUT    TYP  RCUT                                                     
     0    -18.5828119     23  1.200                                                                 
     0    -13.5018863     23  1.200                                                                 
     1     -7.0897853     23  1.500                                                                 
     1      9.5240782     23  1.500                                                                 
     2     -6.8029130      7  1.500                                                                 
  local pseudopotential read in
  partial core-charges read in
  partial kinetic energy density read in
  atomic valenz-charges read in
  non local Contribution for L=            0  read in
    real space projection operators read in
  non local Contribution for L=            0  read in
    real space projection operators read in
  non local Contribution for L=            1  read in
    real space projection operators read in
  non local Contribution for L=            1  read in
    real space projection operators read in
    PAW grid and wavefunctions read in
 
   number of l-projection  operators is LMAX  =            4
   number of lm-projection operators is LMMAX =            8
 
 POTCAR:    PAW_PBE H 15Jun2001                   
   SHA256 =  030f79b5d3ab3cf0e668861823c8fb652ff669f3e15e46930bd03bfd63a607b6 H/POTCAR              
   COPYR  = (c) Copyright 15Jun2001 Georg Kresse                                                    
   COPYR  = This file is part of the software VASP. Any use, copying, and all other rights are regul
   COPYR  = If you do not have a valid VASP license, you may not use, copy or distribute this file. 
   VRHFIN =H: ultrasoft test                                                                        
   LEXCH  = PE                                                                                      
   EATOM  =    12.4884 eV,    0.9179 Ry                                                             
                                                                                                    
   TITEL  = PAW_PBE H 15Jun2001                                                                     
   LULTRA =        F    use ultrasoft PP ?                                                          
   IUNSCR =        0    unscreen: 0-lin 1-nonlin 2-no                                               
   RPACOR =    0.000    partial core radius                                                         
   POMASS =    1.000; ZVAL   =    1.000    mass and valenz                                          
   RCORE  =    1.100    outmost cutoff radius                                                       
   RWIGS  =    0.700; RWIGS  =    0.370    wigner-seitz radius (au A)                               
   ENMAX  =  250.000; ENMIN  =  200.000 eV                                                          
   RCLOC  =    0.701    cutoff for local pot                                                        
   LCOR   =        T    correct aug charges                                                         
   LPAW   =        T    paw PP                                                                      
   EAUG   =  400.000                                                                                
   RMAX   =    1.123    core radius for proj-oper                                                   
   RAUG   =    1.200    factor for augmentation sphere                                              
   RDEP   =    1.112    radius for radial grids                                                     
   RDEPT  =    0.926    core radius for aug-charge                                                  
                                                                                                    
   Atomic configuration                                                                             
    2 entries                                                                                       
     n  l   j            E        occ.                                                              
     1  0  0.50        -6.4927   1.0000                                                             
     2  1  0.50        -3.4015   0.0000                                                             
   Description                                                                                      
     l       E           TYP  RCUT    TYP  RCUT                                                     
     0     -6.4927494     23  1.100                                                                 
     0      6.8029130     23  1.100                                                                 
     1     -4.0817478     23  1.100                                                                 
  local pseudopotential read in
  atomic valenz-charges read in
  non local Contribution for L=            0  read in
    real space projection operators read in
  non local Contribution for L=            0  read in
    real space projection operators read in
  non local Contribution for L=            1  read in
    real space projection operators read in
    PAW grid and wavefunctions read in
 
   number of l-projection  operators is LMAX  =            3
   number of lm-projection operators is LMMAX =            5
 
 POTCAR:    PAW_PBE O 08Apr2002                   
   SHA256 =  818f92134a0a090dccd8ba1447fa70422a3b330e708bb4f08108d8ae51209ddf O/POTCAR              
   COPYR  = (c) Copyright 08Apr2002 Georg Kresse                                                    
   COPYR  = This file is part of the software VASP. Any use, copying, and all other rights are regul
   COPYR  = If you do not have a valid VASP license, you may not use, copy or distribute this file. 
   VRHFIN =O: s2p4                                                                                  
   LEXCH  = PE                                                                                      
   EATOM  =   432.3788 eV,   31.7789 Ry                                                             
                                                                                                    
   TITEL  = PAW_PBE O 08Apr2002                                                                     
   LULTRA =        F    use ultrasoft PP ?                                                          
   IUNSCR =        1    unscreen: 0-lin 1-nonlin 2-no                                               
   RPACOR =    1.200    partial core radius                                                         
   POMASS =   16.000; ZVAL   =    6.000    mass and valenz                                          
   RCORE  =    1.520    outmost cutoff radius                                                       
   RWIGS  =    1.550; RWIGS  =    0.820    wigner-seitz radius (au A)                               
   ENMAX  =  400.000; ENMIN  =  300.000 eV                                                          
   ICORE  =        2    local potential                                                             
   LCOR   =        T    correct aug charges                                                         
   LPAW   =        T    paw PP                                                                      
   EAUG   =  605.392                                                                                
   DEXC   =    0.000                                                                                
   RMAX   =    1.553    core radius for proj-oper                                                   
   RAUG   =    1.300    factor for augmentation sphere                                              
   RDEP   =    1.550    radius for radial grids                                                     
   RDEPT  =    1.329    core radius for aug-charge                                                  
                                                                                                    
   Atomic configuration                                                                             
    4 entries                                                                                       
     n  l   j            E        occ.                                                              
     1  0  0.50      -514.6923   2.0000                                                             
     2  0  0.50       -23.9615   2.0000                                                             
     2  1  0.50        -9.0305   4.0000                                                             
     3  2  1.50        -9.5241   0.0000                                                             
   Description                                                                                      
     l       E           TYP  RCUT    TYP  RCUT                                                     
     0    -23.9615318     23  1.200                                                                 
     0     -9.5240782     23  1.200                                                                 
     1     -9.0304911     23  1.520                                                                 
     1      8.1634956     23  1.520                                                                 
     2     -9.5240782      7  1.500                                                                 
  local pseudopotential read in
  partial core-charges read in
  partial kinetic energy density read in
  kinetic energy density of atom read in
  atomic valenz-charges read in
  non local Contribution for L=            0  read in
    real space projection operators read in
  non local Contribution for L=            0  read in
    real space projection operators read in
  non local Contribution for L=            1  read in
    real space projection operators read in
  non local Contribution for L=            1  read in
    real space projection operators read in
    PAW grid and wavefunctions read in
 
   number of l-projection  operators is LMAX  =            4
   number of lm-projection operators is LMMAX =            8
 
 Optimization of the real space projectors (new method)

 maximal supplied QI-value         = 25.13
 optimisation between [QCUT,QGAM] = [ 11.31, 22.87] = [ 35.82,146.48] Ry 
 Optimized for a Real-space Cutoff    1.00 Angstroem

   l    n(q)    QCUT    max X(q) W(low)/X(q) W(high)/X(q)  e(spline) 
   0      7    11.310   115.676    0.43E-03    0.13E-02    0.19E-06
   0      7    11.310    87.132    0.43E-03    0.13E-02    0.18E-06
   1      6    11.310     4.429    0.42E-03    0.74E-03    0.11E-06
   1      6    11.310     2.733    0.34E-03    0.55E-03    0.92E-07
 Optimization of the real space projectors (new method)

 maximal supplied QI-value         = 25.13
 optimisation between [QCUT,QGAM] = [ 11.31, 22.87] = [ 35.82,146.48] Ry 
 Optimized for a Real-space Cutoff    1.27 Angstroem

   l    n(q)    QCUT    max X(q) W(low)/X(q) W(high)/X(q)  e(spline) 
   0      9    11.310    79.467    0.75E-04    0.16E-03    0.36E-06
   0      9    11.310    66.151    0.74E-04    0.16E-03    0.36E-06
   1      8    11.310    17.416    0.35E-03    0.12E-03    0.95E-06
   1      8    11.310    12.382    0.37E-03    0.13E-03    0.98E-06
 Optimization of the real space projectors (new method)

 maximal supplied QI-value         = 34.20
 optimisation between [QCUT,QGAM] = [ 11.29, 22.57] = [ 35.68,142.71] Ry 
 Optimized for a Real-space Cutoff    1.16 Angstroem

   l    n(q)    QCUT    max X(q) W(low)/X(q) W(high)/X(q)  e(spline) 
   0      8    11.287    19.460    0.40E-03    0.73E-03    0.16E-06
   0      8    11.287    12.209    0.38E-03    0.70E-03    0.15E-06
   1      7    11.287     4.655    0.22E-03    0.25E-04    0.22E-06
 Optimization of the real space projectors (new method)

 maximal supplied QI-value         = 24.76
 optimisation between [QCUT,QGAM] = [ 11.39, 22.77] = [ 36.31,145.25] Ry 
 Optimized for a Real-space Cutoff    1.00 Angstroem

   l    n(q)    QCUT    max X(q) W(low)/X(q) W(high)/X(q)  e(spline) 
   0      7    11.387    20.381    0.39E-03    0.13E-02    0.15E-06
   0      7    11.387    15.268    0.42E-03    0.14E-02    0.17E-06
   1      6    11.387     5.964    0.41E-03    0.11E-02    0.17E-06
   1      6    11.387     5.382    0.39E-03    0.87E-03    0.15E-06
  PAW_PBE C 08Apr2002                   :
 energy of atom  1       EATOM= -147.1560
 kinetic energy error for atom=    0.0076 (will be added to EATOM!!)
  PAW_PBE N 08Apr2002                   :
 energy of atom  2       EATOM= -264.5486
 kinetic energy error for atom=    0.0138 (will be added to EATOM!!)
  PAW_PBE H 15Jun2001                   :
 energy of atom  3       EATOM=  -12.4884
 kinetic energy error for atom=    0.0020 (will be added to EATOM!!)
  PAW_PBE O 08Apr2002                   :
 energy of atom  4       EATOM= -432.3788
 kinetic energy error for atom=    0.0224 (will be added to EATOM!!)
 
 
 POSCAR: C4
  positions in direct lattice
  No initial velocities read in
 exchange correlation table for  LEXCH =        8
   RHO(1)=    0.500       N(1)  =     2000
   RHO(2)=  100.500       N(2)  =     4000
 


--------------------------------------------------------------------------------------------------------


 ion  position               nearest neighbor table
   1  1.000  1.000  0.500-  47 1.43  41 1.43  80 1.43
   2  0.999  0.142  0.500-  42 1.42  41 1.43  74 1.43
   3  0.999  0.285  0.500-  43 1.43  42 1.43  75 1.43
   4  0.999  0.428  0.500-  43 1.42  44 1.43  76 1.43
   5  1.000  0.571  0.500-  45 1.43  44 1.43  77 1.43
   6  0.001  0.715  0.500-  45 1.42  46 1.43  78 1.43
   7  0.001  0.858  0.500-  47 1.42  46 1.43  79 1.43
   8  0.144  0.001  0.500-  48 1.43  54 1.43  47 1.43
   9  0.144  0.144  0.500-  48 1.43  49 1.43  41 1.43
  10  0.142  0.285  0.500-  50 1.42  49 1.42  42 1.43
  11  0.142  0.428  0.500-  50 1.42  51 1.42  43 1.43
  12  0.144  0.571  0.500-  52 1.43  51 1.43  44 1.43
  13  0.144  0.714  0.500-  52 1.43  45 1.43  53 1.43
  14  0.144  0.858  0.500-  46 1.43  54 1.43  53 1.43
  15  0.287  0.001  0.500-  54 1.42  59 1.43  55 1.44
  16  0.287  0.146  0.500-  55 1.43  48 1.43  56 1.45
  17  0.288  0.293  0.500-  85 1.34  49 1.45  56 1.51
  18  0.285  0.428  0.500-  85 1.38  86 1.38  50 1.43
  19  0.289  0.567  0.500-  86 1.34  51 1.45  57 1.51
  20  0.287  0.713  0.500-  58 1.43  52 1.43  57 1.45
  21  0.287  0.857  0.500-  53 1.42  59 1.43  58 1.44
  22  0.429  0.000  0.500-  59 1.43  63 1.43  60 1.43
  23  0.429  0.145  0.500-  55 1.42  60 1.44  61 1.44
  24  0.429  0.856  0.500-  58 1.42  63 1.44  62 1.44
  25  0.571  0.999  0.500-  63 1.42  64 1.43  66 1.44
  26  0.571  0.144  0.500-  60 1.42  64 1.43  65 1.44
  27  0.574  0.291  0.500-  87 1.35  65 1.44  61 1.49
  28  0.573  0.854  0.500-  88 1.35  66 1.44  62 1.49
  29  0.713  0.998  0.500-  66 1.42  73 1.43  67 1.44
  30  0.714  0.143  0.500-  64 1.43  68 1.43  67 1.43
  31  0.713  0.287  0.500-  65 1.42  69 1.43  68 1.44
  32  0.709  0.428  0.500-  87 1.34  69 1.45  70 1.51
  33  0.709  0.853  0.500-  88 1.34  73 1.45  72 1.51
  34  0.856  0.998  0.500-  74 1.43  80 1.43  73 1.43
  35  0.856  0.142  0.500-  67 1.42  75 1.43  74 1.43
  36  0.856  0.286  0.500-  68 1.42  75 1.43  76 1.43
  37  0.856  0.429  0.500-  77 1.43  76 1.43  69 1.43
  38  0.856  0.572  0.500-  78 1.42  77 1.43  70 1.45
  39  0.859  0.715  0.500-  79 1.42  78 1.42  71 1.43
  40  0.856  0.855  0.500-  79 1.42  80 1.43  72 1.46
  41  0.048  0.095  0.500-   2 1.43   1 1.43   9 1.43
  42  0.046  0.237  0.500-   2 1.42   3 1.43  10 1.43
  43  0.046  0.380  0.500-   4 1.42   3 1.43  11 1.43
  44  0.048  0.524  0.500-   4 1.43   5 1.43  12 1.43
  45  0.049  0.667  0.500-   6 1.42   5 1.43  13 1.43
  46  0.049  0.810  0.500-   6 1.43   7 1.43  14 1.43
  47  0.049  0.953  0.500-   7 1.42   1 1.43   8 1.43
  48  0.192  0.097  0.500-   8 1.43   9 1.43  16 1.43
  49  0.191  0.240  0.500-  10 1.42   9 1.43  17 1.45
  50  0.189  0.380  0.500-  10 1.42  11 1.42  18 1.43
  51  0.191  0.523  0.500-  11 1.42  12 1.43  19 1.45
  52  0.192  0.666  0.500-  13 1.43  12 1.43  20 1.43
  53  0.192  0.810  0.500-  21 1.42  14 1.43  13 1.43
  54  0.192  0.953  0.500-  15 1.42  14 1.43   8 1.43
  55  0.334  0.097  0.500-  23 1.42  16 1.43  15 1.44
  56  0.339  0.242  0.500-  81 1.34  16 1.45  17 1.51
  57  0.339  0.668  0.500-  82 1.34  20 1.45  19 1.51
  58  0.334  0.808  0.500-  24 1.42  20 1.43  21 1.44
  59  0.334  0.953  0.500-  22 1.43  15 1.43  21 1.43
  60  0.476  0.096  0.500-  26 1.42  22 1.43  23 1.44
  61  0.474  0.242  0.500-  81 1.35  23 1.44  27 1.49
  62  0.474  0.804  0.500-  82 1.35  24 1.44  28 1.49
  63  0.476  0.952  0.500-  25 1.42  22 1.43  24 1.44
  64  0.618  0.095  0.500-  30 1.43  26 1.43  25 1.43
  65  0.618  0.240  0.500-  31 1.42  26 1.44  27 1.44
  66  0.618  0.950  0.500-  29 1.42  25 1.44  28 1.44
  67  0.761  0.094  0.500-  35 1.42  30 1.43  29 1.44
  68  0.761  0.238  0.500-  36 1.42  30 1.43  31 1.44
  69  0.760  0.382  0.500-  31 1.43  37 1.43  32 1.45
  70  0.759  0.529  0.500-  83 1.34  38 1.45  32 1.51
  71  0.763  0.667  0.500-  83 1.37  84 1.37  39 1.43
  72  0.759  0.802  0.500-  84 1.34  40 1.46  33 1.51
  73  0.760  0.949  0.500-  29 1.43  34 1.43  33 1.45
  74  0.904  0.094  0.500-  34 1.43   2 1.43  35 1.43
  75  0.904  0.237  0.500-   3 1.43  35 1.43  36 1.43
  76  0.903  0.381  0.500-  37 1.43   4 1.43  36 1.43
  77  0.904  0.524  0.500-  37 1.43  38 1.43   5 1.43
  78  0.906  0.667  0.500-  39 1.42  38 1.42   6 1.43
  79  0.906  0.810  0.500-  39 1.42  40 1.42   7 1.43
  80  0.904  0.951  0.500-  34 1.43  40 1.43   1 1.43
  81  0.429  0.286  0.500-  56 1.34  61 1.35
  82  0.429  0.714  0.500-  57 1.34  62 1.35
  83  0.716  0.575  0.500-  70 1.34  71 1.37
  84  0.716  0.712  0.500-  72 1.34  71 1.37
  85  0.332  0.383  0.500-  17 1.34  18 1.38
  86  0.332  0.520  0.500-  19 1.34  18 1.38
  87  0.619  0.382  0.500-  32 1.34  27 1.35
  88  0.619  0.809  0.500-  33 1.34  28 1.35
  89  0.524  0.592  0.570-  91 0.92
  90  0.524  0.504  0.570-  91 0.92
  91  0.524  0.548  0.605-  89 0.92  90 0.92
 

IMPORTANT INFORMATION: All symmetrisations will be switched off!
NOSYMM: (Re-)initialisation of all symmetry stuff for point group C_1.


----------------------------------------------------------------------------------------

                                     Primitive cell                                     

  volume of cell :    3874.8846

  direct lattice vectors                    reciprocal lattice vectors
    17.271038055  0.000000000  0.000000000     0.057900399  0.033428811 -0.000000000
    -8.635519028 14.957157706  0.000000000     0.000000000  0.066857622  0.000000000
     0.000000000  0.000000000 15.000000000     0.000000000 -0.000000000  0.066666667

  length of vectors
    17.271038055 17.271038055 15.000000000     0.066857622  0.066857622  0.066666667

  position of ions in fractional coordinates (direct lattice)
     0.999798697  0.999713798  0.500000936
     0.999159686  0.142173230  0.500002231
     0.998894123  0.285111141  0.499999878
     0.999118534  0.428341687  0.499996946
     0.999833531  0.571409636  0.499997696
     0.001347166  0.714801408  0.499998615
     0.001263093  0.857843944  0.499999837
     0.144201364  0.001369229  0.500001109
     0.143654936  0.144105181  0.499999942
     0.142020210  0.285272184  0.499999851
     0.142016546  0.427996031  0.499998842
     0.143664098  0.570830967  0.500000851
     0.144208707  0.714053658  0.500000760
     0.144213736  0.857722973  0.500000703
     0.286740746  0.000901450  0.500001496
     0.287441581  0.145653479  0.500000605
     0.288463014  0.293173325  0.499999448
     0.284780900  0.427996366  0.500000088
     0.288509151  0.566512958  0.500000120
     0.287436564  0.712997981  0.500001098
     0.286758443  0.857062411  0.499999624
     0.429306289  0.000402960  0.499999165
     0.429379664  0.145200953  0.499999766
     0.429345895  0.855642654  0.500000574
     0.571191573  0.999186239  0.499999571
     0.571264941  0.143666876  0.499999060
     0.573512655  0.291314950  0.499999805
     0.573454249  0.853771421  0.499999044
     0.713275966  0.998066248  0.500001183
     0.713646816  0.142651019  0.500000560
     0.713318491  0.286884490  0.500000301
     0.708937081  0.427820786  0.499999705
     0.708843932  0.852757803  0.500000602
     0.855859447  0.998377121  0.500002762
     0.856025338  0.141967288  0.500001733
     0.855991744  0.285518344  0.499999257
     0.855869669  0.429011596  0.499998007
     0.856242032  0.572287107  0.499999249
     0.858564508  0.715099339  0.499999305
     0.856108744  0.855482567  0.499999966
     0.047824485  0.095407191  0.500001068
     0.046361410  0.237253358  0.500000817
     0.046331036  0.380422239  0.499998457
     0.047829789  0.523751963  0.499997559
     0.048570747  0.666848096  0.499998197
     0.048858100  0.810090336  0.499999801
     0.048520434  0.952970834  0.500000373
     0.191737706  0.096773222  0.500000458
     0.191372197  0.239657905  0.499999459
     0.188911066  0.380079361  0.499999580
     0.191409014  0.523002987  0.499999341
     0.191742326  0.666215798  0.500003798
     0.191699166  0.809703126  0.499999667
     0.191673720  0.953203600  0.500001821
     0.334311727  0.097072363  0.500000779
     0.338728835  0.242420814  0.499999822
     0.338760005  0.667594946  0.499999875
     0.334314538  0.808489102  0.499999342
     0.333982621  0.952606458  0.500000152
     0.476421754  0.096201348  0.499998906
     0.474199507  0.241610843  0.499999603
     0.474166740  0.804100793  0.500000204
     0.476374420  0.951736212  0.499999609
     0.618271464  0.094947681  0.499999382
     0.618258739  0.239729335  0.500002808
     0.618201293  0.950152299  0.499998583
     0.760901848  0.094304650  0.500001247
     0.760898383  0.238216180  0.499999351
     0.760209750  0.382360135  0.499999131
     0.759148071  0.528800521  0.499999916
     0.762624473  0.667134036  0.499999929
     0.758999397  0.801928927  0.500000147
     0.760175996  0.949473308  0.500002298
     0.903509188  0.093744367  0.500003187
     0.903525699  0.237493974  0.499999978
     0.903461934  0.381197805  0.499997497
     0.903976304  0.524415852  0.499998197
     0.905607328  0.667263643  0.499999100
     0.905557945  0.809907310  0.499999394
     0.903923044  0.951029715  0.500001168
     0.428507348  0.286331388  0.499999544
     0.428552862  0.713643090  0.499999620
     0.715890645  0.575235544  0.500000360
     0.715814655  0.712234176  0.500000165
     0.331607815  0.382882785  0.500000091
     0.331637422  0.519947366  0.500000406
     0.619137506  0.381763669  0.499999922
     0.619071691  0.808974835  0.499999600
     0.523736000  0.591500000  0.569660000
     0.523720000  0.503600000  0.569660000
     0.523715000  0.547550000  0.604663908

  ion indices of the primitive-cell ions
   primitive index   ion index
                 1           1
                 2           2
                 3           3
                 4           4
                 5           5
                 6           6
                 7           7
                 8           8
                 9           9
                10          10
                11          11
                12          12
                13          13
                14          14
                15          15
                16          16
                17          17
                18          18
                19          19
                20          20
                21          21
                22          22
                23          23
                24          24
                25          25
                26          26
                27          27
                28          28
                29          29
                30          30
                31          31
                32          32
                33          33
                34          34
                35          35
                36          36
                37          37
                38          38
                39          39
                40          40
                41          41
                42          42
                43          43
                44          44
                45          45
                46          46
                47          47
                48          48
                49          49
                50          50
                51          51
                52          52
                53          53
                54          54
                55          55
                56          56
                57          57
                58          58
                59          59
                60          60
                61          61
                62          62
                63          63
                64          64
                65          65
                66          66
                67          67
                68          68
                69          69
                70          70
                71          71
                72          72
                73          73
                74          74
                75          75
                76          76
                77          77
                78          78
                79          79
                80          80
                81          81
                82          82
                83          83
                84          84
                85          85
                86          86
                87          87
                88          88
                89          89
                90          90
                91          91

----------------------------------------------------------------------------------------

 
 
 KPOINTS: Automatic mesh                          

Automatic generation of k-mesh.
 Grid dimensions read from file:
 generate k-points for:    2    2    1

 Generating k-lattice:

  Cartesian coordinates                     Fractional coordinates (reciprocal lattice)
     0.028950200  0.016714406 -0.000000000     0.500000000  0.000000000  0.000000000
     0.000000000  0.033428811  0.000000000     0.000000000  0.500000000  0.000000000
     0.000000000 -0.000000000  0.066666667     0.000000000  0.000000000  1.000000000

  Length of vectors
     0.033428811  0.033428811  0.066666667

  Shift w.r.t. Gamma in fractional coordinates (k-lattice)
     0.000000000  0.000000000  0.000000000

 
 Subroutine IBZKPT returns following result:
 ===========================================
 
 Found      4 irreducible k-points:
 
 Following reciprocal coordinates:
            Coordinates               Weight
  0.000000  0.000000  0.000000      1.000000
  0.500000  0.000000  0.000000      1.000000
  0.000000  0.500000  0.000000      1.000000
  0.500000  0.500000  0.000000      1.000000
 
 Following cartesian coordinates:
            Coordinates               Weight
  0.000000  0.000000  0.000000      1.000000
  0.028950  0.016714  0.000000      1.000000
  0.000000  0.033429  0.000000      1.000000
  0.028950  0.050143  0.000000      1.000000
 


--------------------------------------------------------------------------------------------------------




 Dimension of arrays:
   k-points           NKPTS =      4   k-points in BZ     NKDIM =      4   number of bands    NBANDS=    230
   number of dos      NEDOS =    301   number of ions     NIONS =     91
   non local maximal  LDIM  =      4   non local SUM 2l+1 LMDIM =      8
   total plane-waves  NPLWV = 774144
   max r-space proj   IRMAX =   1771   max aug-charges    IRDMAX=  20933
   dimension x,y,z NGX =    96 NGY =   96 NGZ =   84
   dimension x,y,z NGXF=   192 NGYF=  192 NGZF=  168
   support grid    NGXF=   384 NGYF=  384 NGZF=  336
   ions per type =              80   8   2   1
   NGX,Y,Z   is equivalent  to a cutoff of   9.24,  9.24,  9.31 a.u.
   NGXF,Y,Z  is equivalent  to a cutoff of  18.48, 18.48, 18.62 a.u.

 SYSTEM =  unknown system                          
 POSCAR =  C4                                      

 Startparameter for this run:
   NWRITE =      2    write-flag & timer
   PREC   = normal    normal or accurate (medium, high low for compatibility)
   ISTART =      0    job   : 0-new  1-cont  2-samecut
   ICHARG =      2    charge: 1-file 2-atom 10-const
   ISPIN  =      1    spin polarized calculation?
   LNONCOLLINEAR =      F non collinear calculations
   LSORBIT =      F    spin-orbit coupling
   INIWAV =      1    electr: 0-lowe 1-rand  2-diag
   LASPH  =      T    aspherical Exc in radial PAW
 Electronic Relaxation 1
   ENCUT  =  500.0 eV  36.75 Ry    6.06 a.u.  31.49 31.49 27.35*2*pi/ulx,y,z
   ENINI  =  500.0     initial cutoff
   ENAUG  =  644.9 eV  augmentation charge cutoff
   NELM   =    200;   NELMIN=  2; NELMDL= -5     # of ELM steps 
   EDIFF  = 0.1E-05   stopping-criterion for ELM
   LREAL  =      T    real-space projection
   NLSPLINE    = F    spline interpolate recip. space projectors
   LCOMPAT=      F    compatible to vasp.4.4
   GGA_COMPAT  = T    GGA compatible to vasp.4.4-vasp.4.6
   LMAXPAW     = -100 max onsite density
   LMAXMIX     =    2 max onsite mixed and CHGCAR
   VOSKOWN=      0    Vosko Wilk Nusair interpolation
   ROPT   =   -0.00050  -0.00050  -0.00050  -0.00050
 Ionic relaxation
   EDIFFG = -.2E-01   stopping-criterion for IOM
   NSW    =    300    number of steps for IOM
   NBLOCK =      1;   KBLOCK =    300    inner block; outer block 
   IBRION =      2    ionic relax: 0-MD 1-quasi-New 2-CG
   NFREE  =      1    steps in history (QN), initial steepest desc. (CG)
   ISIF   =      2    stress and relaxation
   IWAVPR =     11    prediction:  0-non 1-charg 2-wave 3-comb
   ISYM   =      0    0-nonsym 1-usesym 2-fastsym
   LCORR  =      T    Harris-Foulkes like correction to forces

   POTIM  = 0.5000    time-step for ionic-motion
   TEIN   =    0.0    initial temperature
   TEBEG  =    0.0;   TEEND  =   0.0 temperature during run
   SMASS  =  -3.00    Nose mass-parameter (am)
   estimated Nose-frequenzy (Omega)   =  0.10E-29 period in steps = 0.13E+47 mass=  -0.682E-26a.u.
   SCALEE = 1.0000    scale energy and forces
   NPACO  =    256;   APACO  = 10.0  distance and # of slots for P.C.
   PSTRESS=    0.0 pullay stress

  Mass of Ions in am
   POMASS =  12.01 14.00  1.00 16.00
  Ionic Valenz
   ZVAL   =   4.00  5.00  1.00  6.00
  Atomic Wigner-Seitz radii
   RWIGS  =  -1.00 -1.00 -1.00 -1.00
  virtual crystal weights 
   VCA    =   1.00  1.00  1.00  1.00
   NELECT =     368.0000    total number of electrons
   NUPDOWN=      -1.0000    fix difference up-down

 DOS related values:
   EMIN   =  10.00;   EMAX   =-10.00  energy-range for DOS
   EFERMI =   0.00;   METHOD = LEGACY      
   ISMEAR =     0;   SIGMA  =   0.05  broadening in eV -4-tet -1-fermi 0-gaus

 Electronic relaxation 2 (details)
   IALGO  =     38    algorithm
   LDIAG  =      T    sub-space diagonalisation (order eigenvalues)
   LSUBROT=      F    optimize rotation matrix (better conditioning)
   TURBO    =      0    0=normal 1=particle mesh
   IRESTART =      0    0=no restart 2=restart with 2 vectors
   NREBOOT  =      0    no. of reboots
   NMIN     =      0    reboot dimension
   EREF     =   0.00    reference energy to select bands
   IMIX   =      4    mixing-type and parameters
     AMIX     =   0.20;   BMIX     =  0.00
     AMIX_MAG =   0.80;   BMIX_MAG =  0.00
     AMIN     =   0.10
     WC   =   100.;   INIMIX=   1;  MIXPRE=   1;  MAXMIX= -45

 Intra band minimization:
   WEIMIN = 0.0010     energy-eigenvalue tresh-hold
   EBREAK =  0.11E-08  absolut break condition
   DEPER  =   0.30     relativ break condition  

   TIME   =   0.40     timestep for ELM

  volume/ion in A,a.u.               =      42.58       287.35
  Fermi-wavevector in a.u.,A,eV,Ry     =   0.746915  1.411465  7.590446  0.557882
  Thomas-Fermi vector in A             =   1.842848
 
 Write flags
   LWAVE        =      F    write WAVECAR
   LDOWNSAMPLE  =      F    k-point downsampling of WAVECAR
   LCHARG       =      F    write CHGCAR
   LVTOT        =      F    write LOCPOT, total local potential
   LVHAR        =      F    write LOCPOT, Hartree potential only
   LELF         =      F    write electronic localiz. function (ELF)
   LORBIT       =      0    0 simple, 1 ext, 2 COOP (PROOUT), +10 PAW based schemes


 Dipole corrections
   LMONO  =      F    monopole corrections only (constant potential shift)
   LDIPOL =      F    correct potential (dipole corrections)
   IDIPOL =      0    1-x, 2-y, 3-z, 4-all directions 
   EPSILON=  1.0000000 bulk dielectric constant

 Exchange correlation treatment:
   GGA     =    --    GGA type
   LEXCH   =     8    internal setting for exchange type
   LIBXC   =     F    Libxc                    
   VOSKOWN =     0    Vosko Wilk Nusair interpolation
   LHFCALC =     F    Hartree Fock is set to
   LHFONE  =     F    Hartree Fock one center treatment
   AEXX    =    0.0000 exact exchange contribution

 Linear response parameters
   LEPSILON=     F    determine dielectric tensor
   LRPA    =     F    only Hartree local field effects (RPA)
   LNABLA  =     F    use nabla operator in PAW spheres
   LVEL    =     F    velocity operator in full k-point grid
   CSHIFT  =0.1000    complex shift for real part using Kramers Kronig
   OMEGAMAX=  -1.0    maximum frequency
   DEG_THRESHOLD= 0.2000000E-02 threshold for treating states as degnerate
   RTIME   =   -0.100 relaxation time in fs
  (WPLASMAI=    0.000 imaginary part of plasma frequency in eV, 0.658/RTIME)
   DFIELD  = 0.0000000 0.0000000 0.0000000 field for delta impulse in time
 
  Optional k-point grid parameters
   LKPOINTS_OPT  =     F    use optional k-point grid
   KPOINTS_OPT_MODE=     1    mode for optional k-point grid
 
 Orbital magnetization related:
   ORBITALMAG=     F  switch on orbital magnetization
   LCHIMAG   =     F  perturbation theory with respect to B field
   DQ        =  0.001000  dq finite difference perturbation B field
   LLRAUG    =     F  two centre corrections for induced B field
   LBONE     =     F  B-component reconstruction in AE one-centre
   LVGVCALC  =     T  calculate vGv susceptibility
   LVGVAPPL  =     F  apply vGv susceptibility instead of pGv for G=0

 Random number generation:
   RANDOM_GENERATOR = DEFAULT
   PCG_SEED         = not used


--------------------------------------------------------------------------------------------------------


 conjugate gradient relaxation of ions
   using selective dynamics as specified on POSCAR
 charge density and potential will be updated during run
 non-spin polarized calculation
 Variant of blocked Davidson
 Davidson routine will perform the subspace rotation
 perform sub-space diagonalisation
    after iterative eigenvector-optimisation
 modified Broyden-mixing scheme, WC =      100.0
 initial mixing is a Kerker type mixing with AMIX =  0.2000 and BMIX =      0.0001
 Hartree-type preconditioning will be used
 using additional bands            46
 real space projection scheme for non local part
 use partial core corrections
 calculate Harris-corrections to forces 
   (improved forces if not selfconsistent)
 use gradient corrections 
 use of overlap-Matrix (Vanderbilt PP)
 Gauss-broadening in eV      SIGMA  =   0.05


--------------------------------------------------------------------------------------------------------


  energy-cutoff  :      500.00
  volume of cell :     3874.88
      direct lattice vectors                 reciprocal lattice vectors
    17.271038055  0.000000000  0.000000000     0.057900399  0.033428811 -0.000000000
    -8.635519028 14.957157706  0.000000000     0.000000000  0.066857622  0.000000000
     0.000000000  0.000000000 15.000000000     0.000000000 -0.000000000  0.066666667

  length of vectors
    17.271038055 17.271038055 15.000000000     0.066857622  0.066857622  0.066666667


 
 k-points in units of 2pi/SCALE and weight: Automatic mesh                          
   0.00000000  0.00000000  0.00000000       0.250
   0.02895020  0.01671441  0.00000000       0.250
   0.00000000  0.03342881  0.00000000       0.250
   0.02895020  0.05014322  0.00000000       0.250
 
 k-points in reciprocal lattice and weights: Automatic mesh                          
   0.00000000  0.00000000  0.00000000       0.250
   0.50000000  0.00000000  0.00000000       0.250
   0.00000000  0.50000000  0.00000000       0.250
   0.50000000  0.50000000  0.00000000       0.250
 
 position of ions in fractional coordinates (direct lattice) 
   0.99979870  0.99971380  0.50000094
   0.99915969  0.14217323  0.50000223
   0.99889412  0.28511114  0.49999988
   0.99911853  0.42834169  0.49999695
   0.99983353  0.57140964  0.49999770
   0.00134717  0.71480141  0.49999861
   0.00126309  0.85784394  0.49999984
   0.14420136  0.00136923  0.50000111
   0.14365494  0.14410518  0.49999994
   0.14202021  0.28527218  0.49999985
   0.14201655  0.42799603  0.49999884
   0.14366410  0.57083097  0.50000085
   0.14420871  0.71405366  0.50000076
   0.14421374  0.85772297  0.50000070
   0.28674075  0.00090145  0.50000150
   0.28744158  0.14565348  0.50000060
   0.28846301  0.29317332  0.49999945
   0.28478090  0.42799637  0.50000009
   0.28850915  0.56651296  0.50000012
   0.28743656  0.71299798  0.50000110
   0.28675844  0.85706241  0.49999962
   0.42930629  0.00040296  0.49999917
   0.42937966  0.14520095  0.49999977
   0.42934589  0.85564265  0.50000057
   0.57119157  0.99918624  0.49999957
   0.57126494  0.14366688  0.49999906
   0.57351266  0.29131495  0.49999980
   0.57345425  0.85377142  0.49999904
   0.71327597  0.99806625  0.50000118
   0.71364682  0.14265102  0.50000056
   0.71331849  0.28688449  0.50000030
   0.70893708  0.42782079  0.49999970
   0.70884393  0.85275780  0.50000060
   0.85585945  0.99837712  0.50000276
   0.85602534  0.14196729  0.50000173
   0.85599174  0.28551834  0.49999926
   0.85586967  0.42901160  0.49999801
   0.85624203  0.57228711  0.49999925
   0.85856451  0.71509934  0.49999931
   0.85610874  0.85548257  0.49999997
   0.04782449  0.09540719  0.50000107
   0.04636141  0.23725336  0.50000082
   0.04633104  0.38042224  0.49999846
   0.04782979  0.52375196  0.49999756
   0.04857075  0.66684810  0.49999820
   0.04885810  0.81009034  0.49999980
   0.04852043  0.95297083  0.50000037
   0.19173771  0.09677322  0.50000046
   0.19137220  0.23965791  0.49999946
   0.18891107  0.38007936  0.49999958
   0.19140901  0.52300299  0.49999934
   0.19174233  0.66621580  0.50000380
   0.19169917  0.80970313  0.49999967
   0.19167372  0.95320360  0.50000182
   0.33431173  0.09707236  0.50000078
   0.33872883  0.24242081  0.49999982
   0.33876001  0.66759495  0.49999988
   0.33431454  0.80848910  0.49999934
   0.33398262  0.95260646  0.50000015
   0.47642175  0.09620135  0.49999891
   0.47419951  0.24161084  0.49999960
   0.47416674  0.80410079  0.50000020
   0.47637442  0.95173621  0.49999961
   0.61827146  0.09494768  0.49999938
   0.61825874  0.23972933  0.50000281
   0.61820129  0.95015230  0.49999858
   0.76090185  0.09430465  0.50000125
   0.76089838  0.23821618  0.49999935
   0.76020975  0.38236014  0.49999913
   0.75914807  0.52880052  0.49999992
   0.76262447  0.66713404  0.49999993
   0.75899940  0.80192893  0.50000015
   0.76017600  0.94947331  0.50000230
   0.90350919  0.09374437  0.50000319
   0.90352570  0.23749397  0.49999998
   0.90346193  0.38119781  0.49999750
   0.90397630  0.52441585  0.49999820
   0.90560733  0.66726364  0.49999910
   0.90555794  0.80990731  0.49999939
   0.90392304  0.95102971  0.50000117
   0.42850735  0.28633139  0.49999954
   0.42855286  0.71364309  0.49999962
   0.71589065  0.57523554  0.50000036
   0.71581465  0.71223418  0.50000016
   0.33160781  0.38288279  0.50000009
   0.33163742  0.51994737  0.50000041
   0.61913751  0.38176367  0.49999992
   0.61907169  0.80897483  0.49999960
   0.52373600  0.59150000  0.56966000
   0.52372000  0.50360000  0.56966000
   0.52371500  0.54755000  0.60466391
 
 position of ions in cartesian coordinates  (Angst):
   8.63451382 14.95287694  7.50001404
  16.02878533  2.12650742  7.50003346
  14.78985572  4.26445230  7.49999816
  13.55686143  6.40677416  7.49995419
  12.33374418  8.54666404  7.49996544
  -6.14941421 10.69139739  7.49997922
  -7.38611278 12.83090715  7.49999755
   2.47868323  0.02047978  7.50001664
   1.23664683  2.15540392  7.49999913
  -0.01063692  4.26686105  7.49999776
  -1.24319470  6.40160413  7.49998263
  -2.44819357  8.53800880  7.50001277
  -3.67558988 10.68021317  7.50001140
  -4.91616213 12.82909777  7.50001055
   4.94452584  0.01348313  7.50002245
   3.70662109  2.17856205  7.50000907
   2.45035186  4.38503965  7.49999171
   1.22249100  6.40160914  7.50000132
   0.09071910  8.47342366  7.50000180
  -1.19277979 10.66442324  7.50001647
  -2.44856277 12.81921765  7.49999436
   7.41108549  0.00602714  7.49998748
   6.16194692  2.17179356  7.49999650
   0.02633087 12.79798211  7.50000860
   1.23657962 14.94498616  7.49999356
   8.62570050  2.14884811  7.49998590
   7.38950310  4.35724365  7.49999707
   2.53139081 12.76999379  7.49998566
   3.70019627 14.92823427  7.50001775
  11.09355573  2.13365379  7.50000839
   9.84235433  4.29097656  7.50000451
   8.54962477  6.39898297  7.49999557
   4.87846429 12.75483294  7.50000903
   6.16007645 14.93288405  7.50004143
  13.55848497  2.12342712  7.50002599
  12.31826690  4.27054290  7.49998886
  11.07701983  6.41679410  7.49997010
   9.84619253  8.55978851  7.49998874
   8.65304634 10.69585359  7.49998958
   7.39835070 12.79558767  7.49999949
   0.00208789  1.42702040  7.50001602
  -1.24809621  3.54863589  7.50001226
  -2.48495839  5.69003542  7.49997686
  -3.69679993  7.83384071  7.49996338
  -4.91971221  9.97415214  7.49997296
  -6.15172040 12.11664891  7.49999701
  -7.39139950 14.25373506  7.50000559
   2.47582222  1.44745235  7.50000686
   1.23562610  3.58460108  7.49999188
  -0.01949236  5.68490695  7.49999370
  -1.21056988  7.82263815  7.49999012
  -2.44153019  9.96469476  7.50005697
  -3.68136316 12.11085735  7.49999501
  -4.92100371 14.25721656  7.50002731
   4.93564032  1.45192665  7.50001169
   3.75676904  3.62592635  7.49999733
   0.08570808  9.98532289  7.49999813
  -1.20776393 12.09269901  7.49999012
  -2.45802464 14.24828502  7.50000228
   7.39754967  1.43889873  7.49998360
   6.10348270  3.61381148  7.49999405
   1.24552410 12.02706238  7.50000307
   0.00874458 14.23526862  7.49999413
   9.85826748  1.42014744  7.49999073
   8.60778297  3.58566947  7.50004212
   2.47191979 14.21157778  7.49997875
  12.32719518  1.41052952  7.50001870
  11.08438456  3.56303698  7.49999026
   9.82773329  5.71902084  7.49998697
   8.54480827  7.90935278  7.49999874
   7.41026764  9.97842899  7.49999893
   6.18363496 11.99457743  7.50000221
   4.92983374 14.20142200  7.50003447
  14.79501031  1.40214927  7.50004781
  13.55394299  3.55223483  7.49999967
  12.31188455  5.70163569  7.49996245
  11.08400607  7.84377061  7.49997295
   9.87861074  9.98036754  7.49998651
   8.64595574 12.11391136  7.49999091
   7.39905410 14.22470143  7.50001752
   4.92814657  4.28270373  7.49999316
   1.23887431 10.67407224  7.49999431
   7.39671709  8.60388876  7.50000540
   6.21235036 10.65299890  7.50000247
   2.42081961  5.72683820  7.50000136
   1.23770715  7.77693476  7.50000608
   7.39642001  5.71009940  7.49999883
   3.70609315 12.09996419  7.49999400
   3.93755488  8.84715878  8.54490000
   4.69634067  7.53242462  8.54490000
   4.31672325  8.18979170  9.06995862
 


--------------------------------------------------------------------------------------------------------


 k-point   1 :   0.0000 0.0000 0.0000  plane waves:   98419
 k-point   2 :   0.5000 0.0000 0.0000  plane waves:   98350
 k-point   3 :   0.0000 0.5000 0.0000  plane waves:   98350
 k-point   4 :   0.5000 0.5000 0.0000  plane waves:   98350

 maximum and minimum number of plane-waves per node :      8237     8161

 maximum number of plane-waves:     98419
 maximum index in each direction: 
   IXMAX=   31   IYMAX=   31   IZMAX=   27
   IXMIN=  -31   IYMIN=  -31   IZMIN=  -27


 real space projection operators:
  total allocation   :       5110.41 KBytes
  max/ min on nodes  :        439.88        410.58


 parallel 3D FFT for wavefunctions:
    minimum data exchange during FFTs selected (reduces bandwidth)
 parallel 3D FFT for charge:
    minimum data exchange during FFTs selected (reduces bandwidth)


 total amount of memory used by VASP MPI-rank0   273107. kBytes
=======================================================================

   base      :      30000. kBytes
   nonlr-proj:       3210. kBytes
   fftplans  :      77588. kBytes
   grid      :      40095. kBytes
   one-center:         24. kBytes
   wavefun   :     122190. kBytes
 
     INWAV:  cpu time      0.0000: real time      0.0000
 Broyden mixing: mesh for mixing (old mesh)
   NGX = 63   NGY = 63   NGZ = 55
  (NGX  =192   NGY  =192   NGZ  =168)
  gives a total of 218295 points

 initial charge density was supplied:
 charge density of overlapping atoms calculated
 number of electron     368.0000000 magnetization 
 keeping initial charge density in first step


--------------------------------------------------------------------------------------------------------


 Maximum index for non-local projection operator           148
 Maximum index for augmentation-charges          1703 (set IRDMAX)


--------------------------------------------------------------------------------------------------------


 First call to EWALD:  gamma=   0.113
 Maximum number of real-space cells 3x 3x 3
 Maximum number of reciprocal cells 3x 3x 3

    FEWALD:  cpu time      0.0070: real time      0.0071


--------------------------------------- Ionic step        1  -------------------------------------------




--------------------------------------- Iteration      1(   1)  ---------------------------------------


    POTLOK:  cpu time      0.5186: real time      0.5370
    SETDIJ:  cpu time      0.4858: real time      0.4914
     EDDAV:  cpu time     10.4626: real time     10.5606
       DOS:  cpu time      0.0013: real time      0.0013
    --------------------------------------------
      LOOP:  cpu time     11.4684: real time     11.5903

 eigenvalue-minimisations  :  2048
 total energy-change (2. order) : 0.3398496E+04  (-0.1371261E+05)
 number of electron     368.0000000 magnetization 
 augmentation part      368.0000000 magnetization 

 Free energy of the ion-electron system (eV)
  ---------------------------------------------------
  alpha Z        PSCENC =       175.06488379
  Ewald energy   TEWEN  =     36244.10509179
  -Hartree energ DENC   =    -47063.38815468
  -exchange      EXHF   =         0.00000000
  -V(xc)+E(xc)   XCENC  =      1240.45961445
  PAW double counting   =     10672.04309506   -10728.93985873
  entropy T*S    EENTRO =        -0.03912891
  eigenvalues    EBANDS =     -1486.29109176
  atomic energy  EATOM  =     14345.48182387
  Solvation  Ediel_sol  =         0.00000000
  ---------------------------------------------------
  free energy    TOTEN  =      3398.49627488 eV

  energy without entropy =     3398.53540379  energy(sigma->0) =     3398.51583933


--------------------------------------------------------------------------------------------------------




--------------------------------------- Iteration      1(   2)  ---------------------------------------


     EDDAV:  cpu time     13.3243: real time     13.4446
       DOS:  cpu time      0.0016: real time      0.0016
    --------------------------------------------
      LOOP:  cpu time     13.3260: real time     13.4463

 eigenvalue-minimisations  :  2704
 total energy-change (2. order) :-0.3561555E+04  (-0.3388726E+04)
 number of electron     368.0000000 magnetization 
 augmentation part      368.0000000 magnetization 

 Free energy of the ion-electron system (eV)
  ---------------------------------------------------
  alpha Z        PSCENC =       175.06488379
  Ewald energy   TEWEN  =     36244.10509179
  -Hartree energ DENC   =    -47063.38815468
  -exchange      EXHF   =         0.00000000
  -V(xc)+E(xc)   XCENC  =      1240.45961445
  PAW double counting   =     10672.04309506   -10728.93985873
  entropy T*S    EENTRO =        -0.00105649
  eigenvalues    EBANDS =     -5047.88452765
  atomic energy  EATOM  =     14345.48182387
  Solvation  Ediel_sol  =         0.00000000
  ---------------------------------------------------
  free energy    TOTEN  =      -163.05908860 eV

  energy without entropy =     -163.05803211  energy(sigma->0) =     -163.05856035


--------------------------------------------------------------------------------------------------------




--------------------------------------- Iteration      1(   3)  ---------------------------------------


     EDDAV:  cpu time     11.2941: real time     11.4032
       DOS:  cpu time      0.0017: real time      0.0017
    --------------------------------------------
      LOOP:  cpu time     11.2958: real time     11.4049

 eigenvalue-minimisations  :  2216
 total energy-change (2. order) :-0.6770619E+03  (-0.6733541E+03)
 number of electron     368.0000000 magnetization 
 augmentation part      368.0000000 magnetization 

 Free energy of the ion-electron system (eV)
  ---------------------------------------------------
  alpha Z        PSCENC =       175.06488379
  Ewald energy   TEWEN  =     36244.10509179
  -Hartree energ DENC   =    -47063.38815468
  -exchange      EXHF   =         0.00000000
  -V(xc)+E(xc)   XCENC  =      1240.45961445
  PAW double counting   =     10672.04309506   -10728.93985873
  entropy T*S    EENTRO =        -0.00000131
  eigenvalues    EBANDS =     -5724.94745747
  atomic energy  EATOM  =     14345.48182387
  Solvation  Ediel_sol  =         0.00000000
  ---------------------------------------------------
  free energy    TOTEN  =      -840.12096324 eV

  energy without entropy =     -840.12096192  energy(sigma->0) =     -840.12096258


--------------------------------------------------------------------------------------------------------




--------------------------------------- Iteration      1(   4)  ---------------------------------------


     EDDAV:  cpu time     11.2385: real time     11.3455
       DOS:  cpu time      0.0018: real time      0.0018
    --------------------------------------------
      LOOP:  cpu time     11.2404: real time     11.3473

 eigenvalue-minimisations  :  2208
 total energy-change (2. order) :-0.2557443E+02  (-0.2536616E+02)
 number of electron     368.0000000 magnetization 
 augmentation part      368.0000000 magnetization 

 Free energy of the ion-electron system (eV)
  ---------------------------------------------------
  alpha Z        PSCENC =       175.06488379
  Ewald energy   TEWEN  =     36244.10509179
  -Hartree energ DENC   =    -47063.38815468
  -exchange      EXHF   =         0.00000000
  -V(xc)+E(xc)   XCENC  =      1240.45961445
  PAW double counting   =     10672.04309506   -10728.93985873
  entropy T*S    EENTRO =        -0.00000041
  eigenvalues    EBANDS =     -5750.52188385
  atomic energy  EATOM  =     14345.48182387
  Solvation  Ediel_sol  =         0.00000000
  ---------------------------------------------------
  free energy    TOTEN  =      -865.69538871 eV

  energy without entropy =     -865.69538830  energy(sigma->0) =     -865.69538851


--------------------------------------------------------------------------------------------------------




--------------------------------------- Iteration      1(   5)  ---------------------------------------


     EDDAV:  cpu time     12.6406: real time     12.7742
       DOS:  cpu time      0.0009: real time      0.0009
    CHARGE:  cpu time      0.6752: real time      0.6813
    MIXING:  cpu time      0.0322: real time      0.0324
    --------------------------------------------
      LOOP:  cpu time     13.3489: real time     13.4888

 eigenvalue-minimisations  :  2528
 total energy-change (2. order) :-0.8195665E+00  (-0.8172022E+00)
 number of electron     367.9999997 magnetization 
 augmentation part       11.1734380 magnetization 

 Broyden mixing:
  rms(total) = 0.42964E+01    rms(broyden)= 0.42955E+01
  rms(prec ) = 0.47983E+01
  weight for this iteration     100.00

 Free energy of the ion-electron system (eV)
  ---------------------------------------------------
  alpha Z        PSCENC =       175.06488379
  Ewald energy   TEWEN  =     36244.10509179
  -Hartree energ DENC   =    -47063.38815468
  -exchange      EXHF   =         0.00000000
  -V(xc)+E(xc)   XCENC  =      1240.45961445
  PAW double counting   =     10672.04309506   -10728.93985873
  entropy T*S    EENTRO =        -0.00000036
  eigenvalues    EBANDS =     -5751.34145042
  atomic energy  EATOM  =     14345.48182387
  Solvation  Ediel_sol  =         0.00000000
  ---------------------------------------------------
  free energy    TOTEN  =      -866.51495523 eV

  energy without entropy =     -866.51495487  energy(sigma->0) =     -866.51495505


--------------------------------------------------------------------------------------------------------




--------------------------------------- Iteration      1(   6)  ---------------------------------------


    POTLOK:  cpu time      0.5547: real time      0.5612
    SETDIJ:  cpu time      0.5071: real time      0.5103
     EDDAV:  cpu time     10.7097: real time     10.8024
       DOS:  cpu time      0.0012: real time      0.0012
    CHARGE:  cpu time      0.6621: real time      0.6674
    MIXING:  cpu time      0.0247: real time      0.0249
    --------------------------------------------
      LOOP:  cpu time     12.4595: real time     12.5675

 eigenvalue-minimisations  :  2064
 total energy-change (2. order) : 0.2896550E+02  (-0.2073086E+01)
 number of electron     367.9999997 magnetization 
 augmentation part       10.7180765 magnetization 

 Broyden mixing:
  rms(total) = 0.32458E+01    rms(broyden)= 0.32458E+01
  rms(prec ) = 0.35633E+01
  weight for this iteration     100.00

 eigenvalues of (default mixing * dielectric matrix)
  average eigenvalue GAMMA=   3.1419
  3.1419

 Free energy of the ion-electron system (eV)
  ---------------------------------------------------
  alpha Z        PSCENC =       175.06488379
  Ewald energy   TEWEN  =     36244.10509179
  -Hartree energ DENC   =    -47485.24409654
  -exchange      EXHF   =         0.00000000
  -V(xc)+E(xc)   XCENC  =      1255.93490852
  PAW double counting   =     14367.84913351   -14428.22848455
  entropy T*S    EENTRO =        -0.00000007
  eigenvalues    EBANDS =     -5312.51271864
  atomic energy  EATOM  =     14345.48182387
  Solvation  Ediel_sol  =         0.00000000
  ---------------------------------------------------
  free energy    TOTEN  =      -837.54945833 eV

  energy without entropy =     -837.54945826  energy(sigma->0) =     -837.54945829


--------------------------------------------------------------------------------------------------------




--------------------------------------- Iteration      1(   7)  ---------------------------------------


    POTLOK:  cpu time      0.5353: real time      0.5513
    SETDIJ:  cpu time      0.4974: real time      0.5002
     EDDAV:  cpu time     10.4754: real time     10.5718
       DOS:  cpu time      0.0016: real time      0.0016
    CHARGE:  cpu time      0.6710: real time      0.6768
    MIXING:  cpu time      0.0180: real time      0.0181
    --------------------------------------------
      LOOP:  cpu time     12.1987: real time     12.3199

 eigenvalue-minimisations  :  2000
 total energy-change (2. order) : 0.2412430E+02  (-0.8278692E+01)
 number of electron     367.9999998 magnetization 
 augmentation part        9.8002693 magnetization 

 Broyden mixing:
  rms(total) = 0.16209E+01    rms(broyden)= 0.16202E+01
  rms(prec ) = 0.17665E+01
  weight for this iteration     100.00

 eigenvalues of (default mixing * dielectric matrix)
  average eigenvalue GAMMA=   2.1710
  1.1918  3.1503

 Free energy of the ion-electron system (eV)
  ---------------------------------------------------
  alpha Z        PSCENC =       175.06488379
  Ewald energy   TEWEN  =     36244.10509179
  -Hartree energ DENC   =    -48409.47349842
  -exchange      EXHF   =         0.00000000
  -V(xc)+E(xc)   XCENC  =      1290.70861275
  PAW double counting   =     26327.26323446   -26394.79114518
  entropy T*S    EENTRO =        -0.02829759
  eigenvalues    EBANDS =     -4391.75586697
  atomic energy  EATOM  =     14345.48182387
  Solvation  Ediel_sol  =         0.00000000
  ---------------------------------------------------
  free energy    TOTEN  =      -813.42516151 eV

  energy without entropy =     -813.39686392  energy(sigma->0) =     -813.41101271


--------------------------------------------------------------------------------------------------------




--------------------------------------- Iteration      1(   8)  ---------------------------------------


    POTLOK:  cpu time      0.5357: real time      0.5429
    SETDIJ:  cpu time      0.5002: real time      0.5035
     EDDAV:  cpu time     11.4828: real time     11.5895
       DOS:  cpu time      0.0008: real time      0.0008
    CHARGE:  cpu time      0.6745: real time      0.6803
    MIXING:  cpu time      0.0245: real time      0.0246
    --------------------------------------------
      LOOP:  cpu time     13.2186: real time     13.3416

 eigenvalue-minimisations  :  2224
 total energy-change (2. order) : 0.1974650E+00  (-0.1742901E+01)
 number of electron     367.9999998 magnetization 
 augmentation part       10.0059712 magnetization 

 Broyden mixing:
  rms(total) = 0.11057E+01    rms(broyden)= 0.11051E+01
  rms(prec ) = 0.11454E+01
  weight for this iteration     100.00

 eigenvalues of (default mixing * dielectric matrix)
  average eigenvalue GAMMA=   2.2150
  4.2408  1.8924  0.5117

 Free energy of the ion-electron system (eV)
  ---------------------------------------------------
  alpha Z        PSCENC =       175.06488379
  Ewald energy   TEWEN  =     36244.10509179
  -Hartree energ DENC   =    -48427.92712179
  -exchange      EXHF   =         0.00000000
  -V(xc)+E(xc)   XCENC  =      1290.63783094
  PAW double counting   =     28272.72844867   -28340.13828025
  entropy T*S    EENTRO =        -0.00000032
  eigenvalues    EBANDS =     -4373.18037315
  atomic energy  EATOM  =     14345.48182387
  Solvation  Ediel_sol  =         0.00000000
  ---------------------------------------------------
  free energy    TOTEN  =      -813.22769646 eV

  energy without entropy =     -813.22769614  energy(sigma->0) =     -813.22769630


--------------------------------------------------------------------------------------------------------




--------------------------------------- Iteration      1(   9)  ---------------------------------------


    POTLOK:  cpu time      0.5427: real time      0.5478
    SETDIJ:  cpu time      0.4982: real time      0.5012
     EDDAV:  cpu time     10.9781: real time     11.0741
       DOS:  cpu time      0.0008: real time      0.0008
    CHARGE:  cpu time      0.6710: real time      0.6765
    MIXING:  cpu time      0.0221: real time      0.0223
    --------------------------------------------
      LOOP:  cpu time     12.7130: real time     12.8227

 eigenvalue-minimisations  :  2096
 total energy-change (2. order) :-0.5301668E+00  (-0.3869304E+00)
 number of electron     367.9999998 magnetization 
 augmentation part        9.9795421 magnetization 

 Broyden mixing:
  rms(total) = 0.63446E+00    rms(broyden)= 0.63438E+00
  rms(prec ) = 0.71161E+00
  weight for this iteration     100.00

 eigenvalues of (default mixing * dielectric matrix)
  average eigenvalue GAMMA=   2.1368
  4.4697  2.1904  1.2537  0.6332

 Free energy of the ion-electron system (eV)
  ---------------------------------------------------
  alpha Z        PSCENC =       175.06488379
  Ewald energy   TEWEN  =     36244.10509179
  -Hartree energ DENC   =    -48550.71967004
  -exchange      EXHF   =         0.00000000
  -V(xc)+E(xc)   XCENC  =      1295.53166756
  PAW double counting   =     33889.35330213   -33957.62168514
  entropy T*S    EENTRO =        -0.00000021
  eigenvalues    EBANDS =     -4254.95327696
  atomic energy  EATOM  =     14345.48182387
  Solvation  Ediel_sol  =         0.00000000
  ---------------------------------------------------
  free energy    TOTEN  =      -813.75786322 eV

  energy without entropy =     -813.75786300  energy(sigma->0) =     -813.75786311


--------------------------------------------------------------------------------------------------------




--------------------------------------- Iteration      1(  10)  ---------------------------------------


    POTLOK:  cpu time      0.5447: real time      0.5635
    SETDIJ:  cpu time      0.4956: real time      0.5003
     EDDAV:  cpu time     11.5384: real time     11.6350
       DOS:  cpu time      0.0008: real time      0.0008
    CHARGE:  cpu time      0.6818: real time      0.6869
    MIXING:  cpu time      0.0258: real time      0.0259
    --------------------------------------------
      LOOP:  cpu time     13.2871: real time     13.4125

 eigenvalue-minimisations  :  2240
 total energy-change (2. order) : 0.6438422E+00  (-0.8883761E-01)
 number of electron     367.9999998 magnetization 
 augmentation part        9.9434058 magnetization 

 Broyden mixing:
  rms(total) = 0.34576E+00    rms(broyden)= 0.34574E+00
  rms(prec ) = 0.40044E+00
  weight for this iteration     100.00

 eigenvalues of (default mixing * dielectric matrix)
  average eigenvalue GAMMA=   2.2228
  4.8519  3.1200  1.2786  1.2786  0.5847

 Free energy of the ion-electron system (eV)
  ---------------------------------------------------
  alpha Z        PSCENC =       175.06488379
  Ewald energy   TEWEN  =     36244.10509179
  -Hartree energ DENC   =    -48510.51452061
  -exchange      EXHF   =         0.00000000
  -V(xc)+E(xc)   XCENC  =      1294.74089319
  PAW double counting   =     35736.47357380   -35804.52211802
  entropy T*S    EENTRO =        -0.00000010
  eigenvalues    EBANDS =     -4293.94364873
  atomic energy  EATOM  =     14345.48182387
  Solvation  Ediel_sol  =         0.00000000
  ---------------------------------------------------
  free energy    TOTEN  =      -813.11402102 eV

  energy without entropy =     -813.11402092  energy(sigma->0) =     -813.11402097


--------------------------------------------------------------------------------------------------------




--------------------------------------- Iteration      1(  11)  ---------------------------------------


    POTLOK:  cpu time      0.5455: real time      0.5522
    SETDIJ:  cpu time      0.4999: real time      0.5026
     EDDAV:  cpu time     10.5628: real time     10.6453
       DOS:  cpu time      0.0009: real time      0.0009
    CHARGE:  cpu time      0.6774: real time      0.6826
    MIXING:  cpu time      0.0219: real time      0.0220
    --------------------------------------------
      LOOP:  cpu time     12.3084: real time     12.4085

 eigenvalue-minimisations  :  1992
 total energy-change (2. order) : 0.3359426E+00  (-0.8103635E-01)
 number of electron     367.9999998 magnetization 
 augmentation part        9.9465493 magnetization 

 Broyden mixing:
  rms(total) = 0.12766E+00    rms(broyden)= 0.12762E+00
  rms(prec ) = 0.16417E+00
  weight for this iteration     100.00

 eigenvalues of (default mixing * dielectric matrix)
  average eigenvalue GAMMA=   2.1268
  4.7049  2.9269  1.7455  1.7455  0.5943  1.0437

 Free energy of the ion-electron system (eV)
  ---------------------------------------------------
  alpha Z        PSCENC =       175.06488379
  Ewald energy   TEWEN  =     36244.10509179
  -Hartree energ DENC   =    -48452.01315946
  -exchange      EXHF   =         0.00000000
  -V(xc)+E(xc)   XCENC  =      1293.15784414
  PAW double counting   =     37225.62732438   -37293.26706438
  entropy T*S    EENTRO =        -0.00000009
  eigenvalues    EBANDS =     -4350.93482248
  atomic energy  EATOM  =     14345.48182387
  Solvation  Ediel_sol  =         0.00000000
  ---------------------------------------------------
  free energy    TOTEN  =      -812.77807845 eV

  energy without entropy =     -812.77807836  energy(sigma->0) =     -812.77807840


--------------------------------------------------------------------------------------------------------




--------------------------------------- Iteration      1(  12)  ---------------------------------------


    POTLOK:  cpu time      0.5513: real time      0.5650
    SETDIJ:  cpu time      0.5011: real time      0.5039
     EDDAV:  cpu time     11.1949: real time     11.2831
       DOS:  cpu time      0.0008: real time      0.0008
    CHARGE:  cpu time      0.6748: real time      0.6807
    MIXING:  cpu time      0.0206: real time      0.0208
    --------------------------------------------
      LOOP:  cpu time     12.9433: real time     13.0515

 eigenvalue-minimisations  :  2152
 total energy-change (2. order) : 0.5368148E-01  (-0.7280359E-02)
 number of electron     367.9999998 magnetization 
 augmentation part        9.9456792 magnetization 

 Broyden mixing:
  rms(total) = 0.97217E-01    rms(broyden)= 0.97211E-01
  rms(prec ) = 0.12637E+00
  weight for this iteration     100.00

 eigenvalues of (default mixing * dielectric matrix)
  average eigenvalue GAMMA=   2.2515
  4.5926  3.4294  3.4294  1.5277  0.5912  1.1804  1.0099

 Free energy of the ion-electron system (eV)
  ---------------------------------------------------
  alpha Z        PSCENC =       175.06488379
  Ewald energy   TEWEN  =     36244.10509179
  -Hartree energ DENC   =    -48451.86919605
  -exchange      EXHF   =         0.00000000
  -V(xc)+E(xc)   XCENC  =      1293.22930302
  PAW double counting   =     37126.26445792   -37193.90060746
  entropy T*S    EENTRO =        -0.00000009
  eigenvalues    EBANDS =     -4351.10015375
  atomic energy  EATOM  =     14345.48182387
  Solvation  Ediel_sol  =         0.00000000
  ---------------------------------------------------
  free energy    TOTEN  =      -812.72439697 eV

  energy without entropy =     -812.72439688  energy(sigma->0) =     -812.72439693


--------------------------------------------------------------------------------------------------------




--------------------------------------- Iteration      1(  13)  ---------------------------------------


    POTLOK:  cpu time      0.5450: real time      0.5503
    SETDIJ:  cpu time      0.5003: real time      0.5031
     EDDAV:  cpu time     10.9148: real time     10.9997
       DOS:  cpu time      0.0008: real time      0.0008
    CHARGE:  cpu time      0.6686: real time      0.6737
    MIXING:  cpu time      0.0309: real time      0.0310
    --------------------------------------------
      LOOP:  cpu time     12.6604: real time     12.7586

 eigenvalue-minimisations  :  2088
 total energy-change (2. order) : 0.6297019E-01  (-0.6956410E-02)
 number of electron     367.9999998 magnetization 
 augmentation part        9.9393312 magnetization 

 Broyden mixing:
  rms(total) = 0.53478E-01    rms(broyden)= 0.53469E-01
  rms(prec ) = 0.69355E-01
  weight for this iteration     100.00

 eigenvalues of (default mixing * dielectric matrix)
  average eigenvalue GAMMA=   2.2163
  4.4362  4.0507  3.7042  1.6134  0.5920  1.0541  1.1401  1.1401

 Free energy of the ion-electron system (eV)
  ---------------------------------------------------
  alpha Z        PSCENC =       175.06488379
  Ewald energy   TEWEN  =     36244.10509179
  -Hartree energ DENC   =    -48444.99087997
  -exchange      EXHF   =         0.00000000
  -V(xc)+E(xc)   XCENC  =      1293.15940500
  PAW double counting   =     37183.64817365   -37251.24811867
  entropy T*S    EENTRO =        -0.00000008
  eigenvalues    EBANDS =     -4357.88180616
  atomic energy  EATOM  =     14345.48182387
  Solvation  Ediel_sol  =         0.00000000
  ---------------------------------------------------
  free energy    TOTEN  =      -812.66142678 eV

  energy without entropy =     -812.66142671  energy(sigma->0) =     -812.66142675


--------------------------------------------------------------------------------------------------------




--------------------------------------- Iteration      1(  14)  ---------------------------------------


    POTLOK:  cpu time      0.5478: real time      0.5533
    SETDIJ:  cpu time      0.5030: real time      0.5062
     EDDAV:  cpu time     11.1332: real time     11.2372
       DOS:  cpu time      0.0008: real time      0.0008
    CHARGE:  cpu time      0.6775: real time      0.6833
    MIXING:  cpu time      0.0217: real time      0.0219
    --------------------------------------------
      LOOP:  cpu time     12.8840: real time     13.0028

 eigenvalue-minimisations  :  2096
 total energy-change (2. order) : 0.2037362E-01  (-0.2890219E-02)
 number of electron     367.9999998 magnetization 
 augmentation part        9.9340142 magnetization 

 Broyden mixing:
  rms(total) = 0.25255E-01    rms(broyden)= 0.25245E-01
  rms(prec ) = 0.32345E-01
  weight for this iteration     100.00

 eigenvalues of (default mixing * dielectric matrix)
[...]
   -.119E+02 0.281E+01 0.847E+00   0.119E+02 -.278E+01 -.844E+00   -.141E-01 -.229E-01 -.539E-02   0.102E-03 0.249E-03 0.638E-05
   -.462E+01 -.302E+01 0.114E+01   0.475E+01 0.312E+01 -.114E+01   -.139E+00 -.881E-01 0.427E-03   0.103E-03 -.133E-03 0.121E-03
   -.315E+01 -.275E+02 0.207E+01   0.342E+01 0.281E+02 -.207E+01   -.277E+00 -.673E+00 -.214E-03   0.183E-03 -.207E-04 0.184E-03
   -.253E+02 0.107E+02 0.191E+01   0.260E+02 -.108E+02 -.191E+01   -.724E+00 0.895E-01 0.763E-03   -.231E-03 0.103E-03 0.281E-03
   -.766E+01 0.114E+02 0.148E+01   0.765E+01 -.115E+02 -.147E+01   0.248E-02 0.173E-01 -.426E-03   -.265E-04 -.350E-04 0.118E-03
   0.617E+01 -.126E+02 0.142E+01   -.619E+01 0.126E+02 -.141E+01   0.266E-01 -.308E-02 -.155E-02   -.254E-04 -.308E-03 0.115E-03
   0.579E+02 -.183E+02 0.344E+01   -.585E+02 0.159E+02 -.343E+01   0.565E+00 0.237E+01 -.154E-01   -.370E-04 0.241E-03 0.145E-03
   0.133E+02 0.587E+02 0.368E+01   -.156E+02 -.580E+02 -.367E+01   0.235E+01 -.706E+00 -.117E-01   0.100E-03 0.131E-03 0.118E-03
   -.899E+00 0.146E+02 0.143E+01   0.945E+00 -.147E+02 -.142E+01   -.457E-01 0.121E+00 -.987E-02   0.524E-04 0.242E-04 0.815E-05
   0.378E+01 0.223E+01 0.804E+00   -.380E+01 -.225E+01 -.799E+00   0.133E-01 0.137E-01 -.374E-02   0.258E-03 -.781E-04 0.937E-04
   0.122E+02 -.808E+01 0.130E+01   -.123E+02 0.819E+01 -.130E+01   0.901E-01 -.108E+00 -.864E-02   -.229E-03 0.265E-04 0.122E-03
   0.440E+02 -.514E+02 0.568E+01   -.422E+02 0.532E+02 -.570E+01   -.182E+01 -.180E+01 0.210E-01   -.187E-03 -.235E-03 -.418E-03
   -.228E+02 0.635E+02 0.555E+01   0.252E+02 -.629E+02 -.557E+01   -.248E+01 -.684E+00 0.195E-01   -.116E-03 -.279E-04 -.418E-03
   0.646E+01 0.177E+02 0.144E+01   -.647E+01 -.178E+02 -.144E+01   0.237E-01 0.793E-01 -.996E-03   0.569E-04 0.165E-03 0.139E-03
   -.755E+00 0.493E+01 0.110E+01   0.747E+00 -.495E+01 -.109E+01   0.324E-02 0.244E-01 -.367E-02   0.102E-03 0.220E-04 -.350E-04
   0.371E+01 -.297E+01 0.117E+01   -.372E+01 0.297E+01 -.116E+01   0.177E-01 -.898E-02 -.462E-02   0.260E-03 -.878E-04 -.107E-03
   0.185E+02 -.317E+01 0.149E+01   -.186E+02 0.320E+01 -.149E+01   0.744E-01 -.278E-01 -.829E-03   0.217E-03 0.282E-03 -.309E-05
   0.302E+02 0.176E+02 0.126E+01   -.307E+02 -.182E+02 -.123E+01   0.515E+00 0.589E+00 -.371E-01   -.253E-03 0.222E-03 0.433E-04
   0.293E+02 0.172E+02 0.134E+01   -.299E+02 -.175E+02 -.128E+01   0.615E+00 0.356E+00 -.658E-01   0.220E-05 0.260E-03 -.128E-03
   0.304E+02 0.177E+02 0.780E+00   -.312E+02 -.179E+02 -.743E+00   0.783E+00 0.155E+00 -.461E-01   -.111E-03 -.213E-03 -.231E-04
   -.521E+01 -.285E+01 0.102E+01   0.533E+01 0.285E+01 -.102E+01   -.126E+00 0.943E-02 0.113E-02   -.563E-04 0.936E-04 0.566E-03
   -.976E+01 -.577E+01 0.770E+00   0.979E+01 0.575E+01 -.763E+00   -.211E-01 0.182E-01 -.108E-01   0.154E-03 0.562E-04 0.362E-03
   -.975E+01 -.581E+01 0.777E+00   0.974E+01 0.584E+01 -.771E+00   0.994E-02 -.297E-01 -.214E-02   -.522E-04 0.500E-04 0.619E-03
   -.522E+01 -.306E+01 0.932E+00   0.530E+01 0.315E+01 -.925E+00   -.754E-01 -.955E-01 -.348E-02   0.841E-05 0.815E-04 0.482E-03
   0.877E+00 0.332E+01 0.104E+01   -.885E+00 -.336E+01 -.103E+01   0.527E-02 0.381E-01 -.556E-02   0.201E-03 0.169E-03 0.600E-03
   0.583E+01 0.318E+01 0.109E+01   -.589E+01 -.322E+01 -.109E+01   0.558E-01 0.310E-01 0.732E-02   0.807E-04 -.715E-04 0.775E-03
   0.327E+01 -.125E+01 0.117E+01   -.330E+01 0.127E+01 -.116E+01   0.223E-01 -.270E-01 0.907E-03   -.917E-05 -.968E-04 0.742E-03
   -.645E+01 -.179E+02 0.138E+01   0.649E+01 0.180E+02 -.138E+01   -.337E-01 -.724E-01 0.377E-02   -.577E-04 0.468E-04 0.214E-03
   -.305E+02 -.177E+02 0.800E+00   0.313E+02 0.178E+02 -.764E+00   -.796E+00 -.149E+00 -.458E-01   -.209E-03 0.496E-04 -.103E-04
   -.292E+02 -.170E+02 0.850E+00   0.298E+02 0.174E+02 -.783E+00   -.602E+00 -.347E+00 -.763E-01   -.132E-03 0.488E-04 -.233E-03
   -.305E+02 -.176E+02 0.885E+00   0.310E+02 0.182E+02 -.848E+00   -.529E+00 -.607E+00 -.458E-01   -.822E-04 -.813E-04 -.114E-03
   -.188E+02 0.336E+01 0.149E+01   0.189E+02 -.337E+01 -.149E+01   -.927E-01 0.878E-02 0.388E-03   -.608E-04 -.176E-03 0.553E-04
   -.377E+01 0.315E+01 0.110E+01   0.379E+01 -.315E+01 -.110E+01   -.154E-01 0.783E-02 -.304E-02   -.317E-03 -.134E-03 -.218E-04
   0.818E+00 -.494E+01 0.117E+01   -.802E+00 0.496E+01 -.116E+01   -.683E-02 -.179E-01 -.123E-02   0.165E-03 -.233E-03 -.835E-04
   0.747E+00 -.148E+02 0.144E+01   -.789E+00 0.150E+02 -.143E+01   0.377E-01 -.145E+00 -.795E-02   0.183E-04 0.190E-04 0.996E-04
   0.227E+02 -.636E+02 0.556E+01   -.251E+02 0.629E+02 -.559E+01   0.247E+01 0.696E+00 0.230E-01   0.333E-04 0.338E-03 -.254E-03
   -.440E+02 0.519E+02 0.564E+01   0.422E+02 -.537E+02 -.566E+01   0.182E+01 0.181E+01 0.213E-01   -.834E-04 -.151E-03 -.334E-03
   -.125E+02 0.840E+01 0.142E+01   0.127E+02 -.852E+01 -.141E+01   -.109E+00 0.134E+00 -.557E-02   0.749E-04 0.344E-03 0.141E-03
   -.393E+01 -.220E+01 0.761E+00   0.394E+01 0.222E+01 -.757E+00   -.147E-01 -.196E-01 -.560E-02   0.418E-04 -.181E-03 0.623E-04
   0.758E+01 -.115E+02 0.148E+01   -.758E+01 0.115E+02 -.147E+01   -.744E-02 -.212E-01 -.152E-02   0.233E-03 0.803E-07 0.101E-03
   -.132E+02 -.591E+02 0.356E+01   0.156E+02 0.584E+02 -.354E+01   -.235E+01 0.699E+00 -.159E-01   0.542E-04 0.151E-03 0.148E-03
   -.576E+02 0.182E+02 0.367E+01   0.581E+02 -.159E+02 -.366E+01   -.564E+00 -.237E+01 -.166E-01   0.771E-04 0.137E-03 0.179E-03
   -.632E+01 0.125E+02 0.141E+01   0.634E+01 -.125E+02 -.141E+01   -.102E-01 0.672E-02 -.183E-02   -.300E-04 0.957E-04 0.167E-03
   0.449E+01 0.261E+01 0.115E+01   -.460E+01 -.267E+01 -.115E+01   0.117E+00 0.716E-01 -.707E-04   -.152E-03 -.148E-03 0.139E-03
   0.251E+02 -.107E+02 0.189E+01   -.258E+02 0.108E+02 -.189E+01   0.701E+00 -.102E+00 0.405E-03   0.665E-04 0.826E-04 0.179E-03
   0.327E+01 0.271E+02 0.200E+01   -.353E+01 -.278E+02 -.200E+01   0.262E+00 0.671E+00 -.238E-02   -.232E-03 -.973E-04 0.167E-03
   0.355E+01 0.116E+02 0.874E+00   -.357E+01 -.117E+02 -.872E+00   0.182E-01 0.120E-03 -.350E-02   -.322E-03 0.692E-04 -.286E-04
   0.120E+02 -.292E+01 0.912E+00   -.120E+02 0.291E+01 -.910E+00   0.907E-02 0.153E-01 -.354E-02   0.291E-04 -.306E-03 0.322E-04
   0.264E+02 -.174E+02 0.215E+01   -.269E+02 0.180E+02 -.214E+01   0.493E+00 -.595E+00 -.703E-02   -.383E-03 -.147E-03 -.160E-03
   0.483E+02 0.430E+02 0.680E+01   -.467E+02 -.445E+02 -.674E+01   -.160E+01 0.146E+01 -.612E-01   -.181E-03 0.298E-03 -.101E-02
   0.679E+02 0.391E+02 0.112E+02   -.656E+02 -.378E+02 -.111E+02   -.228E+01 -.131E+01 -.128E+00   -.278E-03 0.668E-04 -.163E-02
   0.613E+02 0.203E+02 0.679E+01   -.618E+02 -.182E+02 -.673E+01   0.466E+00 -.212E+01 -.673E-01   0.240E-03 -.963E-04 -.111E-02
   -.179E+01 0.313E+02 0.220E+01   0.205E+01 -.321E+02 -.219E+01   -.266E+00 0.714E+00 -.394E-02   -.816E-04 -.136E-03 -.175E-03
   0.563E+00 0.695E+01 0.149E+01   -.531E+00 -.710E+01 -.149E+01   -.292E-01 0.156E+00 0.756E-02   0.109E-03 -.553E-04 0.187E-03
   0.740E+00 0.212E+00 0.125E+01   -.731E+00 -.206E+00 -.125E+01   -.518E-02 0.300E-02 0.583E-02   0.120E-03 0.153E-03 0.716E-04
   0.639E+01 -.314E+01 0.147E+01   -.651E+01 0.324E+01 -.147E+01   0.119E+00 -.103E+00 0.463E-02   0.249E-03 0.130E-03 0.152E-03
   0.178E+02 0.101E+01 0.100E+01   -.179E+02 -.986E+00 -.993E+00   0.940E-01 -.267E-01 -.996E-02   0.187E-03 -.132E-03 0.326E-03
   0.170E+02 0.918E+01 0.337E+00   -.170E+02 -.932E+01 -.339E+00   0.610E-01 0.139E+00 -.731E-03   0.847E-04 0.106E-03 0.113E-03
   0.166E+02 0.984E+01 0.646E+00   -.167E+02 -.982E+01 -.651E+00   0.175E+00 -.168E-01 0.333E-02   -.170E-04 -.288E-03 0.173E-03
   0.977E+01 0.146E+02 0.839E+00   -.979E+01 -.147E+02 -.829E+00   0.270E-01 0.946E-01 -.100E-01   0.101E-03 0.223E-04 0.414E-03
   0.279E+01 -.232E+03 0.923E+01   -.243E+01 0.267E+03 -.918E+01   -.363E+00 -.347E+02 -.571E-01   -.526E-04 0.933E-04 0.190E-04
   -.200E+03 0.118E+03 0.955E+01   0.230E+03 -.135E+03 -.951E+01   -.303E+02 0.170E+02 -.445E-01   0.234E-03 -.336E-04 -.216E-03
   0.223E+03 0.965E+02 0.267E+02   -.254E+03 -.112E+03 -.272E+02   0.310E+02 0.156E+02 0.577E+00   -.341E-04 0.758E-05 -.411E-02
   0.195E+03 0.145E+03 0.270E+02   -.223E+03 -.164E+03 -.276E+02   0.290E+02 0.191E+02 0.601E+00   0.434E-03 -.138E-03 -.404E-02
   -.195E+03 -.145E+03 0.264E+02   0.224E+03 0.164E+03 -.270E+02   -.289E+02 -.191E+02 0.600E+00   -.276E-03 -.243E-03 -.327E-02
   -.223E+03 -.960E+02 0.267E+02   0.254E+03 0.111E+03 -.274E+02   -.310E+02 -.155E+02 0.617E+00   -.203E-03 0.260E-03 -.305E-02
   0.200E+03 -.118E+03 0.921E+01   -.230E+03 0.135E+03 -.916E+01   0.303E+02 -.170E+02 -.574E-01   0.221E-04 0.123E-04 -.177E-03
   -.258E+01 0.232E+03 0.932E+01   0.216E+01 -.267E+03 -.927E+01   0.419E+00 0.347E+02 -.596E-01   0.278E-03 -.825E-04 -.159E-03
   0.305E+02 -.515E+02 0.216E+02   -.339E+02 0.573E+02 -.266E+02   0.337E+01 -.572E+01 0.503E+01   0.436E-04 0.768E-04 0.676E-04
   -.298E+02 0.530E+02 0.202E+02   0.331E+02 -.589E+02 -.252E+02   -.330E+01 0.584E+01 0.493E+01   0.815E-04 0.164E-04 -.137E-03
   0.140E+00 0.378E+00 -.315E+03   0.186E+00 0.218E+00 0.362E+03   -.336E+00 -.597E+00 -.469E+02   -.581E-04 0.310E-02 0.223E-03
 -----------------------------------------------------------------------------------------------
   0.181E+00 0.406E+00 0.356E+02   -.597E-12 -.163E-12 0.000E+00   -.254E+00 -.355E+00 -.357E+02   -.502E-03 0.225E-02 -.102E-01
 
 
 POSITION                                       TOTAL-FORCE (eV/Angst)
 -----------------------------------------------------------------------------------
      8.63419     14.95187      7.50169        -0.001890      0.000312      0.008336
     16.02909      2.12646      7.50102         0.002038     -0.010196      0.004041
     14.79067      4.26441      7.50132        -0.001225      0.012139      0.000449
     13.55759      6.40655      7.50078        -0.002950      0.004542      0.005470
     12.33325      8.54657      7.50157        -0.001715      0.002115      0.005491
     -6.15065     10.69078      7.50314         0.004914      0.005813     -0.002453
     -7.38716     12.82978      7.50282         0.004091      0.005199      0.003506
      2.47834      0.02008      7.49991         0.000072     -0.007595      0.006409
      1.23685      2.15486      7.50357         0.000686      0.004261      0.001991
     -0.00934      4.26721      7.50484         0.001411      0.003840     -0.002078
     -1.24137      6.40168      7.50464         0.002689      0.002497      0.000161
     -2.44788      8.53788      7.50284         0.006223      0.001027     -0.002684
     -3.67558     10.67986      7.49962        -0.005804     -0.001828      0.006031
     -4.91662     12.82850      7.49925        -0.006405     -0.001348      0.007644
      4.94437      0.01316      7.50075        -0.003227      0.001700     -0.001691
      3.70675      2.17863      7.50031        -0.001809     -0.002482     -0.002560
      2.45129      4.38484      7.49395        -0.008254     -0.001291     -0.005598
      1.22557      6.40251      7.48904        -0.004645      0.003964     -0.001960
      0.09153      8.47336      7.49374        -0.002423     -0.000209     -0.009265
     -1.19191     10.66424      7.49997        -0.004035     -0.005553     -0.002988
     -2.44842     12.81894      7.50066        -0.003342      0.000297     -0.002285
      7.41136      0.00581      7.50014        -0.004191      0.004092      0.002229
      6.16184      2.17191      7.50051         0.000994     -0.001717      0.001151
      0.02694     12.79756      7.50076        -0.002460     -0.001356      0.003201
      1.23702     14.94473      7.49997        -0.009313     -0.001634      0.001830
      8.62556      2.14898      7.50016         0.009712     -0.007082      0.001446
      7.38903      4.35706      7.50260        -0.004265      0.003860     -0.002136
      2.53155     12.76940      7.50199         0.004367      0.002537      0.000894
      3.70018     14.92811      7.50065         0.001183     -0.001333     -0.002306
     11.09382      2.13368      7.50060        -0.003218     -0.005959      0.001098
      9.84222      4.29091      7.50094         0.001507     -0.001587     -0.001091
      8.54911      6.39910      7.49748         0.000002      0.000982     -0.005458
      4.87864     12.75400      7.49789         0.000028     -0.001229     -0.006309
      6.15976     14.93188      7.50057         0.009435      0.006537     -0.000507
     13.55895      2.12331      7.49973        -0.003300      0.000206     -0.000126
     12.31855      4.27067      7.49951         0.001436     -0.005822     -0.001481
     11.07675      6.41685      7.50022        -0.001060     -0.004537     -0.001825
      9.84501      8.55940      7.50297         0.003842      0.002166     -0.006518
      8.65015     10.69435      7.50401         0.018005      0.000006     -0.006516
      7.39786     12.79428      7.50421        -0.002366     -0.001933     -0.008273
      0.00217      1.42626      7.50174        -0.003682      0.007560      0.007158
     -1.24734      3.54884      7.50277         0.003044     -0.004669     -0.003377
     -2.48367      5.69008      7.50265         0.000556      0.000815      0.005121
     -3.69683      7.83376      7.50168         0.002475     -0.003355      0.004520
     -4.92026      9.97395      7.50120        -0.001111     -0.004115      0.000376
     -6.15259     12.11597      7.50127         0.004121     -0.003153      0.008844
     -7.39171     14.25282      7.50101        -0.007632     -0.003449      0.006126
      2.47585      1.44711      7.50098         0.002877      0.002261      0.001831
      1.23654      3.58433      7.50442         0.001935      0.002168     -0.009946
     -0.01650      5.68565      7.50515        -0.012703     -0.003995     -0.009120
     -1.20979      7.82265      7.50399        -0.000450     -0.010422     -0.008238
     -2.44109      9.96455      7.50046         0.000094     -0.002347     -0.000569
     -3.68150     12.11046      7.49974         0.004306      0.004923      0.000940
     -4.92146     14.25676      7.49968         0.009952     -0.000718      0.001480
      4.93564      1.45183      7.50075        -0.003353      0.000414     -0.001107
      3.75645      3.62605      7.49798         0.003790     -0.006142     -0.002411
      0.08655      9.98452      7.49760        -0.000182      0.006493     -0.004197
     -1.20735     12.09236      7.50071         0.000190      0.007978      0.000861
     -2.45798     14.24818      7.50078         0.000872     -0.008291     -0.001489
      7.39770      1.43899      7.50001        -0.008056     -0.006047      0.001380
      6.10371      3.61404      7.50235        -0.003814     -0.004981     -0.001893
      1.24643     12.02688      7.50191        -0.001662     -0.000832     -0.002357
      0.00902     14.23495      7.50012         0.007451     -0.002838      0.001370
      9.85842      1.41991      7.50009         0.002013      0.007143      0.001935
      8.60743      3.58588      7.50095         0.003829     -0.002579      0.001056
      2.47235     14.21126      7.50056        -0.001888     -0.002063     -0.000629
     12.32755      1.41060      7.50054        -0.006097     -0.005276     -0.000603
     11.08457      3.56309      7.50045        -0.014540      0.000841     -0.001141
      9.82721      5.71882      7.49991         0.007498     -0.001746     -0.003117
      8.54421      7.90896      7.49303        -0.003569     -0.003722     -0.004729
      7.40728      9.97624      7.48799         0.002273      0.012983     -0.009882
      6.18308     11.99356      7.49331        -0.000121      0.001379     -0.010484
      4.92938     14.20083      7.49994        -0.003112      0.000376     -0.000579
     14.79521      1.40155      7.49951         0.003493      0.001500      0.006512
     13.55434      3.55216      7.49951         0.005039      0.007678      0.005275
     12.31204      5.70171      7.49937         0.003448      0.004142      0.004991
     11.08328      7.84381      7.50211        -0.002051     -0.002909      0.001337
      9.87666      9.97994      7.50551        -0.001357     -0.001288     -0.002149
      8.64473     12.11252      7.50503         0.003561      0.003147     -0.001231
      7.39863     14.22340      7.50281         0.005893      0.003473      0.000062
      4.92811      4.28365      7.50146        -0.000378      0.000566     -0.003426
      1.24050     10.67322      7.50077        -0.003857     -0.002736     -0.002977
      7.39508      8.60188      7.47584        -0.000071     -0.003850     -0.001634
      6.20968     10.65187      7.47546         0.003449      0.002661     -0.001858
      2.42332      5.72674      7.47647         0.001979      0.002078      0.001944
      1.23933      7.77803      7.47594         0.002514     -0.002592      0.002986
      7.39502      5.71058      7.50145         0.003655     -0.001746     -0.004944
      3.70612     12.09816      7.50135         0.004311      0.002519     -0.005675
      3.93232      8.85901      8.46161        -0.001055      0.006177     -0.017096
      4.69669      7.53393      8.47297         0.001002      0.002047     -0.014742
      4.31845      8.20402      9.06996        -0.009619      0.001141      0.080225
 -----------------------------------------------------------------------------------
    total drift:                               -0.073750      0.053246     -0.018497


--------------------------------------------------------------------------------------------------------



  FREE ENERGIE OF THE ION-ELECTRON SYSTEM (eV)
  ---------------------------------------------------
  free  energy   TOTEN  =      -820.14202942 eV

  energy  without entropy=     -820.14202927  energy(sigma->0) =     -820.14202935
 
 d Force = 0.1196665E-03[ 0.710E-04, 0.168E-03]  d Energy = 0.1191819E-03 0.485E-06
 d Force =-0.3071086E-01[-0.298E-01,-0.316E-01]  d Ewald  =-0.3071077E-01-0.823E-07


--------------------------------------------------------------------------------------------------------


    POTLOK:  cpu time      1.0526: real time      1.0624


--------------------------------------------------------------------------------------------------------


 Conjugate gradient step on ions:
 trial-energy change:   -0.000119  1 .order   -0.000120   -0.000168   -0.000071
  (g-gl).g = 0.558E-03      g.g   = 0.561E-03  gl.gl    = 0.631E-03
 g(Force)  = 0.561E-03   g(Stress)= 0.000E+00 ortho     =-0.151E-04
 gamma     =   0.88407
 trial     =   0.30764
 opt step  =   0.53197  (harmonic =   0.53197) maximal distance =0.00126085
 next E    =  -820.142056   (d E  =  -0.00015)


--------------------------------------------------------------------------------------------------------


  
 reached required accuracy - stopping structural energy minimisation
     LOOP+:  cpu time     90.7926: real time     91.7485
    4ORBIT:  cpu time      0.0000: real time      0.0000

 total amount of memory used by VASP MPI-rank0   273107. kBytes
=======================================================================

   base      :      30000. kBytes
   nonlr-proj:       3210. kBytes
   fftplans  :      77588. kBytes
   grid      :      40095. kBytes
   one-center:         24. kBytes
   wavefun   :     122190. kBytes
 
  
  
 General timing and accounting informations for this job:
 ========================================================
  
                  Total CPU time used (sec):     2883.895
                            User time (sec):     2854.762
                          System time (sec):       29.134
                         Elapsed time (sec):     2914.828
  
                   Maximum memory used (kb):      639880.
                   Average memory used (kb):          N/A
  
                          Minor page faults:      3014534
                          Major page faults:            2
                 Voluntary context switches:         3141
