  97  97   0   0
  0.3994726E+02  0.1727104E-08  0.1727104E-08  0.1500000E-08  0.0000000E+00
  1.000000000000000E-004
  CAR 
 unknown system                          
      5.79103003    -25.37057673  301     -2.50816959      1.00000000
    -25.371  0.0000E+00  0.0000E+00  0.0000E+00  0.0000E+00
    -25.267  0.0000E+00  0.0000E+00  0.0000E+00  0.0000E+00
    -25.163  0.0000E+00  0.0000E+00  0.0000E+00  0.0000E+00
    -25.059  0.0000E+00  0.0000E+00  0.0000E+00  0.0000E+00
    -24.955  0.0000E+00  0.0000E+00  0.0000E+00  0.0000E+00
    -24.851  0.0000E+00  0.0000E+00  0.0000E+00  0.0000E+00
    -24.747  0.0000E+00  0.0000E+00  0.0000E+00  0.0000E+00
    -24.643  0.0000E+00  0.0000E+00  0.0000E+00  0.0000E+00
    -24.540  0.0000E+00  0.0000E+00  0.0000E+00  0.0000E+00
    -24.436  0.0000E+00  0.0000E+00  0.0000E+00  0.0000E+00
    -24.332  0.0000E+00  0.0000E+00  0.0000E+00  0.0000E+00
    -24.228  0.1519E-15  0.1519E-15  0.1577E-16  0.1577E-16
    -24.124  0.2443E-07  0.2443E-07  0.2538E-08  0.2538E-08
    -24.020  0.9859E-03  0.9859E-03  0.1024E-03  0.1024E-03
    -23.916  0.2652E-01  0.2652E-01  0.2857E-02  0.2857E-02
    -23.812  0.4583E-02  0.4583E-02  0.3333E-02  0.3333E-02
    -23.709  0.9926E-06  0.9926E-06  0.3333E-02  0.3333E-02
    -23.605  0.6136E-13  0.6136E-13  0.3333E-02  0.3333E-02
    -23.501  0.0000E+00  0.0000E+00  0.3333E-02  0.3333E-02
    -23.397  0.0000E+00  0.0000E+00  0.3333E-02  0.3333E-02
    -23.293  0.0000E+00  0.0000E+00  0.3333E-02  0.3333E-02
    -23.189  0.0000E+00  0.0000E+00  0.3333E-02  0.3333E-02
    -23.085  0.0000E+00  0.0000E+00  0.3333E-02  0.3333E-02
    -22.982  0.0000E+00  0.0000E+00  0.3333E-02  0.3333E-02
    -22.878  0.0000E+00  0.0000E+00  0.3333E-02  0.3333E-02
    -22.774  0.0000E+00  0.0000E+00  0.3333E-02  0.3333E-02
    -22.670  0.0000E+00  0.0000E+00  0.3333E-02  0.3333E-02
    -22.566  0.7532E-10  0.7532E-10  0.3333E-02  0.3333E-02
    -22.462  0.5415E-04  0.5415E-04  0.3339E-02  0.3339E-02
    -22.358  0.1900E-01  0.1900E-01  0.5312E-02  0.5312E-02
    -22.254  0.4340E-01  0.4340E-01  0.9821E-02  0.9821E-02
    -22.151  0.1727E-02  0.1727E-02  0.1000E-01  0.1000E-01
    -22.047  0.8712E-07  0.8712E-07  0.1000E-01  0.1000E-01
    -21.943  0.1139E-08  0.1139E-08  0.1000E-01  0.1000E-01
    -21.839  0.1166E-03  0.1166E-03  0.1001E-01  0.1001E-01
    -21.735  0.9902E-02  0.9902E-02  0.1104E-01  0.1104E-01
    -21.631  0.3267E-01  0.3267E-01  0.1443E-01  0.1443E-01
    -21.527  0.1067E-01  0.1067E-01  0.1554E-01  0.1554E-01
    -21.423  0.1445E-01  0.1445E-01  0.1704E-01  0.1704E-01
    -21.320  0.3330E-01  0.3330E-01  0.2050E-01  0.2050E-01
    -21.216  0.1331E-01  0.1331E-01  0.2189E-01  0.2189E-01
    -21.112  0.2154E-01  0.2154E-01  0.2412E-01  0.2412E-01
    -21.008  0.1048E-01  0.1048E-01  0.2521E-01  0.2521E-01
    -20.904  0.4765E-01  0.4765E-01  0.3016E-01  0.3016E-01
    -20.800  0.1955E-01  0.1955E-01  0.3219E-01  0.3219E-01
    -20.696  0.3350E-02  0.3350E-02  0.3254E-01  0.3254E-01
    -20.592  0.1428E-01  0.1428E-01  0.3402E-01  0.3402E-01
    -20.489  0.1821E-01  0.1821E-01  0.3591E-01  0.3591E-01
    -20.385  0.3316E-01  0.3316E-01  0.3936E-01  0.3936E-01
    -20.281  0.4566E-01  0.4566E-01  0.4410E-01  0.4410E-01
    -20.177  0.1136E-01  0.1136E-01  0.4528E-01  0.4528E-01
    -20.073  0.2035E-01  0.2035E-01  0.4740E-01  0.4740E-01
    -19.969  0.1659E-01  0.1659E-01  0.4912E-01  0.4912E-01
    -19.865  0.1437E-01  0.1437E-01  0.5061E-01  0.5061E-01
    -19.761  0.2044E-01  0.2044E-01  0.5274E-01  0.5274E-01
    -19.658  0.2888E-01  0.2888E-01  0.5573E-01  0.5573E-01
    -19.554  0.4103E-01  0.4103E-01  0.6000E-01  0.6000E-01
    -19.450  0.2801E-01  0.2801E-01  0.6291E-01  0.6291E-01
    -19.346  0.1730E-01  0.1730E-01  0.6470E-01  0.6470E-01
    -19.242  0.1796E-01  0.1796E-01  0.6657E-01  0.6657E-01
    -19.138  0.4923E-02  0.4923E-02  0.6708E-01  0.6708E-01
    -19.034  0.2741E-01  0.2741E-01  0.6993E-01  0.6993E-01
    -18.931  0.2728E-01  0.2728E-01  0.7276E-01  0.7276E-01
    -18.827  0.1803E-01  0.1803E-01  0.7463E-01  0.7463E-01
    -18.723  0.2065E-01  0.2065E-01  0.7678E-01  0.7678E-01
    -18.619  0.4236E-01  0.4236E-01  0.8118E-01  0.8118E-01
    -18.515  0.3129E-01  0.3129E-01  0.8443E-01  0.8443E-01
    -18.411  0.2506E-01  0.2506E-01  0.8703E-01  0.8703E-01
    -18.307  0.2199E-01  0.2199E-01  0.8931E-01  0.8931E-01
    -18.203  0.2106E-01  0.2106E-01  0.9150E-01  0.9150E-01
    -18.100  0.1649E-01  0.1649E-01  0.9321E-01  0.9321E-01
    -17.996  0.3355E-01  0.3355E-01  0.9670E-01  0.9670E-01
    -17.892  0.1124E-01  0.1124E-01  0.9787E-01  0.9787E-01
    -17.788  0.1690E-01  0.1690E-01  0.9962E-01  0.9962E-01
    -17.684  0.1489E-01  0.1489E-01  0.1012E+00  0.1012E+00
    -17.580  0.2987E-01  0.2987E-01  0.1043E+00  0.1043E+00
    -17.476  0.5747E-01  0.5747E-01  0.1102E+00  0.1102E+00
    -17.372  0.2526E-01  0.2526E-01  0.1129E+00  0.1129E+00
    -17.269  0.4170E-01  0.4170E-01  0.1172E+00  0.1172E+00
    -17.165  0.1946E-01  0.1946E-01  0.1192E+00  0.1192E+00
    -17.061  0.1471E-01  0.1471E-01  0.1207E+00  0.1207E+00
    -16.957  0.3574E-01  0.3574E-01  0.1245E+00  0.1245E+00
    -16.853  0.2879E-01  0.2879E-01  0.1274E+00  0.1274E+00
    -16.749  0.3074E-02  0.3074E-02  0.1278E+00  0.1278E+00
    -16.645  0.1683E-01  0.1683E-01  0.1295E+00  0.1295E+00
    -16.541  0.2181E-01  0.2181E-01  0.1318E+00  0.1318E+00
    -16.438  0.5654E-01  0.5654E-01  0.1377E+00  0.1377E+00
    -16.334  0.5051E-01  0.5051E-01  0.1429E+00  0.1429E+00
    -16.230  0.4160E-02  0.4160E-02  0.1433E+00  0.1433E+00
    -16.126  0.1731E-02  0.1731E-02  0.1435E+00  0.1435E+00
    -16.022  0.7288E-02  0.7288E-02  0.1443E+00  0.1443E+00
    -15.918  0.1540E-01  0.1540E-01  0.1459E+00  0.1459E+00
    -15.814  0.1588E-01  0.1588E-01  0.1475E+00  0.1475E+00
    -15.710  0.6882E-02  0.6882E-02  0.1482E+00  0.1482E+00
    -15.607  0.4339E-02  0.4339E-02  0.1487E+00  0.1487E+00
    -15.503  0.2944E-01  0.2944E-01  0.1517E+00  0.1517E+00
    -15.399  0.2316E-01  0.2316E-01  0.1541E+00  0.1541E+00
    -15.295  0.2561E-01  0.2561E-01  0.1568E+00  0.1568E+00
    -15.191  0.2670E-01  0.2670E-01  0.1596E+00  0.1596E+00
    -15.087  0.2230E-01  0.2230E-01  0.1619E+00  0.1619E+00
    -14.983  0.3806E-01  0.3806E-01  0.1659E+00  0.1659E+00
    -14.880  0.3778E-01  0.3778E-01  0.1698E+00  0.1698E+00
    -14.776  0.1774E-01  0.1774E-01  0.1716E+00  0.1716E+00
    -14.672  0.2486E-01  0.2486E-01  0.1742E+00  0.1742E+00
    -14.568  0.3994E-01  0.3994E-01  0.1784E+00  0.1784E+00
    -14.464  0.2370E-01  0.2370E-01  0.1808E+00  0.1808E+00
    -14.360  0.2495E-01  0.2495E-01  0.1834E+00  0.1834E+00
    -14.256  0.4192E-01  0.4192E-01  0.1878E+00  0.1878E+00
    -14.152  0.3087E-01  0.3087E-01  0.1910E+00  0.1910E+00
    -14.049  0.2282E-01  0.2282E-01  0.1933E+00  0.1933E+00
    -13.945  0.1812E-01  0.1812E-01  0.1952E+00  0.1952E+00
    -13.841  0.1052E-01  0.1052E-01  0.1963E+00  0.1963E+00
    -13.737  0.1944E-01  0.1944E-01  0.1983E+00  0.1983E+00
    -13.633  0.2185E-01  0.2185E-01  0.2006E+00  0.2006E+00
    -13.529  0.2932E-01  0.2932E-01  0.2036E+00  0.2036E+00
    -13.425  0.2759E-01  0.2759E-01  0.2065E+00  0.2065E+00
    -13.321  0.4351E-01  0.4351E-01  0.2110E+00  0.2110E+00
    -13.218  0.9242E-02  0.9242E-02  0.2120E+00  0.2120E+00
    -13.114  0.2341E-01  0.2341E-01  0.2144E+00  0.2144E+00
    -13.010  0.5586E-02  0.5586E-02  0.2150E+00  0.2150E+00
    -12.906  0.8604E-02  0.8604E-02  0.2159E+00  0.2159E+00
    -12.802  0.3091E-01  0.3091E-01  0.2191E+00  0.2191E+00
    -12.698  0.1990E-01  0.1990E-01  0.2212E+00  0.2212E+00
    -12.594  0.4027E-01  0.4027E-01  0.2254E+00  0.2254E+00
    -12.490  0.4807E-01  0.4807E-01  0.2303E+00  0.2303E+00
    -12.387  0.3949E-01  0.3949E-01  0.2344E+00  0.2344E+00
    -12.283  0.3186E-01  0.3186E-01  0.2378E+00  0.2378E+00
    -12.179  0.1338E-01  0.1338E-01  0.2391E+00  0.2391E+00
    -12.075  0.4563E-02  0.4563E-02  0.2396E+00  0.2396E+00
    -11.971  0.3561E-01  0.3561E-01  0.2433E+00  0.2433E+00
    -11.867  0.4601E-01  0.4601E-01  0.2481E+00  0.2481E+00
    -11.763  0.2848E-01  0.2848E-01  0.2511E+00  0.2511E+00
    -11.659  0.1314E-01  0.1314E-01  0.2524E+00  0.2524E+00
    -11.556  0.4272E-01  0.4272E-01  0.2569E+00  0.2569E+00
    -11.452  0.3567E-01  0.3567E-01  0.2606E+00  0.2606E+00
    -11.348  0.4634E-01  0.4634E-01  0.2654E+00  0.2654E+00
    -11.244  0.2882E-01  0.2882E-01  0.2684E+00  0.2684E+00
    -11.140  0.3229E-01  0.3229E-01  0.2717E+00  0.2717E+00
    -11.036  0.2979E-01  0.2979E-01  0.2748E+00  0.2748E+00
    -10.932  0.4034E-01  0.4034E-01  0.2790E+00  0.2790E+00
    -10.828  0.3932E-01  0.3932E-01  0.2831E+00  0.2831E+00
    -10.725  0.3720E-01  0.3720E-01  0.2870E+00  0.2870E+00
    -10.621  0.6020E-02  0.6020E-02  0.2876E+00  0.2876E+00
    -10.517  0.2013E-01  0.2013E-01  0.2897E+00  0.2897E+00
    -10.413  0.1207E-01  0.1207E-01  0.2909E+00  0.2909E+00
    -10.309  0.2216E-01  0.2216E-01  0.2932E+00  0.2932E+00
    -10.205  0.4940E-01  0.4940E-01  0.2984E+00  0.2984E+00
    -10.101  0.6184E-01  0.6184E-01  0.3048E+00  0.3048E+00
     -9.998  0.5510E-01  0.5510E-01  0.3105E+00  0.3105E+00
     -9.894  0.4356E-01  0.4356E-01  0.3150E+00  0.3150E+00
     -9.790  0.7513E-01  0.7513E-01  0.3228E+00  0.3228E+00
     -9.686  0.4960E-01  0.4960E-01  0.3280E+00  0.3280E+00
     -9.582  0.3930E-01  0.3930E-01  0.3321E+00  0.3321E+00
     -9.478  0.6254E-01  0.6254E-01  0.3386E+00  0.3386E+00
     -9.374  0.6399E-01  0.6399E-01  0.3452E+00  0.3452E+00
     -9.270  0.5644E-01  0.5644E-01  0.3511E+00  0.3511E+00
     -9.167  0.5388E-01  0.5388E-01  0.3567E+00  0.3567E+00
     -9.063  0.6043E-01  0.6043E-01  0.3629E+00  0.3629E+00
     -8.959  0.9200E-01  0.9200E-01  0.3725E+00  0.3725E+00
     -8.855  0.7642E-01  0.7642E-01  0.3804E+00  0.3804E+00
     -8.751  0.9143E-01  0.9143E-01  0.3899E+00  0.3899E+00
     -8.647  0.5296E-01  0.5296E-01  0.3954E+00  0.3954E+00
     -8.543  0.7641E-01  0.7641E-01  0.4034E+00  0.4034E+00
     -8.439  0.5041E-01  0.5041E-01  0.4086E+00  0.4086E+00
     -8.336  0.6590E-01  0.6590E-01  0.4155E+00  0.4155E+00
     -8.232  0.7652E-01  0.7652E-01  0.4234E+00  0.4234E+00
     -8.128  0.8049E-01  0.8049E-01  0.4318E+00  0.4318E+00
     -8.024  0.4248E-01  0.4248E-01  0.4362E+00  0.4362E+00
     -7.920  0.5976E-01  0.5976E-01  0.4424E+00  0.4424E+00
     -7.816  0.4557E-01  0.4557E-01  0.4471E+00  0.4471E+00
     -7.712  0.7369E-01  0.7369E-01  0.4548E+00  0.4548E+00
     -7.608  0.2449E-01  0.2449E-01  0.4573E+00  0.4573E+00
     -7.505  0.3357E-01  0.3357E-01  0.4608E+00  0.4608E+00
     -7.401  0.4266E-01  0.4266E-01  0.4652E+00  0.4652E+00
     -7.297  0.7313E-01  0.7313E-01  0.4728E+00  0.4728E+00
     -7.193  0.7835E-01  0.7835E-01  0.4810E+00  0.4810E+00
     -7.089  0.4978E-01  0.4978E-01  0.4861E+00  0.4861E+00
     -6.985  0.4840E-01  0.4840E-01  0.4912E+00  0.4912E+00
     -6.881  0.4641E-01  0.4641E-01  0.4960E+00  0.4960E+00
     -6.777  0.3219E-01  0.3219E-01  0.4993E+00  0.4993E+00
     -6.674  0.3562E-01  0.3562E-01  0.5030E+00  0.5030E+00
     -6.570  0.3503E-01  0.3503E-01  0.5067E+00  0.5067E+00
     -6.466  0.3729E-01  0.3729E-01  0.5105E+00  0.5105E+00
     -6.362  0.3282E-01  0.3282E-01  0.5140E+00  0.5140E+00
     -6.258  0.5581E-01  0.5581E-01  0.5198E+00  0.5198E+00
     -6.154  0.7409E-01  0.7409E-01  0.5274E+00  0.5274E+00
     -6.050  0.4389E-01  0.4389E-01  0.5320E+00  0.5320E+00
     -5.947  0.3839E-01  0.3839E-01  0.5360E+00  0.5360E+00
     -5.843  0.4693E-01  0.4693E-01  0.5409E+00  0.5409E+00
     -5.739  0.7020E-01  0.7020E-01  0.5482E+00  0.5482E+00
     -5.635  0.3758E-01  0.3758E-01  0.5521E+00  0.5521E+00
     -5.531  0.2217E-01  0.2217E-01  0.5544E+00  0.5544E+00
     -5.427  0.1339E-01  0.1339E-01  0.5558E+00  0.5558E+00
     -5.323  0.8663E-02  0.8663E-02  0.5567E+00  0.5567E+00
     -5.219  0.1072E-01  0.1072E-01  0.5578E+00  0.5578E+00
     -5.116  0.4369E-01  0.4369E-01  0.5623E+00  0.5623E+00
     -5.012  0.6711E-01  0.6711E-01  0.5693E+00  0.5693E+00
     -4.908  0.5905E-01  0.5905E-01  0.5754E+00  0.5754E+00
     -4.804  0.5206E-01  0.5206E-01  0.5808E+00  0.5808E+00
     -4.700  0.3237E-01  0.3237E-01  0.5842E+00  0.5842E+00
     -4.596  0.4557E-01  0.4557E-01  0.5889E+00  0.5889E+00
     -4.492  0.1831E-01  0.1831E-01  0.5908E+00  0.5908E+00
     -4.388  0.3671E-02  0.3671E-02  0.5912E+00  0.5912E+00
     -4.285  0.3531E-01  0.3531E-01  0.5949E+00  0.5949E+00
     -4.181  0.2080E-01  0.2080E-01  0.5970E+00  0.5970E+00
     -4.077  0.2593E-01  0.2593E-01  0.5997E+00  0.5997E+00
     -3.973  0.3307E-01  0.3307E-01  0.6032E+00  0.6032E+00
     -3.869  0.2456E-01  0.2456E-01  0.6057E+00  0.6057E+00
     -3.765  0.9194E-02  0.9194E-02  0.6067E+00  0.6067E+00
     -3.661  0.2505E-04  0.2505E-04  0.6067E+00  0.6067E+00
     -3.557  0.1646E-02  0.1646E-02  0.6068E+00  0.6068E+00
     -3.454  0.6331E-02  0.6331E-02  0.6075E+00  0.6075E+00
     -3.350  0.1092E-01  0.1092E-01  0.6086E+00  0.6086E+00
     -3.246  0.1545E-01  0.1545E-01  0.6102E+00  0.6102E+00
     -3.142  0.1275E-01  0.1275E-01  0.6116E+00  0.6116E+00
     -3.038  0.1040E-02  0.1040E-02  0.6117E+00  0.6117E+00
     -2.934  0.1767E-06  0.1767E-06  0.6117E+00  0.6117E+00
     -2.830  0.7241E-06  0.7241E-06  0.6117E+00  0.6117E+00
     -2.726  0.2634E-02  0.2634E-02  0.6119E+00  0.6119E+00
     -2.623  0.1301E-01  0.1301E-01  0.6133E+00  0.6133E+00
     -2.519  0.4006E-03  0.4006E-03  0.6133E+00  0.6133E+00
     -2.415  0.8444E-04  0.8444E-04  0.6133E+00  0.6133E+00
     -2.311  0.1031E-01  0.1031E-01  0.6144E+00  0.6144E+00
     -2.207  0.5641E-02  0.5641E-02  0.6150E+00  0.6150E+00
     -2.103  0.7320E-05  0.7320E-05  0.6150E+00  0.6150E+00
     -1.999  0.5591E-03  0.5591E-03  0.6151E+00  0.6151E+00
     -1.895  0.8414E-02  0.8414E-02  0.6159E+00  0.6159E+00
     -1.792  0.1187E-01  0.1187E-01  0.6172E+00  0.6172E+00
     -1.688  0.1685E-01  0.1685E-01  0.6189E+00  0.6189E+00
     -1.584  0.5907E-02  0.5907E-02  0.6195E+00  0.6195E+00
     -1.480  0.4572E-02  0.4572E-02  0.6200E+00  0.6200E+00
     -1.376  0.1169E-01  0.1169E-01  0.6212E+00  0.6212E+00
     -1.272  0.3057E-01  0.3057E-01  0.6244E+00  0.6244E+00
     -1.168  0.5826E-02  0.5826E-02  0.6250E+00  0.6250E+00
     -1.065  0.2753E-02  0.2753E-02  0.6253E+00  0.6253E+00
     -0.961  0.2453E-01  0.2453E-01  0.6278E+00  0.6278E+00
     -0.857  0.5995E-01  0.5995E-01  0.6341E+00  0.6341E+00
     -0.753  0.2332E-01  0.2332E-01  0.6365E+00  0.6365E+00
     -0.649  0.3079E-01  0.3079E-01  0.6397E+00  0.6397E+00
     -0.545  0.3351E-01  0.3351E-01  0.6432E+00  0.6432E+00
     -0.441  0.2333E-01  0.2333E-01  0.6456E+00  0.6456E+00
     -0.337  0.1674E-01  0.1674E-01  0.6473E+00  0.6473E+00
     -0.234  0.1648E-01  0.1648E-01  0.6490E+00  0.6490E+00
     -0.130  0.3820E-01  0.3820E-01  0.6530E+00  0.6530E+00
     -0.026  0.2946E-01  0.2946E-01  0.6561E+00  0.6561E+00
      0.078  0.3388E-01  0.3388E-01  0.6596E+00  0.6596E+00
      0.182  0.4078E-01  0.4078E-01  0.6638E+00  0.6638E+00
      0.286  0.1664E-01  0.1664E-01  0.6655E+00  0.6655E+00
      0.390  0.1058E-01  0.1058E-01  0.6666E+00  0.6666E+00
      0.494  0.1024E-01  0.1024E-01  0.6677E+00  0.6677E+00
      0.597  0.1789E-01  0.1789E-01  0.6696E+00  0.6696E+00
      0.701  0.2114E-01  0.2114E-01  0.6718E+00  0.6718E+00
      0.805  0.3571E-01  0.3571E-01  0.6755E+00  0.6755E+00
      0.909  0.1640E-01  0.1640E-01  0.6772E+00  0.6772E+00
      1.013  0.3815E-01  0.3815E-01  0.6811E+00  0.6811E+00
      1.117  0.3145E-01  0.3145E-01  0.6844E+00  0.6844E+00
      1.221  0.1994E-01  0.1994E-01  0.6865E+00  0.6865E+00
      1.325  0.3474E-01  0.3474E-01  0.6901E+00  0.6901E+00
      1.428  0.5725E-01  0.5725E-01  0.6960E+00  0.6960E+00
      1.532  0.5566E-01  0.5566E-01  0.7018E+00  0.7018E+00
      1.636  0.4373E-01  0.4373E-01  0.7064E+00  0.7064E+00
      1.740  0.3793E-01  0.3793E-01  0.7103E+00  0.7103E+00
      1.844  0.2675E-01  0.2675E-01  0.7131E+00  0.7131E+00
      1.948  0.5064E-01  0.5064E-01  0.7183E+00  0.7183E+00
      2.052  0.6372E-01  0.6372E-01  0.7250E+00  0.7250E+00
      2.156  0.4540E-01  0.4540E-01  0.7297E+00  0.7297E+00
      2.259  0.6912E-01  0.6912E-01  0.7368E+00  0.7368E+00
      2.363  0.6447E-01  0.6447E-01  0.7435E+00  0.7435E+00
      2.467  0.8806E-01  0.8806E-01  0.7527E+00  0.7527E+00
      2.571  0.1709E-01  0.1709E-01  0.7545E+00  0.7545E+00
      2.675  0.2781E-01  0.2781E-01  0.7574E+00  0.7574E+00
      2.779  0.6411E-01  0.6411E-01  0.7640E+00  0.7640E+00
      2.883  0.1179E+00  0.1179E+00  0.7763E+00  0.7763E+00
      2.986  0.1468E+00  0.1468E+00  0.7915E+00  0.7915E+00
      3.090  0.5222E-01  0.5222E-01  0.7969E+00  0.7969E+00
      3.194  0.6876E-01  0.6876E-01  0.8041E+00  0.8041E+00
      3.298  0.6916E-01  0.6916E-01  0.8113E+00  0.8113E+00
      3.402  0.3019E-01  0.3019E-01  0.8144E+00  0.8144E+00
      3.506  0.8375E-01  0.8375E-01  0.8231E+00  0.8231E+00
      3.610  0.6878E-01  0.6878E-01  0.8302E+00  0.8302E+00
      3.714  0.3915E-01  0.3915E-01  0.8343E+00  0.8343E+00
      3.817  0.8619E-01  0.8619E-01  0.8433E+00  0.8433E+00
      3.921  0.8636E-01  0.8636E-01  0.8522E+00  0.8522E+00
      4.025  0.7730E-01  0.7730E-01  0.8603E+00  0.8603E+00
      4.129  0.4562E-01  0.4563E-01  0.8650E+00  0.8650E+00
      4.233  0.5847E-01  0.5793E-01  0.8711E+00  0.8710E+00
      4.337  0.9534E-01  0.9289E-01  0.8810E+00  0.8807E+00
      4.441  0.2244E-01  0.2542E-01  0.8833E+00  0.8833E+00
      4.545  0.2781E-03  0.2770E-03  0.8833E+00  0.8833E+00
      4.648  0.6158E-08  0.3588E-08  0.8833E+00  0.8833E+00
      4.752  0.3830E-16  0.1425E-16  0.8833E+00  0.8833E+00
      4.856  0.0000E+00  0.0000E+00  0.8833E+00  0.8833E+00
      4.960  0.0000E+00  0.0000E+00  0.8833E+00  0.8833E+00
      5.064  0.0000E+00  0.0000E+00  0.8833E+00  0.8833E+00
      5.168  0.0000E+00  0.0000E+00  0.8833E+00  0.8833E+00
      5.272  0.0000E+00  0.0000E+00  0.8833E+00  0.8833E+00
      5.376  0.0000E+00  0.0000E+00  0.8833E+00  0.8833E+00
      5.479  0.0000E+00  0.0000E+00  0.8833E+00  0.8833E+00
      5.583  0.0000E+00  0.0000E+00  0.8833E+00  0.8833E+00
      5.687  0.0000E+00  0.0000E+00  0.8833E+00  0.8833E+00
      5.791  0.0000E+00  0.0000E+00  0.8833E+00  0.8833E+00
