       N       E                     dE             d eps       ncg     rms          rms(c)
DAV:   1     0.326264205281E+04    0.32626E+04   -0.13768E+05  4590   0.105E+03
DAV:   2    -0.251518785037E+03   -0.35142E+04   -0.33119E+04  6410   0.258E+02
DAV:   3    -0.864191309160E+03   -0.61267E+03   -0.60995E+03  5310   0.111E+02
DAV:   4    -0.886222224195E+03   -0.22031E+02   -0.21952E+02  5400   0.265E+01
DAV:   5    -0.886847978297E+03   -0.62575E+00   -0.62500E+00  6020   0.380E+00    0.518E+01
DAV:   6    -0.869560670055E+03    0.17287E+02   -0.21832E+01  5140   0.735E+00    0.337E+01
DAV:   7    -0.847395247220E+03    0.22165E+02   -0.32702E+01  5050   0.865E+00    0.204E+01
DAV:   8    -0.842603336570E+03    0.47919E+01   -0.24093E+01  5160   0.737E+00    0.822E+00
DAV:   9    -0.842497444444E+03    0.10589E+00   -0.11046E+00  5060   0.203E+00    0.328E+00
DAV:  10    -0.842406665243E+03    0.90779E-01   -0.45466E-01  4890   0.121E+00    0.976E-01
DAV:  11    -0.842395395715E+03    0.11270E-01   -0.90934E-02  4840   0.542E-01    0.340E-01
DAV:  12    -0.842393409845E+03    0.19859E-02   -0.90633E-03  5330   0.179E-01    0.180E-01
DAV:  13    -0.842392987388E+03    0.42246E-03   -0.27232E-03  5220   0.113E-01    0.823E-02
DAV:  14    -0.842393114647E+03   -0.12726E-03   -0.62164E-04  5110   0.494E-02    0.534E-02
DAV:  15    -0.842393146412E+03   -0.31764E-04   -0.75708E-05  5010   0.183E-02    0.291E-02
DAV:  16    -0.842393159675E+03   -0.13264E-04   -0.30897E-05  4000   0.115E-02    0.105E-02
DAV:  17    -0.842393159515E+03    0.16001E-06   -0.59859E-06  3550   0.594E-03
   1 F= -.85015626E+03 E0= -.85015626E+03  d E =-.850156E+03  mag=     0.0001
       N       E                     dE             d eps       ncg     rms          rms(c)
DAV:   1    -0.842393134540E+03    0.25136E-04   -0.49261E-04  4500   0.448E-02    0.584E-03
DAV:   2    -0.842393134915E+03   -0.37486E-06   -0.96902E-06  2820   0.630E-03
   2 F= -.85015623E+03 E0= -.85015623E+03  d E =0.220062E-04  mag=    -0.0000
       N       E                     dE             d eps       ncg     rms          rms(c)
DAV:   1    -0.842393073280E+03    0.61260E-04   -0.10608E-03  4480   0.631E-02    0.105E-02
DAV:   2    -0.842393073530E+03   -0.24954E-06   -0.16754E-05  3380   0.785E-03
   3 F= -.85015618E+03 E0= -.85015618E+03  d E =0.568070E-04  mag=     0.0000
       N       E                     dE             d eps       ncg     rms          rms(c)
DAV:   1    -0.842392992863E+03    0.80417E-04   -0.20862E-03  4420   0.872E-02    0.143E-02
DAV:   2    -0.842392993379E+03   -0.51663E-06   -0.29714E-05  4160   0.103E-02
   4 F= -.85015610E+03 E0= -.85015610E+03  d E =0.739347E-04  mag=    -0.0000
       N       E                     dE             d eps       ncg     rms          rms(c)
DAV:   1    -0.842392879635E+03    0.11323E-03   -0.37231E-03  4380   0.117E-01    0.194E-02
DAV:   2    -0.842392880437E+03   -0.80237E-06   -0.52622E-05  4590   0.136E-02
   5 F= -.85015600E+03 E0= -.85015600E+03  d E =0.105206E-03  mag=     0.0000
