 vasp.6.4.2 20Jul23 (build Aug 26 2025 15:10:52) complex                        
  
 executed on             LinuxIFC date 2025.12.02  12:14:44
 running   50 mpi-ranks, on    1 nodes
 each image running on   10 cores
 distrk:  each k-point on    5 cores,    2 groups
 distr:  one band on NCORE=   1 cores,    5 groups


--------------------------------------------------------------------------------------------------------


 INCAR:
   ENCUT = 520
   EDIFF = 1E-5
   NELM = 200
   ALGO = Normal
   ISMEAR = 0
   SIGMA = 0.05
   LASPH = .TRUE.
   ADDGRID = .TRUE.
   LREAL = Auto
   ISYM = 0
   ISPIN = 2
   MAGMOM = 97*0.6
   IMIX = 4
   AMIX = 0.20
   BMIX = 1E-4
   AMIX_MAG = 0.80
   BMIX_MAG = 1E-4
   IBRION = 3
   POTIM = 0
   IMAGES = 5
   SPRING = -5
   LCLIMB = .TRUE.
   IOPT = 7
   ISIF = 2
   EDIFFG = -0.03
   NSW = 300
   IVDW = 12
   ISTART = 0
   ICHARG = 2
   LWAVE = .FALSE.
   LCHARG = .FALSE.
   KPAR = 2

 POTCAR:    PAW_PBE C 08Apr2002                   
 POTCAR:    PAW_PBE H 15Jun2001                   
 POTCAR:    PAW_PBE N 08Apr2002                   
 POTCAR:    PAW_PBE O 08Apr2002                   
 -----------------------------------------------------------------------------
|                                                                             |
|           W    W    AA    RRRRR   N    N  II  N    N   GGGG   !!!           |
|           W    W   A  A   R    R  NN   N  II  NN   N  G    G  !!!           |
|           W    W  A    A  R    R  N N  N  II  N N  N  G       !!!           |
|           W WW W  AAAAAA  RRRRR   N  N N  II  N  N N  G  GGG   !            |
|           WW  WW  A    A  R   R   N   NN  II  N   NN  G    G                |
|           W    W  A    A  R    R  N    N  II  N    N   GGGG   !!!           |
|                                                                             |
|     For optimal performance we recommend to set                             |
|       NCORE = 2 up to number-of-cores-per-socket                            |
|     NCORE specifies how many cores store one orbital (NPAR=cpu/NCORE).      |
|     This setting can greatly improve the performance of VASP for DFT.       |
|     The default, NCORE=1 might be grossly inefficient on modern             |
|     multi-core architectures or massively parallel machines. Do your        |
|     own testing! More info at https://www.vasp.at/wiki/index.php/NCORE      |
|     Unfortunately you need to use the default for GW and RPA                |
|     calculations (for HF NCORE is supported but not extensively tested      |
|     yet).                                                                   |
|                                                                             |
 -----------------------------------------------------------------------------

 POTCAR:    PAW_PBE C 08Apr2002                   
   SHA256 =  253f7b50bb8d59471dbedb8285d89021f4a42ed1a2c5d38a03a736e69125dd95 C/POTCAR              
   COPYR  = (c) Copyright 08Apr2002 Georg Kresse                                                    
   COPYR  = This file is part of the software VASP. Any use, copying, and all other rights are regul
   COPYR  = If you do not have a valid VASP license, you may not use, copy or distribute this file. 
   VRHFIN =C: s2p2                                                                                  
   LEXCH  = PE                                                                                      
   EATOM  =   147.1560 eV,   10.8157 Ry                                                             
                                                                                                    
   TITEL  = PAW_PBE C 08Apr2002                                                                     
   LULTRA =        F    use ultrasoft PP ?                                                          
   IUNSCR =        1    unscreen: 0-lin 1-nonlin 2-no                                               
   RPACOR =    1.200    partial core radius                                                         
   POMASS =   12.011; ZVAL   =    4.000    mass and valenz                                          
   RCORE  =    1.500    outmost cutoff radius                                                       
   RWIGS  =    1.630; RWIGS  =    0.863    wigner-seitz radius (au A)                               
   ENMAX  =  400.000; ENMIN  =  300.000 eV                                                          
   ICORE  =        2    local potential                                                             
   LCOR   =        T    correct aug charges                                                         
   LPAW   =        T    paw PP                                                                      
   EAUG   =  644.873                                                                                
   DEXC   =    0.000                                                                                
   RMAX   =    1.529    core radius for proj-oper                                                   
   RAUG   =    1.300    factor for augmentation sphere                                              
   RDEP   =    1.501    radius for radial grids                                                     
   RDEPT  =    1.300    core radius for aug-charge                                                  
                                                                                                    
   Atomic configuration                                                                             
    4 entries                                                                                       
     n  l   j            E        occ.                                                              
     1  0  0.50      -273.3789   2.0000                                                             
     2  0  0.50       -13.7508   2.0000                                                             
     2  1  0.50        -5.2854   2.0000                                                             
     3  2  1.50        -5.4423   0.0000                                                             
   Description                                                                                      
     l       E           TYP  RCUT    TYP  RCUT                                                     
     0    -13.7508458     23  1.200                                                                 
     0     -8.2022199     23  1.200                                                                 
     1     -5.2854383     23  1.500                                                                 
     1     34.0145650     23  1.500                                                                 
     2     -5.4423304      7  1.500                                                                 
  local pseudopotential read in
  partial core-charges read in
  partial kinetic energy density read in
  atomic valenz-charges read in
  non local Contribution for L=           0  read in
    real space projection operators read in
  non local Contribution for L=           0  read in
    real space projection operators read in
  non local Contribution for L=           1  read in
    real space projection operators read in
  non local Contribution for L=           1  read in
    real space projection operators read in
    PAW grid and wavefunctions read in
 
   number of l-projection  operators is LMAX  =           4
   number of lm-projection operators is LMMAX =           8
 
 POTCAR:    PAW_PBE H 15Jun2001                   
   SHA256 =  030f79b5d3ab3cf0e668861823c8fb652ff669f3e15e46930bd03bfd63a607b6 H/POTCAR              
   COPYR  = (c) Copyright 15Jun2001 Georg Kresse                                                    
   COPYR  = This file is part of the software VASP. Any use, copying, and all other rights are regul
   COPYR  = If you do not have a valid VASP license, you may not use, copy or distribute this file. 
   VRHFIN =H: ultrasoft test                                                                        
   LEXCH  = PE                                                                                      
   EATOM  =    12.4884 eV,    0.9179 Ry                                                             
                                                                                                    
   TITEL  = PAW_PBE H 15Jun2001                                                                     
   LULTRA =        F    use ultrasoft PP ?                                                          
   IUNSCR =        0    unscreen: 0-lin 1-nonlin 2-no                                               
   RPACOR =    0.000    partial core radius                                                         
   POMASS =    1.000; ZVAL   =    1.000    mass and valenz                                          
   RCORE  =    1.100    outmost cutoff radius                                                       
   RWIGS  =    0.700; RWIGS  =    0.370    wigner-seitz radius (au A)                               
   ENMAX  =  250.000; ENMIN  =  200.000 eV                                                          
   RCLOC  =    0.701    cutoff for local pot                                                        
   LCOR   =        T    correct aug charges                                                         
   LPAW   =        T    paw PP                                                                      
   EAUG   =  400.000                                                                                
   RMAX   =    1.123    core radius for proj-oper                                                   
   RAUG   =    1.200    factor for augmentation sphere                                              
   RDEP   =    1.112    radius for radial grids                                                     
   RDEPT  =    0.926    core radius for aug-charge                                                  
                                                                                                    
   Atomic configuration                                                                             
    2 entries                                                                                       
     n  l   j            E        occ.                                                              
     1  0  0.50        -6.4927   1.0000                                                             
     2  1  0.50        -3.4015   0.0000                                                             
   Description                                                                                      
     l       E           TYP  RCUT    TYP  RCUT                                                     
     0     -6.4927494     23  1.100                                                                 
     0      6.8029130     23  1.100                                                                 
     1     -4.0817478     23  1.100                                                                 
  local pseudopotential read in
  atomic valenz-charges read in
  non local Contribution for L=           0  read in
    real space projection operators read in
  non local Contribution for L=           0  read in
    real space projection operators read in
  non local Contribution for L=           1  read in
    real space projection operators read in
    PAW grid and wavefunctions read in
 
   number of l-projection  operators is LMAX  =           3
   number of lm-projection operators is LMMAX =           5
 
 POTCAR:    PAW_PBE N 08Apr2002                   
   SHA256 =  e053789ff3a61a86a1b75d8a110fcc91f86041011e7b0817c7c99e4e8a6349d7 N/POTCAR              
   COPYR  = (c) Copyright 08Apr2002 Georg Kresse                                                    
   COPYR  = This file is part of the software VASP. Any use, copying, and all other rights are regul
   COPYR  = If you do not have a valid VASP license, you may not use, copy or distribute this file. 
   VRHFIN =N: s2p3                                                                                  
   LEXCH  = PE                                                                                      
   EATOM  =   264.5486 eV,   19.4438 Ry                                                             
                                                                                                    
   TITEL  = PAW_PBE N 08Apr2002                                                                     
   LULTRA =        F    use ultrasoft PP ?                                                          
   IUNSCR =        1    unscreen: 0-lin 1-nonlin 2-no                                               
   RPACOR =    1.200    partial core radius                                                         
   POMASS =   14.001; ZVAL   =    5.000    mass and valenz                                          
   RCORE  =    1.500    outmost cutoff radius                                                       
   RWIGS  =    1.400; RWIGS  =    0.741    wigner-seitz radius (au A)                               
   ENMAX  =  400.000; ENMIN  =  300.000 eV                                                          
   ICORE  =        2    local potential                                                             
   LCOR   =        T    correct aug charges                                                         
   LPAW   =        T    paw PP                                                                      
   EAUG   =  627.112                                                                                
   DEXC   =    0.000                                                                                
   RMAX   =    1.529    core radius for proj-oper                                                   
   RAUG   =    1.300    factor for augmentation sphere                                              
   RDEP   =    1.514    radius for radial grids                                                     
   RDEPT  =    1.338    core radius for aug-charge                                                  
                                                                                                    
   Atomic configuration                                                                             
    4 entries                                                                                       
     n  l   j            E        occ.                                                              
     1  0  0.50      -384.7179   2.0000                                                             
     2  0  0.50       -18.5828   2.0000                                                             
     2  1  0.50        -7.0898   3.0000                                                             
     3  2  1.50        -6.8029   0.0000                                                             
   Description                                                                                      
     l       E           TYP  RCUT    TYP  RCUT                                                     
     0    -18.5828119     23  1.200                                                                 
     0    -13.5018863     23  1.200                                                                 
     1     -7.0897853     23  1.500                                                                 
     1      9.5240782     23  1.500                                                                 
     2     -6.8029130      7  1.500                                                                 
  local pseudopotential read in
  partial core-charges read in
  partial kinetic energy density read in
  atomic valenz-charges read in
  non local Contribution for L=           0  read in
    real space projection operators read in
  non local Contribution for L=           0  read in
    real space projection operators read in
  non local Contribution for L=           1  read in
    real space projection operators read in
  non local Contribution for L=           1  read in
    real space projection operators read in
    PAW grid and wavefunctions read in
 
   number of l-projection  operators is LMAX  =           4
   number of lm-projection operators is LMMAX =           8
 
 POTCAR:    PAW_PBE O 08Apr2002                   
   SHA256 =  818f92134a0a090dccd8ba1447fa70422a3b330e708bb4f08108d8ae51209ddf O/POTCAR              
   COPYR  = (c) Copyright 08Apr2002 Georg Kresse                                                    
   COPYR  = This file is part of the software VASP. Any use, copying, and all other rights are regul
   COPYR  = If you do not have a valid VASP license, you may not use, copy or distribute this file. 
   VRHFIN =O: s2p4                                                                                  
   LEXCH  = PE                                                                                      
   EATOM  =   432.3788 eV,   31.7789 Ry                                                             
                                                                                                    
   TITEL  = PAW_PBE O 08Apr2002                                                                     
   LULTRA =        F    use ultrasoft PP ?                                                          
   IUNSCR =        1    unscreen: 0-lin 1-nonlin 2-no                                               
   RPACOR =    1.200    partial core radius                                                         
   POMASS =   16.000; ZVAL   =    6.000    mass and valenz                                          
   RCORE  =    1.520    outmost cutoff radius                                                       
   RWIGS  =    1.550; RWIGS  =    0.820    wigner-seitz radius (au A)                               
   ENMAX  =  400.000; ENMIN  =  300.000 eV                                                          
   ICORE  =        2    local potential                                                             
   LCOR   =        T    correct aug charges                                                         
   LPAW   =        T    paw PP                                                                      
   EAUG   =  605.392                                                                                
   DEXC   =    0.000                                                                                
   RMAX   =    1.553    core radius for proj-oper                                                   
   RAUG   =    1.300    factor for augmentation sphere                                              
   RDEP   =    1.550    radius for radial grids                                                     
   RDEPT  =    1.329    core radius for aug-charge                                                  
                                                                                                    
   Atomic configuration                                                                             
    4 entries                                                                                       
     n  l   j            E        occ.                                                              
     1  0  0.50      -514.6923   2.0000                                                             
     2  0  0.50       -23.9615   2.0000                                                             
     2  1  0.50        -9.0305   4.0000                                                             
     3  2  1.50        -9.5241   0.0000                                                             
   Description                                                                                      
     l       E           TYP  RCUT    TYP  RCUT                                                     
     0    -23.9615318     23  1.200                                                                 
     0     -9.5240782     23  1.200                                                                 
     1     -9.0304911     23  1.520                                                                 
     1      8.1634956     23  1.520                                                                 
     2     -9.5240782      7  1.500                                                                 
  local pseudopotential read in
  partial core-charges read in
  partial kinetic energy density read in
  kinetic energy density of atom read in
  atomic valenz-charges read in
  non local Contribution for L=           0  read in
    real space projection operators read in
  non local Contribution for L=           0  read in
    real space projection operators read in
  non local Contribution for L=           1  read in
    real space projection operators read in
  non local Contribution for L=           1  read in
    real space projection operators read in
    PAW grid and wavefunctions read in
 
   number of l-projection  operators is LMAX  =           4
   number of lm-projection operators is LMMAX =           8
 
 Optimization of the real space projectors (new method)

 maximal supplied QI-value         = 25.13
 optimisation between [QCUT,QGAM] = [ 11.56, 23.12] = [ 37.43,149.72] Ry 
 Optimized for a Real-space Cutoff    1.04 Angstroem

   l    n(q)    QCUT    max X(q) W(low)/X(q) W(high)/X(q)  e(spline) 
   0      7    11.561   115.676    0.20E-03    0.60E-03    0.21E-06
   0      7    11.561    87.132    0.20E-03    0.59E-03    0.21E-06
   1      7    11.561     4.429    0.23E-03    0.35E-03    0.15E-06
   1      7    11.561     2.733    0.18E-03    0.25E-03    0.12E-06
 Optimization of the real space projectors (new method)

 maximal supplied QI-value         = 34.20
 optimisation between [QCUT,QGAM] = [ 11.63, 23.26] = [ 37.87,151.49] Ry 
 Optimized for a Real-space Cutoff    1.14 Angstroem

   l    n(q)    QCUT    max X(q) W(low)/X(q) W(high)/X(q)  e(spline) 
   0      8    11.629    19.460    0.27E-03    0.65E-03    0.17E-06
   0      8    11.629    12.209    0.25E-03    0.62E-03    0.16E-06
   1      7    11.629     4.655    0.29E-03    0.85E-04    0.19E-06
 Optimization of the real space projectors (new method)

 maximal supplied QI-value         = 25.13
 optimisation between [QCUT,QGAM] = [ 11.56, 23.12] = [ 37.43,149.72] Ry 
 Optimized for a Real-space Cutoff    1.25 Angstroem

   l    n(q)    QCUT    max X(q) W(low)/X(q) W(high)/X(q)  e(spline) 
   0      9    11.561    79.467    0.52E-04    0.16E-03    0.37E-06
   0      9    11.561    66.151    0.51E-04    0.16E-03    0.37E-06
   1      8    11.561    18.886    0.46E-03    0.28E-03    0.80E-06
   1      8    11.561    13.488    0.47E-03    0.29E-03    0.82E-06
 Optimization of the real space projectors (new method)

 maximal supplied QI-value         = 24.76
 optimisation between [QCUT,QGAM] = [ 11.64, 23.27] = [ 37.91,151.63] Ry 
 Optimized for a Real-space Cutoff    1.04 Angstroem

   l    n(q)    QCUT    max X(q) W(low)/X(q) W(high)/X(q)  e(spline) 
   0      7    11.635    20.381    0.14E-03    0.49E-03    0.18E-06
   0      7    11.635    15.268    0.16E-03    0.52E-03    0.19E-06
   1      7    11.635     5.964    0.30E-03    0.44E-03    0.22E-06
   1      7    11.635     5.382    0.27E-03    0.34E-03    0.19E-06
  PAW_PBE C 08Apr2002                   :
 energy of atom  1       EATOM= -147.1560
 kinetic energy error for atom=    0.0071 (will be added to EATOM!!)
  PAW_PBE H 15Jun2001                   :
 energy of atom  2       EATOM=  -12.4884
 kinetic energy error for atom=    0.0014 (will be added to EATOM!!)
  PAW_PBE N 08Apr2002                   :
 energy of atom  3       EATOM= -264.5486
 kinetic energy error for atom=    0.0125 (will be added to EATOM!!)
  PAW_PBE O 08Apr2002                   :
 energy of atom  4       EATOM= -432.3788
 kinetic energy error for atom=    0.0208 (will be added to EATOM!!)
 
 
 POSCAR: C    H    N    O
  positions in direct lattice
  velocities in cartesian coordinates
 exchange correlation table for  LEXCH =        8
   RHO(1)=    0.500       N(1)  =     2000
   RHO(2)=  100.500       N(2)  =     4000

 VTST: version 4.1, (05/19/21)

 CHAIN: initializing optimizer
 
 OPT: Using FIRE optimizer
 OPT: FIRE, Init
 OPT: FIRE, MAXMOVE       0.20000
 OPT: FIRE, TIMESTEP      0.10000
 OPT: FIRE, FTIMEMAX      1.00000
 OPT: FIRE, FTIMEINC      1.10000
 OPT: FIRE, FTIMEDEC      0.50000
 OPT: FIRE, FALPHADEC     0.99000
 OPT: FIRE, FALPHA        0.10000
 OPT: FIRE, FNMIN         5
 
 CHAIN: Read ICHAIN            0
 CHAIN: Running the NEB
 NEB:          SPRING     -5.000000
 NEB:          LCLIMB      T
 NEB:     LTANGENTOLD      F
 NEB:           LDNEB      F
 NEB:        LDNEBORG      F
 NEB:        LNEBCELL      F
 NEB:          EFIRST      0.000000
 NEB:           ELAST      0.000000
 
 POSCAR: C    H    N    O
  positions in direct lattice
  No initial velocities read in
 
 POSCAR: C    H    N    O
  positions in direct lattice
  No initial velocities read in
 
 POSCAR: C    H    N    O
  positions in direct lattice
  No initial velocities read in
 
 POSCAR: C    H    N    O
  positions in direct lattice
  No initial velocities read in
 


--------------------------------------------------------------------------------------------------------


 ion  position               nearest neighbor table
   1  0.999  0.999  0.501-  45 1.43  51 1.43  86 1.43
   2  0.999  0.142  0.501-  46 1.42  80 1.42  45 1.43
   3  0.999  0.285  0.500-  81 1.42  47 1.42  46 1.42
   4  0.999  0.428  0.501-  47 1.42  82 1.42  48 1.43
   5  0.999  0.571  0.501-  48 1.42  49 1.43  83 1.43
   6  1.000  0.714  0.501-  49 1.42  50 1.43  84 1.43
   7  1.000  0.857  0.501-  51 1.42  50 1.43  85 1.43
   8  0.143  0.000  0.501-  52 1.42  58 1.43  51 1.43
   9  0.142  0.142  0.500-  53 1.42  45 1.43  52 1.43
  10  0.141  0.285  0.500-  54 1.42  46 1.42  53 1.42
  11  0.141  0.428  0.500-  54 1.42  47 1.42  55 1.42
  12  0.142  0.571  0.500-  55 1.42  48 1.43  56 1.43
  13  0.143  0.714  0.501-  56 1.42  57 1.43  49 1.43
  14  0.143  0.857  0.501-  57 1.43  58 1.43  50 1.43
  15  0.286  0.000  0.501-  65 1.42  58 1.43  59 1.43
  16  0.286  0.143  0.500-  59 1.42  60 1.43  52 1.43
  17  0.285  0.287  0.498-  61 1.39  53 1.43  60 1.46
  18  0.282  0.427  0.497-  62 1.41  61 1.41  54 1.42
  19  0.285  0.570  0.499-  62 1.39  55 1.43  63 1.46
  20  0.286  0.714  0.500-  64 1.42  63 1.43  56 1.43
  21  0.286  0.857  0.501-  65 1.42  57 1.43  64 1.43
  22  0.429  0.000  0.500-  69 1.42  66 1.42  65 1.43
  23  0.429  0.144  0.500-  66 1.43  59 1.43  67 1.43
  24  0.428  0.284  0.499-  87 1.09  67 1.40  60 1.40
  25  0.428  0.716  0.499-  92 1.09  68 1.40  63 1.40
  26  0.429  0.857  0.500-  69 1.43  64 1.43  68 1.43
  27  0.571  1.000  0.500-  69 1.42  70 1.42  72 1.43
  28  0.571  0.143  0.500-  66 1.42  70 1.42  71 1.43
  29  0.575  0.289  0.499-  95 1.36  71 1.43  67 1.46
  30  0.575  0.857  0.499-  96 1.36  72 1.43  68 1.46
  31  0.714  0.000  0.500-  72 1.42  79 1.42  73 1.42
  32  0.714  0.143  0.500-  73 1.42  74 1.42  70 1.43
  33  0.714  0.285  0.500-  71 1.42  75 1.42  74 1.42
  34  0.710  0.425  0.498-  95 1.35  75 1.43  76 1.47
  35  0.716  0.572  0.490-  91 1.09  76 1.39  77 1.41
  36  0.716  0.715  0.490-  90 1.09  78 1.39  77 1.41
  37  0.710  0.857  0.498-  96 1.35  79 1.43  78 1.47
  38  0.856  0.999  0.500-  80 1.42  79 1.43  86 1.43
  39  0.856  0.143  0.500-  73 1.42  81 1.42  80 1.43
  40  0.857  0.285  0.500-  74 1.42  81 1.42  82 1.43
  41  0.856  0.428  0.500-  82 1.42  75 1.43  83 1.43
  42  0.856  0.570  0.500-  83 1.42  84 1.43  76 1.44
  43  0.857  0.714  0.499-  85 1.42  84 1.42  77 1.43
  44  0.856  0.857  0.500-  86 1.42  85 1.43  78 1.44
  45  0.047  0.095  0.501-   1 1.43   9 1.43   2 1.43
  46  0.046  0.237  0.500-   2 1.42  10 1.42   3 1.42
  47  0.046  0.380  0.500-   4 1.42  11 1.42   3 1.42
  48  0.047  0.524  0.501-   5 1.42  12 1.43   4 1.43
  49  0.047  0.667  0.501-   6 1.42   5 1.43  13 1.43
  50  0.047  0.809  0.501-   6 1.43   7 1.43  14 1.43
  51  0.047  0.952  0.501-   7 1.42   1 1.43   8 1.43
  52  0.190  0.095  0.500-   8 1.42   9 1.43  16 1.43
  53  0.189  0.238  0.500-   9 1.42  10 1.42  17 1.43
  54  0.187  0.379  0.499-  11 1.42  10 1.42  18 1.42
  55  0.189  0.523  0.500-  12 1.42  11 1.42  19 1.43
  56  0.190  0.667  0.500-  13 1.42  12 1.43  20 1.43
  57  0.191  0.810  0.501-  21 1.43  14 1.43  13 1.43
  58  0.191  0.952  0.501-  15 1.43  14 1.43   8 1.43
  59  0.334  0.096  0.500-  16 1.42  23 1.43  15 1.43
  60  0.335  0.239  0.499-  24 1.40  16 1.43  17 1.46
  61  0.329  0.379  0.497-  88 1.08  17 1.39  18 1.41
  62  0.329  0.521  0.497-  89 1.08  19 1.39  18 1.41
  63  0.335  0.667  0.499-  25 1.40  20 1.43  19 1.46
  64  0.334  0.809  0.500-  20 1.42  26 1.43  21 1.43
  65  0.333  0.952  0.501-  15 1.42  21 1.42  22 1.43
  66  0.476  0.095  0.500-  28 1.42  22 1.42  23 1.43
  67  0.477  0.239  0.500-  24 1.40  23 1.43  29 1.46
  68  0.477  0.809  0.500-  25 1.40  26 1.43  30 1.46
  69  0.476  0.952  0.500-  27 1.42  22 1.42  26 1.43
  70  0.619  0.095  0.500-  27 1.42  28 1.42  32 1.43
  71  0.619  0.238  0.500-  33 1.42  29 1.43  28 1.43
  72  0.619  0.953  0.500-  31 1.42  30 1.43  27 1.43
  73  0.762  0.095  0.500-  39 1.42  32 1.42  31 1.42
  74  0.762  0.238  0.500-  40 1.42  32 1.42  33 1.42
  75  0.761  0.380  0.499-  33 1.42  41 1.43  34 1.43
  76  0.760  0.523  0.496-  35 1.39  42 1.44  34 1.47
  77  0.761  0.666  0.493-  35 1.41  36 1.41  43 1.43
  78  0.759  0.808  0.496-  36 1.39  44 1.44  37 1.47
  79  0.761  0.952  0.499-  31 1.42  38 1.43  37 1.43
  80  0.904  0.094  0.500-  38 1.42   2 1.42  39 1.43
  81  0.904  0.238  0.500-   3 1.42  39 1.42  40 1.42
  82  0.904  0.381  0.501-  41 1.42   4 1.42  40 1.43
  83  0.904  0.524  0.501-  42 1.42   5 1.43  41 1.43
  84  0.904  0.666  0.500-  43 1.42  42 1.43   6 1.43
  85  0.904  0.809  0.500-  43 1.42  44 1.43   7 1.43
  86  0.904  0.952  0.501-  44 1.42   1 1.43  38 1.43
  87  0.466  0.356  0.499-  24 1.09
  88  0.401  0.419  0.495-  61 1.08
  89  0.401  0.554  0.496-  62 1.08
  90  0.644  0.681  0.480-  36 1.09
  91  0.644  0.534  0.480-  35 1.09
  92  0.466  0.681  0.499-  25 1.09
  93  0.552  0.607  0.535-  97 0.97
  94  0.553  0.518  0.535-  97 0.97
  95  0.620  0.379  0.498-  34 1.35  29 1.36
  96  0.620  0.812  0.498-  37 1.35  30 1.36
  97  0.513  0.542  0.535-  94 0.97  93 0.97
 

IMPORTANT INFORMATION: All symmetrisations will be switched off!
NOSYMM: (Re-)initialisation of all symmetry stuff for point group C_1.


----------------------------------------------------------------------------------------

                                     Primitive cell                                     

  volume of cell :    3874.8846

  direct lattice vectors                    reciprocal lattice vectors
    17.271038055  0.000000000  0.000000000     0.057900399  0.033428811  0.000000000
    -8.635519028 14.957157706  0.000000000     0.000000000  0.066857622  0.000000000
     0.000000000  0.000000000 15.000000000     0.000000000  0.000000000  0.066666667

  length of vectors
    17.271038055 17.271038055 15.000000000     0.066857622  0.066857622  0.066666667

  position of ions in fractional coordinates (direct lattice)
     0.999186721  0.999343422  0.501254185
     0.998905525  0.141987906  0.500610752
     0.998916323  0.285128807  0.500373987
     0.998913413  0.428243735  0.500731245
     0.999234021  0.571190062  0.501279042
     0.999584057  0.713934508  0.501257452
     0.999567409  0.856978916  0.501195621
     0.142817249  0.000107155  0.500826777
     0.142172642  0.142468716  0.500320170
     0.141094193  0.284539705  0.499745698
     0.141095965  0.427899589  0.499852070
     0.142180136  0.571027414  0.500467806
     0.142844165  0.714052936  0.500893584
     0.142872857  0.857103733  0.500982369
     0.285968628  0.000141153  0.500550292
     0.286063802  0.143131577  0.499899042
     0.285172451  0.286609526  0.498361576
     0.282424527  0.426881298  0.497308753
     0.285163988  0.569902113  0.498567614
     0.286073059  0.714257145  0.499969423
     0.285974707  0.857176310  0.500513043
     0.428815816  0.000073287  0.500359117
     0.429444855  0.143687124  0.500073869
     0.427985840  0.283743233  0.499282528
     0.428010394  0.715564372  0.499338260
     0.429444181  0.857076645  0.500055439
     0.571317897  0.999927589  0.500137871
     0.571335449  0.142763497  0.500195415
     0.574740014  0.288844484  0.499395685
     0.574736624  0.857268460  0.499298174
     0.714129206  0.000312843  0.499875550
     0.714000357  0.142679274  0.500369793
     0.714139102  0.285201571  0.499980178
     0.710016972  0.424504244  0.497948162
     0.715876798  0.571725530  0.489716071
     0.715858298  0.715468500  0.489714638
     0.710000971  0.856876061  0.497853967
     0.856208758  0.999387509  0.500171153
     0.856481519  0.142536131  0.500315093
     0.856500515  0.285335263  0.500401080
     0.856241763  0.428194730  0.500293449
     0.855771735  0.570488242  0.499869835
     0.856832437  0.714079098  0.498785128
     0.855728810  0.856590801  0.499876216
     0.046878399  0.094616307  0.500849297
     0.045964104  0.236966210  0.500336084
     0.045963752  0.380333788  0.500427444
     0.046901839  0.523589885  0.500921324
     0.047259971  0.666520504  0.501298399
     0.047199698  0.809267795  0.501189020
     0.047239323  0.952077227  0.501239209
     0.190412552  0.095109186  0.500330990
     0.189313207  0.237507472  0.499553616
     0.187367860  0.379362676  0.499139827
     0.189317439  0.523132105  0.499755809
     0.190430322  0.666631142  0.500399998
     0.190665503  0.809563726  0.500796018
     0.190667017  0.952449092  0.500767187
     0.334002585  0.095883853  0.500222868
     0.334556058  0.238600602  0.499141332
     0.328759304  0.379193975  0.496541611
     0.328724654  0.520901148  0.496689164
     0.334591966  0.667289633  0.499252975
     0.333992416  0.809442269  0.500223820
     0.333373277  0.952366214  0.500509558
     0.476360096  0.095297496  0.500236510
     0.477009941  0.239447012  0.499693716
     0.477009661  0.808890353  0.499666238
     0.476354610  0.952409415  0.500224237
     0.618709121  0.095031897  0.500305666
     0.619421396  0.238241771  0.499856184
     0.619424796  0.952565986  0.499728086
     0.761667622  0.095455895  0.500294452
     0.761656245  0.237570869  0.500346363
     0.760884167  0.380003362  0.499488021
     0.759510572  0.522834203  0.496247966
     0.761149394  0.666242146  0.492702178
     0.759470517  0.808000836  0.496259903
     0.760866242  0.952251207  0.499374285
     0.903690533  0.094320218  0.500423043
     0.903927997  0.237642233  0.500379331
     0.903708463  0.380727401  0.500565658
     0.903873586  0.523560677  0.500876352
     0.903813427  0.665950100  0.500266742
     0.903792672  0.809186616  0.500242320
     0.903835268  0.951630236  0.500839315
     0.466249275  0.356337177  0.498870442
     0.401050128  0.418763427  0.495401778
     0.401008551  0.553637869  0.495507558
     0.643944552  0.681093987  0.479745157
     0.643953997  0.534115552  0.479768744
     0.466283989  0.681251734  0.498952332
     0.551986997  0.606813191  0.535426835
     0.552781480  0.518071190  0.535252935
     0.619912448  0.379436444  0.498469818
     0.619903804  0.811843891  0.498404246
     0.512626636  0.542293868  0.534888000

  ion indices of the primitive-cell ions
   primitive index   ion index
                 1           1
                 2           2
                 3           3
                 4           4
                 5           5
                 6           6
                 7           7
                 8           8
                 9           9
                10          10
                11          11
                12          12
                13          13
                14          14
                15          15
                16          16
                17          17
                18          18
                19          19
                20          20
                21          21
                22          22
                23          23
                24          24
                25          25
                26          26
                27          27
                28          28
                29          29
                30          30
                31          31
                32          32
                33          33
                34          34
                35          35
                36          36
                37          37
                38          38
                39          39
                40          40
                41          41
                42          42
                43          43
                44          44
                45          45
                46          46
                47          47
                48          48
                49          49
                50          50
                51          51
                52          52
                53          53
                54          54
                55          55
                56          56
                57          57
                58          58
                59          59
                60          60
                61          61
                62          62
                63          63
                64          64
                65          65
                66          66
                67          67
                68          68
                69          69
                70          70
                71          71
                72          72
                73          73
                74          74
                75          75
                76          76
                77          77
                78          78
                79          79
                80          80
                81          81
                82          82
                83          83
                84          84
                85          85
                86          86
                87          87
                88          88
                89          89
                90          90
                91          91
                92          92
                93          93
                94          94
                95          95
                96          96
                97          97

----------------------------------------------------------------------------------------

 
 
 KPOINTS: Automatic mesh                          

Automatic generation of k-mesh.
 Grid dimensions read from file:
 generate k-points for:    2    2    1

 Generating k-lattice:

  Cartesian coordinates                     Fractional coordinates (reciprocal lattice)
     0.028950200  0.016714406  0.000000000     0.500000000  0.000000000  0.000000000
     0.000000000  0.033428811  0.000000000     0.000000000  0.500000000  0.000000000
     0.000000000  0.000000000  0.066666667     0.000000000  0.000000000  1.000000000

  Length of vectors
     0.033428811  0.033428811  0.066666667

  Shift w.r.t. Gamma in fractional coordinates (k-lattice)
     0.000000000  0.000000000  0.000000000

 
 Subroutine IBZKPT returns following result:
 ===========================================
 
 Found      4 irreducible k-points:
 
 Following reciprocal coordinates:
            Coordinates               Weight
  0.000000  0.000000  0.000000      1.000000
  0.500000  0.000000  0.000000      1.000000
  0.000000  0.500000  0.000000      1.000000
  0.500000  0.500000  0.000000      1.000000
 
 Following cartesian coordinates:
            Coordinates               Weight
  0.000000  0.000000  0.000000      1.000000
  0.028950  0.016714  0.000000      1.000000
  0.000000  0.033429  0.000000      1.000000
  0.028950  0.050143  0.000000      1.000000
 


--------------------------------------------------------------------------------------------------------




 Dimension of arrays:
   k-points           NKPTS =      4   k-points in BZ     NKDIM =      4   number of bands    NBANDS=    265
   number of dos      NEDOS =    301   number of ions     NIONS =     97
   non local maximal  LDIM  =      4   non local SUM 2l+1 LMDIM =      8
   total plane-waves  NPLWV = 774144
   max r-space proj   IRMAX =   1673   max aug-charges    IRDMAX=  20933
   dimension x,y,z NGX =    96 NGY =   96 NGZ =   84
   dimension x,y,z NGXF=   192 NGYF=  192 NGZF=  168
   support grid    NGXF=   384 NGYF=  384 NGZF=  336
   ions per type =              86   8   2   1
   NGX,Y,Z   is equivalent  to a cutoff of   9.24,  9.24,  9.31 a.u.
   NGXF,Y,Z  is equivalent  to a cutoff of  18.48, 18.48, 18.62 a.u.

 SYSTEM =  unknown system                          
 POSCAR =  C    H    N    O                        

 Startparameter for this run:
   NWRITE =      2    write-flag & timer
   PREC   = normal    normal or accurate (medium, high low for compatibility)
   ISTART =      0    job   : 0-new  1-cont  2-samecut
   ICHARG =      2    charge: 1-file 2-atom 10-const
   ISPIN  =      2    spin polarized calculation?
   LNONCOLLINEAR =      F non collinear calculations
   LSORBIT =      F    spin-orbit coupling
   INIWAV =      1    electr: 0-lowe 1-rand  2-diag
   LASPH  =      T    aspherical Exc in radial PAW
 Electronic Relaxation 1
   ENCUT  =  520.0 eV  38.22 Ry    6.18 a.u.  32.11 32.11 27.89*2*pi/ulx,y,z
   ENINI  =  520.0     initial cutoff
   ENAUG  =  644.9 eV  augmentation charge cutoff
   NELM   =    200;   NELMIN=  2; NELMDL= -5     # of ELM steps 
   EDIFF  = 0.1E-04   stopping-criterion for ELM
   LREAL  =      T    real-space projection
   NLSPLINE    = F    spline interpolate recip. space projectors
   LCOMPAT=      F    compatible to vasp.4.4
   GGA_COMPAT  = T    GGA compatible to vasp.4.4-vasp.4.6
   LMAXPAW     = -100 max onsite density
   LMAXMIX     =    2 max onsite mixed and CHGCAR
   VOSKOWN=      0    Vosko Wilk Nusair interpolation
   ROPT   =   -0.00050  -0.00050  -0.00050  -0.00050
 Ionic relaxation
   EDIFFG = -.3E-01   stopping-criterion for IOM
   NSW    =    300    number of steps for IOM
   NBLOCK =      1;   KBLOCK =    300    inner block; outer block 
   IBRION =      3    ionic relax: 0-MD 1-quasi-New 2-CG
   NFREE  =      0    steps in history (QN), initial steepest desc. (CG)
   ISIF   =      2    stress and relaxation
   IWAVPR =     11    prediction:  0-non 1-charg 2-wave 3-comb
   ISYM   =      0    0-nonsym 1-usesym 2-fastsym
   LCORR  =      T    Harris-Foulkes like correction to forces

   POTIM  = 0.0000    time-step for ionic-motion
   TEIN   =    0.0    initial temperature
   TEBEG  =    0.0;   TEEND  =   0.0 temperature during run
   SMASS  =  -3.00    Nose mass-parameter (am)
   estimated Nose-frequenzy (Omega)   =  0.10E-29 period in steps = 0.00E+00 mass=  -0.682E-26a.u.
   SCALEE = 1.0000    scale energy and forces
   NPACO  =    256;   APACO  = 10.0  distance and # of slots for P.C.
   PSTRESS=    0.0 pullay stress

  Mass of Ions in am
   POMASS =  12.01  1.00 14.00 16.00
  Ionic Valenz
   ZVAL   =   4.00  1.00  5.00  6.00
  Atomic Wigner-Seitz radii
   RWIGS  =  -1.00 -1.00 -1.00 -1.00
  virtual crystal weights 
   VCA    =   1.00  1.00  1.00  1.00
   NELECT =     368.0000    total number of electrons
   NUPDOWN=      -1.0000    fix difference up-down

 DOS related values:
   EMIN   =  10.00;   EMAX   =-10.00  energy-range for DOS
   EFERMI =   0.00;   METHOD = LEGACY      
   ISMEAR =     0;   SIGMA  =   0.05  broadening in eV -4-tet -1-fermi 0-gaus

 Electronic relaxation 2 (details)
   IALGO  =     38    algorithm
   LDIAG  =      T    sub-space diagonalisation (order eigenvalues)
   LSUBROT=      F    optimize rotation matrix (better conditioning)
   TURBO    =      0    0=normal 1=particle mesh
   IRESTART =      0    0=no restart 2=restart with 2 vectors
   NREBOOT  =      0    no. of reboots
   NMIN     =      0    reboot dimension
   EREF     =   0.00    reference energy to select bands
   IMIX   =      4    mixing-type and parameters
     AMIX     =   0.20;   BMIX     =  0.00
     AMIX_MAG =   0.80;   BMIX_MAG =  0.00
     AMIN     =   0.10
     WC   =   100.;   INIMIX=   1;  MIXPRE=   1;  MAXMIX= -45

 Intra band minimization:
   WEIMIN = 0.0010     energy-eigenvalue tresh-hold
   EBREAK =  0.94E-08  absolut break condition
   DEPER  =   0.30     relativ break condition  

   TIME   =   0.40     timestep for ELM

  volume/ion in A,a.u.               =      39.95       269.58
  Fermi-wavevector in a.u.,A,eV,Ry     =   0.746915  1.411465  7.590446  0.557882
  Thomas-Fermi vector in A             =   1.842848
 
 Write flags
   LWAVE        =      F    write WAVECAR
   LDOWNSAMPLE  =      F    k-point downsampling of WAVECAR
   LCHARG       =      F    write CHGCAR
   LVTOT        =      F    write LOCPOT, total local potential
   LVHAR        =      F    write LOCPOT, Hartree potential only
   LELF         =      F    write electronic localiz. function (ELF)
   LORBIT       =      0    0 simple, 1 ext, 2 COOP (PROOUT), +10 PAW based schemes


 Dipole corrections
   LMONO  =      F    monopole corrections only (constant potential shift)
   LDIPOL =      F    correct potential (dipole corrections)
   IDIPOL =      0    1-x, 2-y, 3-z, 4-all directions 
   EPSILON=  1.0000000 bulk dielectric constant

 Exchange correlation treatment:
   GGA     =    --    GGA type
   LEXCH   =     8    internal setting for exchange type
   LIBXC   =     F    Libxc                    
   VOSKOWN =     0    Vosko Wilk Nusair interpolation
   LHFCALC =     F    Hartree Fock is set to
   LHFONE  =     F    Hartree Fock one center treatment
   AEXX    =    0.0000 exact exchange contribution

 Linear response parameters
   LEPSILON=     F    determine dielectric tensor
   LRPA    =     F    only Hartree local field effects (RPA)
   LNABLA  =     F    use nabla operator in PAW spheres
   LVEL    =     F    velocity operator in full k-point grid
   CSHIFT  =0.1000    complex shift for real part using Kramers Kronig
   OMEGAMAX=  -1.0    maximum frequency
   DEG_THRESHOLD= 0.2000000E-02 threshold for treating states as degnerate
   RTIME   =   -0.100 relaxation time in fs
  (WPLASMAI=    0.000 imaginary part of plasma frequency in eV, 0.658/RTIME)
   DFIELD  = 0.0000000 0.0000000 0.0000000 field for delta impulse in time
 
  Optional k-point grid parameters
   LKPOINTS_OPT  =     F    use optional k-point grid
   KPOINTS_OPT_MODE=     1    mode for optional k-point grid
 
 Orbital magnetization related:
   ORBITALMAG=     F  switch on orbital magnetization
   LCHIMAG   =     F  perturbation theory with respect to B field
   DQ        =  0.001000  dq finite difference perturbation B field
   LLRAUG    =     F  two centre corrections for induced B field
   LBONE     =     F  B-component reconstruction in AE one-centre
   LVGVCALC  =     T  calculate vGv susceptibility
   LVGVAPPL  =     F  apply vGv susceptibility instead of pGv for G=0

 Random number generation:
   RANDOM_GENERATOR = DEFAULT
   PCG_SEED         = not used


--------------------------------------------------------------------------------------------------------


 quickmin algorithm: (dynamic with friction)
   using selective dynamics as specified on POSCAR
 charge density and potential will be updated during run
 spin polarized calculation
 Variant of blocked Davidson
 Davidson routine will perform the subspace rotation
 perform sub-space diagonalisation
    after iterative eigenvector-optimisation
 modified Broyden-mixing scheme, WC =      100.0
 initial mixing is a Kerker type mixing with AMIX =  0.2000 and BMIX =      0.0001
 Hartree-type preconditioning will be used
 using additional bands           81
 real space projection scheme for non local part
 use partial core corrections
 calculate Harris-corrections to forces 
   (improved forces if not selfconsistent)
 use gradient corrections 
 use of overlap-Matrix (Vanderbilt PP)
 Gauss-broadening in eV      SIGMA  =   0.05


--------------------------------------------------------------------------------------------------------


  energy-cutoff  :      520.00
  volume of cell :     3874.88
      direct lattice vectors                 reciprocal lattice vectors
    17.271038055  0.000000000  0.000000000     0.057900399  0.033428811  0.000000000
    -8.635519028 14.957157706  0.000000000     0.000000000  0.066857622  0.000000000
     0.000000000  0.000000000 15.000000000     0.000000000  0.000000000  0.066666667

  length of vectors
    17.271038055 17.271038055 15.000000000     0.066857622  0.066857622  0.066666667


 
 k-points in units of 2pi/SCALE and weight: Automatic mesh                          
   0.00000000  0.00000000  0.00000000       0.250
   0.02895020  0.01671441  0.00000000       0.250
   0.00000000  0.03342881  0.00000000       0.250
   0.02895020  0.05014322  0.00000000       0.250
 
 k-points in reciprocal lattice and weights: Automatic mesh                          
   0.00000000  0.00000000  0.00000000       0.250
   0.50000000  0.00000000  0.00000000       0.250
   0.00000000  0.50000000  0.00000000       0.250
   0.50000000  0.50000000  0.00000000       0.250
 
 position of ions in fractional coordinates (direct lattice) 
   0.99918672  0.99934342  0.50125418
   0.99890553  0.14198791  0.50061075
   0.99891632  0.28512881  0.50037399
   0.99891341  0.42824374  0.50073124
   0.99923402  0.57119006  0.50127904
   0.99958406  0.71393451  0.50125745
   0.99956741  0.85697892  0.50119562
   0.14281725  0.00010716  0.50082678
   0.14217264  0.14246872  0.50032017
   0.14109419  0.28453970  0.49974570
   0.14109597  0.42789959  0.49985207
   0.14218014  0.57102741  0.50046781
   0.14284417  0.71405294  0.50089358
   0.14287286  0.85710373  0.50098237
   0.28596863  0.00014115  0.50055029
   0.28606380  0.14313158  0.49989904
   0.28517245  0.28660953  0.49836158
   0.28242453  0.42688130  0.49730875
   0.28516399  0.56990211  0.49856761
   0.28607306  0.71425714  0.49996942
   0.28597471  0.85717631  0.50051304
   0.42881582  0.00007329  0.50035912
   0.42944486  0.14368712  0.50007387
   0.42798584  0.28374323  0.49928253
   0.42801039  0.71556437  0.49933826
   0.42944418  0.85707665  0.50005544
   0.57131790  0.99992759  0.50013787
   0.57133545  0.14276350  0.50019542
   0.57474001  0.28884448  0.49939569
   0.57473662  0.85726846  0.49929817
   0.71412921  0.00031284  0.49987555
   0.71400036  0.14267927  0.50036979
   0.71413910  0.28520157  0.49998018
   0.71001697  0.42450424  0.49794816
   0.71587680  0.57172553  0.48971607
   0.71585830  0.71546850  0.48971464
   0.71000097  0.85687606  0.49785397
   0.85620876  0.99938751  0.50017115
   0.85648152  0.14253613  0.50031509
   0.85650051  0.28533526  0.50040108
   0.85624176  0.42819473  0.50029345
   0.85577174  0.57048824  0.49986984
   0.85683244  0.71407910  0.49878513
   0.85572881  0.85659080  0.49987622
   0.04687840  0.09461631  0.50084930
   0.04596410  0.23696621  0.50033608
   0.04596375  0.38033379  0.50042744
   0.04690184  0.52358989  0.50092132
   0.04725997  0.66652050  0.50129840
   0.04719970  0.80926779  0.50118902
   0.04723932  0.95207723  0.50123921
   0.19041255  0.09510919  0.50033099
   0.18931321  0.23750747  0.49955362
   0.18736786  0.37936268  0.49913983
   0.18931744  0.52313210  0.49975581
   0.19043032  0.66663114  0.50040000
   0.19066550  0.80956373  0.50079602
   0.19066702  0.95244909  0.50076719
   0.33400258  0.09588385  0.50022287
   0.33455606  0.23860060  0.49914133
   0.32875930  0.37919398  0.49654161
   0.32872465  0.52090115  0.49668916
   0.33459197  0.66728963  0.49925297
   0.33399242  0.80944227  0.50022382
   0.33337328  0.95236621  0.50050956
   0.47636010  0.09529750  0.50023651
   0.47700994  0.23944701  0.49969372
   0.47700966  0.80889035  0.49966624
   0.47635461  0.95240942  0.50022424
   0.61870912  0.09503190  0.50030567
   0.61942140  0.23824177  0.49985618
   0.61942480  0.95256599  0.49972809
   0.76166762  0.09545589  0.50029445
   0.76165625  0.23757087  0.50034636
   0.76088417  0.38000336  0.49948802
   0.75951057  0.52283420  0.49624797
   0.76114939  0.66624215  0.49270218
   0.75947052  0.80800084  0.49625990
   0.76086624  0.95225121  0.49937429
   0.90369053  0.09432022  0.50042304
   0.90392800  0.23764223  0.50037933
   0.90370846  0.38072740  0.50056566
   0.90387359  0.52356068  0.50087635
   0.90381343  0.66595010  0.50026674
   0.90379267  0.80918662  0.50024232
   0.90383527  0.95163024  0.50083932
   0.46624928  0.35633718  0.49887044
   0.40105013  0.41876343  0.49540178
   0.40100855  0.55363787  0.49550756
   0.64394455  0.68109399  0.47974516
   0.64395400  0.53411555  0.47976874
   0.46628399  0.68125173  0.49895233
   0.55198700  0.60681319  0.53542684
   0.55278148  0.51807119  0.53525293
   0.61991245  0.37943644  0.49846982
   0.61990380  0.81184389  0.49840425
   0.51262664  0.54229387  0.53488800
 
 position of ions in cartesian coordinates  (Angst):
   8.62714275 14.94733717  7.51881277
  16.02599608  2.12373550  7.50916128
  14.79008660  4.26471653  7.50560980
  13.55416464  6.40530909  7.51096867
  12.32528616  8.54337983  7.51918562
  11.09865926 10.67843102  7.51886178
   9.86310903 12.81796880  7.51793431
   2.46567680  0.00160274  7.51240165
   1.22517781  2.13092705  7.50480255
  -0.02030486  4.25590524  7.49618547
  -1.25826126  6.40016164  7.49778105
  -2.47551957  8.54094709  7.50701709
  -3.69915070 10.68020237  7.51340376
  -4.93397305 12.81983571  7.51473553
   4.93775612  0.00211125  7.50825438
   3.70460336  2.14084158  7.49848563
   2.45020223  4.28686388  7.47542364
   1.19142318  6.38493090  7.45963130
   0.00367755  8.52411579  7.47851420
  -1.22720248 10.68325676  7.49954135
  -2.46308230 12.82092125  7.50769564
   7.40546141  0.00109617  7.50538675
   6.17614555  2.14915097  7.50110804
   4.94148963  4.24399229  7.48923792
   1.21291405 10.70280916  7.49007390
   0.01564511 12.81943055  7.50083159
   1.23235942 14.95607464  7.50206807
   8.63471938  2.13533613  7.50293123
   7.43203462  4.32029250  7.49093528
   2.52334000 12.82229956  7.48947261
  12.33105112  0.00467925  7.49813325
  11.09941775  2.13407640  7.50554690
   9.87106002  4.26580488  7.49970266
   8.59691567  6.34937692  7.46922243
   7.42678873  8.55138892  7.34574106
   6.18517407 10.70137519  7.34571957
   4.86288426 12.81643038  7.46780951
   6.15738418 14.94799658  7.50256729
  13.56145144  2.13193539  7.50472639
  12.32863490  4.26780452  7.50601620
  11.09050033  6.40457611  7.50440174
   9.85360413  8.53288261  7.49804753
   8.63194199 10.68059368  7.48177693
   7.38221868 12.81216370  7.49814324
  -0.00742231  1.41519103  7.51273946
  -1.25247843  3.54434098  7.50504126
  -2.49053796  5.68871245  7.50641166
  -3.71142698  7.83141649  7.51381986
  -4.93952173  9.96925229  7.51947599
  -6.17325965 12.10434603  7.51783530
  -7.40580886 14.24036923  7.51858813
   2.46730526  1.42256309  7.50496485
   1.21863530  3.55243672  7.49330424
  -0.03995616  5.67418738  7.48709741
  -1.24780856  7.82456939  7.49633713
  -2.46777657  9.97090712  7.50599998
  -3.69801181 12.10877233  7.51194027
  -4.93187495 14.24593128  7.51150780
   4.94056451  1.43414991  7.50334301
   3.71769036  3.56878684  7.48711997
   2.40347766  5.67166409  7.44812417
   1.17916423  7.79120062  7.45033747
   0.01635826  9.98075627  7.48879462
  -1.22155839 12.10695567  7.50335730
  -2.46647402 14.24469166  7.50764337
   7.40429000  1.42537968  7.50354765
   6.17070761  3.58144672  7.49540574
   1.25326397 12.09870058  7.49499357
   0.00258897 14.24533782  7.50336355
   9.86509902  1.42140707  7.50458498
   8.64070915  3.56341975  7.49784276
   2.47220752 14.24767967  7.49592129
  12.33047929  1.42774887  7.50441678
  11.10304624  3.55338495  7.50519544
   9.85973313  5.68377022  7.49232032
   8.60259128  7.82011363  7.44371949
   7.39249343  9.96508884  7.39053268
   6.13933760 12.08539593  7.44389855
   4.91776640 14.24297147  7.49061428
  14.79316954  1.41076238  7.50634564
  13.55961081  3.55445235  7.50568997
  12.32020453  5.69459979  7.50848488
  11.08961691  7.83097961  7.51314528
   9.85897132  9.96072068  7.50400113
   8.62169121 12.10313182  7.50363480
   7.39235230 14.23368352  7.51258973
   4.97545250  5.32979136  7.48305663
   3.31031247  6.26351062  7.43102667
   2.14488359  8.28084892  7.43261338
   5.23999079 10.18723017  7.19617735
   6.50938898  7.98885054  7.19653116
   2.17024620 10.18958963  7.48428497
   4.29324157  9.07620059  8.03140253
   5.07329637  7.74887249  8.02879402
   7.42990084  5.67529073  7.47704727
   3.69568883 12.14287712  7.47606369
   4.17060511  8.11117491  8.02332000
 


--------------------------------------------------------------------------------------------------------


 k-point   1 :   0.0000 0.0000 0.0000  plane waves:  104449
 k-point   2 :   0.5000 0.0000 0.0000  plane waves:  104264
 k-point   3 :   0.0000 0.5000 0.0000  plane waves:  104264
 k-point   4 :   0.5000 0.5000 0.0000  plane waves:  104264

 maximum and minimum number of plane-waves per node :    104449   104264

 maximum number of plane-waves:    104449
 maximum index in each direction: 
   IXMAX=   32   IYMAX=   32   IZMAX=   27
   IXMIN=  -32   IYMIN=  -32   IZMIN=  -27


 serial   3D FFT for wavefunctions
 parallel 3D FFT for charge:
    minimum data exchange during FFTs selected (reduces bandwidth)


 total amount of memory used by VASP MPI-rank0  1122708. kBytes
=======================================================================

   base      :      30000. kBytes
   nonlr-proj:       9001. kBytes
   fftplans  :     185212. kBytes
   grid      :     184190. kBytes
   one-center:        595. kBytes
   wavefun   :     713710. kBytes
 
     INWAV:  cpu time      0.0000: real time      0.0000
 Broyden mixing: mesh for mixing (old mesh)
   NGX = 65   NGY = 65   NGZ = 55
  (NGX  =192   NGY  =192   NGZ  =168)
  gives a total of 232375 points

 initial charge density was supplied:
 charge density of overlapping atoms calculated
 number of electron     368.0000000 magnetization      58.2000000
 keeping initial charge density in first step


--------------------------------------------------------------------------------------------------------


 Maximum index for non-local projection operator         1578
 Maximum index for augmentation-charges         4015 (set IRDMAX)


--------------------------------------------------------------------------------------------------------


 First call to EWALD:  gamma=   0.113
 Maximum number of real-space cells 3x 3x 3
 Maximum number of reciprocal cells 3x 3x 3

    FEWALD:  cpu time      0.0077: real time      0.0078


--------------------------------------- Ionic step        1  -------------------------------------------




--------------------------------------- Iteration      1(   1)  ---------------------------------------


    POTLOK:  cpu time      2.5225: real time      2.5600
    SETDIJ:  cpu time      3.1108: real time      3.1299
     EDDAV:  cpu time     77.4627: real time     77.9768
       DOS:  cpu time      0.0009: real time      0.0050
    --------------------------------------------
      LOOP:  cpu time     83.0971: real time     83.6717

 eigenvalue-minimisations  :  4590
 total energy-change (2. order) : 0.3262642E+04  (-0.1376825E+05)
 number of electron     368.0000000 magnetization      58.2000000
 augmentation part      368.0000000 magnetization      58.2000000

 Free energy of the ion-electron system (eV)
  ---------------------------------------------------
  alpha Z        PSCENC =       175.87611319
  Ewald energy   TEWEN  =     36640.74434160
  -Hartree energ DENC   =    -46836.30839751
  -exchange      EXHF   =         0.00000000
  -V(xc)+E(xc)   XCENC  =      1224.40421076
  PAW double counting   =     10101.41315093   -10154.35997595
  entropy T*S    EENTRO =        -0.04476718
  eigenvalues    EBANDS =     -1605.21334218
  atomic energy  EATOM  =     13716.13071916
  Solvation  Ediel_sol  =         0.00000000
  ---------------------------------------------------
  free energy    TOTEN  =      3262.64205281 eV

  energy without entropy =     3262.68681999  energy(sigma->0) =     3262.66443640


--------------------------------------------------------------------------------------------------------




--------------------------------------- Iteration      1(   2)  ---------------------------------------


     EDDAV:  cpu time    101.2091: real time    101.9020
       DOS:  cpu time      0.0008: real time      0.0058
    --------------------------------------------
      LOOP:  cpu time    101.2099: real time    101.9078

 eigenvalue-minimisations  :  6410
 total energy-change (2. order) :-0.3514161E+04  (-0.3311909E+04)
 number of electron     368.0000000 magnetization      58.2000000
 augmentation part      368.0000000 magnetization      58.2000000

 Free energy of the ion-electron system (eV)
  ---------------------------------------------------
  alpha Z        PSCENC =       175.87611319
  Ewald energy   TEWEN  =     36640.74434160
  -Hartree energ DENC   =    -46836.30839751
  -exchange      EXHF   =         0.00000000
  -V(xc)+E(xc)   XCENC  =      1224.40421076
  PAW double counting   =     10101.41315093   -10154.35997595
  entropy T*S    EENTRO =        -0.00000021
  eigenvalues    EBANDS =     -5119.41894701
  atomic energy  EATOM  =     13716.13071916
  Solvation  Ediel_sol  =         0.00000000
  ---------------------------------------------------
  free energy    TOTEN  =      -251.51878504 eV

  energy without entropy =     -251.51878483  energy(sigma->0) =     -251.51878493


--------------------------------------------------------------------------------------------------------




--------------------------------------- Iteration      1(   3)  ---------------------------------------


     EDDAV:  cpu time     86.7523: real time     87.3614
       DOS:  cpu time      0.0007: real time      0.0052
    --------------------------------------------
      LOOP:  cpu time     86.7530: real time     87.3667

 eigenvalue-minimisations  :  5310
 total energy-change (2. order) :-0.6126725E+03  (-0.6099481E+03)
 number of electron     368.0000000 magnetization      58.2000000
 augmentation part      368.0000000 magnetization      58.2000000

 Free energy of the ion-electron system (eV)
  ---------------------------------------------------
  alpha Z        PSCENC =       175.87611319
  Ewald energy   TEWEN  =     36640.74434160
  -Hartree energ DENC   =    -46836.30839751
  -exchange      EXHF   =         0.00000000
  -V(xc)+E(xc)   XCENC  =      1224.40421076
  PAW double counting   =     10101.41315093   -10154.35997595
  entropy T*S    EENTRO =        -0.00000070
  eigenvalues    EBANDS =     -5732.09147064
  atomic energy  EATOM  =     13716.13071916
  Solvation  Ediel_sol  =         0.00000000
  ---------------------------------------------------
  free energy    TOTEN  =      -864.19130916 eV

  energy without entropy =     -864.19130846  energy(sigma->0) =     -864.19130881


--------------------------------------------------------------------------------------------------------




--------------------------------------- Iteration      1(   4)  ---------------------------------------


     EDDAV:  cpu time     87.9699: real time     88.6365
       DOS:  cpu time      0.0009: real time      0.0057
    --------------------------------------------
      LOOP:  cpu time     87.9707: real time     88.6422

 eigenvalue-minimisations  :  5400
 total energy-change (2. order) :-0.2203092E+02  (-0.2195159E+02)
 number of electron     368.0000000 magnetization      58.2000000
 augmentation part      368.0000000 magnetization      58.2000000

 Free energy of the ion-electron system (eV)
  ---------------------------------------------------
  alpha Z        PSCENC =       175.87611319
  Ewald energy   TEWEN  =     36640.74434160
  -Hartree energ DENC   =    -46836.30839751
  -exchange      EXHF   =         0.00000000
  -V(xc)+E(xc)   XCENC  =      1224.40421076
  PAW double counting   =     10101.41315093   -10154.35997595
  entropy T*S    EENTRO =        -0.00000219
  eigenvalues    EBANDS =     -5754.12238419
  atomic energy  EATOM  =     13716.13071916
  Solvation  Ediel_sol  =         0.00000000
  ---------------------------------------------------
  free energy    TOTEN  =      -886.22222420 eV

  energy without entropy =     -886.22222201  energy(sigma->0) =     -886.22222310


--------------------------------------------------------------------------------------------------------




--------------------------------------- Iteration      1(   5)  ---------------------------------------


     EDDAV:  cpu time     95.4638: real time     96.1484
       DOS:  cpu time      0.0008: real time      0.0050
    CHARGE:  cpu time      5.4742: real time      5.5085
    MIXING:  cpu time      0.0573: real time      0.0577
    --------------------------------------------
      LOOP:  cpu time    100.9962: real time    101.7197

 eigenvalue-minimisations  :  6020
 total energy-change (2. order) :-0.6257541E+00  (-0.6250034E+00)
 number of electron     368.0000000 magnetization      12.4400152
 augmentation part       10.6147533 magnetization      11.5146643

 Broyden mixing:
  rms(total) = 0.51840E+01    rms(broyden)= 0.51834E+01
  rms(prec ) = 0.56468E+01
  weight for this iteration     100.00

 Free energy of the ion-electron system (eV)
  ---------------------------------------------------
  alpha Z        PSCENC =       175.87611319
  Ewald energy   TEWEN  =     36640.74434160
  -Hartree energ DENC   =    -46836.30839751
  -exchange      EXHF   =         0.00000000
  -V(xc)+E(xc)   XCENC  =      1224.40421076
  PAW double counting   =     10101.41315093   -10154.35997595
  entropy T*S    EENTRO =        -0.00000235
  eigenvalues    EBANDS =     -5754.74813812
  atomic energy  EATOM  =     13716.13071916
  Solvation  Ediel_sol  =         0.00000000
  ---------------------------------------------------
  free energy    TOTEN  =      -886.84797830 eV

  energy without entropy =     -886.84797594  energy(sigma->0) =     -886.84797712


--------------------------------------------------------------------------------------------------------




--------------------------------------- Iteration      1(   6)  ---------------------------------------


    POTLOK:  cpu time      2.5073: real time      2.5360
    SETDIJ:  cpu time      3.1846: real time      3.2077
     EDDAV:  cpu time     83.6546: real time     84.2226
       DOS:  cpu time      0.0008: real time      0.0049
    CHARGE:  cpu time      5.7709: real time      5.8140
    MIXING:  cpu time      0.0570: real time      0.0573
    --------------------------------------------
      LOOP:  cpu time     95.1752: real time     95.8425

 eigenvalue-minimisations  :  5140
 total energy-change (2. order) : 0.1728731E+02  (-0.2183200E+01)
 number of electron     368.0000000 magnetization      -5.8265584
 augmentation part       10.2510731 magnetization      -5.8461815

 Broyden mixing:
  rms(total) = 0.33726E+01    rms(broyden)= 0.33725E+01
  rms(prec ) = 0.37144E+01
  weight for this iteration     100.00

 eigenvalues of (default mixing * dielectric matrix)
  average eigenvalue GAMMA=   1.4224
  1.4224

 Free energy of the ion-electron system (eV)
  ---------------------------------------------------
  alpha Z        PSCENC =       175.87611319
  Ewald energy   TEWEN  =     36640.74434160
  -Hartree energ DENC   =    -47297.68871156
  -exchange      EXHF   =         0.00000000
  -V(xc)+E(xc)   XCENC  =      1234.50304039
  PAW double counting   =     13817.29431535   -13874.09370558
  entropy T*S    EENTRO =        -0.00232632
  eigenvalues    EBANDS =     -5282.32445628
  atomic energy  EATOM  =     13716.13071916
  Solvation  Ediel_sol  =         0.00000000
  ---------------------------------------------------
  free energy    TOTEN  =      -869.56067006 eV

  energy without entropy =     -869.55834373  energy(sigma->0) =     -869.55950689


--------------------------------------------------------------------------------------------------------




--------------------------------------- Iteration      1(   7)  ---------------------------------------


    POTLOK:  cpu time      2.5712: real time      2.5950
    SETDIJ:  cpu time      3.2937: real time      3.3141
     EDDAV:  cpu time     82.7774: real time     83.4186
       DOS:  cpu time      0.0008: real time      0.0052
    CHARGE:  cpu time      5.6469: real time      5.6864
    MIXING:  cpu time      0.0572: real time      0.0575
    --------------------------------------------
      LOOP:  cpu time     94.3472: real time     95.0769

 eigenvalue-minimisations  :  5050
 total energy-change (2. order) : 0.2216542E+02  (-0.3270208E+01)
 number of electron     368.0000000 magnetization       1.3097124
 augmentation part        9.8050061 magnetization       1.3113692

 Broyden mixing:
  rms(total) = 0.20407E+01    rms(broyden)= 0.20406E+01
  rms(prec ) = 0.21628E+01
  weight for this iteration     100.00

 eigenvalues of (default mixing * dielectric matrix)
  average eigenvalue GAMMA=   2.4885
  1.2966  3.6805

 Free energy of the ion-electron system (eV)
  ---------------------------------------------------
  alpha Z        PSCENC =       175.87611319
  Ewald energy   TEWEN  =     36640.74434160
  -Hartree energ DENC   =    -47900.71858432
  -exchange      EXHF   =         0.00000000
  -V(xc)+E(xc)   XCENC  =      1255.89407252
  PAW double counting   =     20638.86932500   -20700.06950401
  entropy T*S    EENTRO =        -0.00001241
  eigenvalues    EBANDS =     -4674.12171794
  atomic energy  EATOM  =     13716.13071916
  Solvation  Ediel_sol  =         0.00000000
  ---------------------------------------------------
  free energy    TOTEN  =      -847.39524722 eV

  energy without entropy =     -847.39523481  energy(sigma->0) =     -847.39524101


--------------------------------------------------------------------------------------------------------




--------------------------------------- Iteration      1(   8)  ---------------------------------------


    POTLOK:  cpu time      2.5931: real time      2.6127
    SETDIJ:  cpu time      3.3067: real time      3.3239
     EDDAV:  cpu time     84.1406: real time     84.7452
       DOS:  cpu time      0.0007: real time      0.0057
    CHARGE:  cpu time      5.5870: real time      5.6221
    MIXING:  cpu time      0.0634: real time      0.0638
    --------------------------------------------
      LOOP:  cpu time     95.6915: real time     96.3735

 eigenvalue-minimisations  :  5160
 total energy-change (2. order) : 0.4791911E+01  (-0.2409345E+01)
 number of electron     368.0000000 magnetization      -0.8328681
 augmentation part        9.4426092 magnetization      -0.8333419

 Broyden mixing:
  rms(total) = 0.82189E+00    rms(broyden)= 0.82177E+00
  rms(prec ) = 0.84522E+00
  weight for this iteration     100.00

 eigenvalues of (default mixing * dielectric matrix)
  average eigenvalue GAMMA=   2.4568
  4.3670  1.3262  1.6773

 Free energy of the ion-electron system (eV)
  ---------------------------------------------------
  alpha Z        PSCENC =       175.87611319
  Ewald energy   TEWEN  =     36640.74434160
  -Hartree energ DENC   =    -48441.79651284
  -exchange      EXHF   =         0.00000000
  -V(xc)+E(xc)   XCENC  =      1276.56860755
  PAW double counting   =     31167.24189306   -31232.11740569
  entropy T*S    EENTRO =        -0.00000006
  eigenvalues    EBANDS =     -4145.25109254
  atomic energy  EATOM  =     13716.13071916
  Solvation  Ediel_sol  =         0.00000000
  ---------------------------------------------------
  free energy    TOTEN  =      -842.60333657 eV

  energy without entropy =     -842.60333651  energy(sigma->0) =     -842.60333654


--------------------------------------------------------------------------------------------------------




--------------------------------------- Iteration      1(   9)  ---------------------------------------


    POTLOK:  cpu time      2.6956: real time      2.7170
    SETDIJ:  cpu time      3.2701: real time      3.2895
     EDDAV:  cpu time     82.9957: real time     83.5837
       DOS:  cpu time      0.0008: real time      0.0047
    CHARGE:  cpu time      5.6415: real time      5.6884
    MIXING:  cpu time      0.0827: real time      0.0832
    --------------------------------------------
      LOOP:  cpu time     94.6864: real time     95.3665

 eigenvalue-minimisations  :  5060
 total energy-change (2. order) : 0.1058921E+00  (-0.1104586E+00)
 number of electron     368.0000000 magnetization       0.1240014
 augmentation part        9.4428190 magnetization       0.1242411

 Broyden mixing:
  rms(total) = 0.32793E+00    rms(broyden)= 0.32791E+00
  rms(prec ) = 0.34617E+00
  weight for this iteration     100.00

 eigenvalues of (default mixing * dielectric matrix)
  average eigenvalue GAMMA=   2.4254
  4.7205  1.0883  1.2302  2.6629

 Free energy of the ion-electron system (eV)
  ---------------------------------------------------
  alpha Z        PSCENC =       175.87611319
  Ewald energy   TEWEN  =     36640.74434160
  -Hartree energ DENC   =    -48412.36538717
  -exchange      EXHF   =         0.00000000
  -V(xc)+E(xc)   XCENC  =      1276.38961383
  PAW double counting   =     35329.16473425   -35393.71610512
  entropy T*S    EENTRO =        -0.00000006
  eigenvalues    EBANDS =     -4174.72147412
  atomic energy  EATOM  =     13716.13071916
  Solvation  Ediel_sol  =         0.00000000
  ---------------------------------------------------
  free energy    TOTEN  =      -842.49744444 eV

  energy without entropy =     -842.49744438  energy(sigma->0) =     -842.49744441


--------------------------------------------------------------------------------------------------------




--------------------------------------- Iteration      1(  10)  ---------------------------------------


    POTLOK:  cpu time      2.7436: real time      2.7898
    SETDIJ:  cpu time      3.1022: real time      3.1196
     EDDAV:  cpu time     80.7981: real time     81.3404
       DOS:  cpu time      0.0007: real time      0.0030
    CHARGE:  cpu time      5.8352: real time      5.8755
    MIXING:  cpu time      0.0672: real time      0.0676
    --------------------------------------------
      LOOP:  cpu time     92.5471: real time     93.1958

 eigenvalue-minimisations  :  4890
 total energy-change (2. order) : 0.9077920E-01  (-0.4546571E-01)
 number of electron     368.0000000 magnetization      -0.0230102
 augmentation part        9.4714993 magnetization      -0.0231227

 Broyden mixing:
  rms(total) = 0.97617E-01    rms(broyden)= 0.97605E-01
  rms(prec ) = 0.10820E+00
  weight for this iteration     100.00

 eigenvalues of (default mixing * dielectric matrix)
  average eigenvalue GAMMA=   2.3096
  4.7519  3.0932  0.9855  1.4617  1.2557

 Free energy of the ion-electron system (eV)
  ---------------------------------------------------
  alpha Z        PSCENC =       175.87611319
  Ewald energy   TEWEN  =     36640.74434160
  -Hartree energ DENC   =    -48354.80932553
  -exchange      EXHF   =         0.00000000
  -V(xc)+E(xc)   XCENC  =      1274.72122476
  PAW double counting   =     37037.28140726   -37101.32815105
  entropy T*S    EENTRO =        -0.00000004
  eigenvalues    EBANDS =     -4231.02299459
  atomic energy  EATOM  =     13716.13071916
  Solvation  Ediel_sol  =         0.00000000
  ---------------------------------------------------
  free energy    TOTEN  =      -842.40666524 eV

  energy without entropy =     -842.40666520  energy(sigma->0) =     -842.40666522


--------------------------------------------------------------------------------------------------------




--------------------------------------- Iteration      1(  11)  ---------------------------------------


    POTLOK:  cpu time      2.6127: real time      2.6350
    SETDIJ:  cpu time      3.2573: real time      3.2891
     EDDAV:  cpu time     79.8321: real time     80.4365
       DOS:  cpu time      0.0007: real time      0.0052
    CHARGE:  cpu time      5.8542: real time      5.8926
    MIXING:  cpu time      0.0858: real time      0.0865
    --------------------------------------------
      LOOP:  cpu time     91.6427: real time     92.3448

 eigenvalue-minimisations  :  4840
 total energy-change (2. order) : 0.1126953E-01  (-0.9093386E-02)
 number of electron     368.0000000 magnetization       0.0195903
 augmentation part        9.4718035 magnetization       0.0193110

 Broyden mixing:
  rms(total) = 0.33993E-01    rms(broyden)= 0.33980E-01
  rms(prec ) = 0.39000E-01
  weight for this iteration     100.00

 eigenvalues of (default mixing * dielectric matrix)
  average eigenvalue GAMMA=   2.1471
  4.7115  3.1119  1.6589  1.0578  1.0578  1.2847

 Free energy of the ion-electron system (eV)
  ---------------------------------------------------
  alpha Z        PSCENC =       175.87611319
  Ewald energy   TEWEN  =     36640.74434160
  -Hartree energ DENC   =    -48342.16410743
  -exchange      EXHF   =         0.00000000
  -V(xc)+E(xc)   XCENC  =      1274.32113403
  PAW double counting   =     37271.74399016   -37335.65922804
  entropy T*S    EENTRO =        -0.00000004
  eigenvalues    EBANDS =     -4243.38835835
  atomic energy  EATOM  =     13716.13071916
  Solvation  Ediel_sol  =         0.00000000
  ---------------------------------------------------
  free energy    TOTEN  =      -842.39539571 eV

  energy without entropy =     -842.39539568  energy(sigma->0) =     -842.39539570


--------------------------------------------------------------------------------------------------------




--------------------------------------- Iteration      1(  12)  ---------------------------------------


    POTLOK:  cpu time      2.7085: real time      2.7299
    SETDIJ:  cpu time      3.2603: real time      3.2817
     EDDAV:  cpu time     86.1032: real time     86.6890
       DOS:  cpu time      0.0009: real time      0.0184
    CHARGE:  cpu time      5.8244: real time      5.8703
    MIXING:  cpu time      0.1054: real time      0.1061
    --------------------------------------------
      LOOP:  cpu time     98.0028: real time     98.6954

 eigenvalue-minimisations  :  5330
 total energy-change (2. order) : 0.1985870E-02  (-0.9063328E-03)
 number of electron     368.0000000 magnetization      -0.0028940
 augmentation part        9.4716055 magnetization      -0.0030067

 Broyden mixing:
  rms(total) = 0.17977E-01    rms(broyden)= 0.17974E-01
  rms(prec ) = 0.20196E-01
  weight for this iteration     100.00

 eigenvalues of (default mixing * dielectric matrix)
  average eigenvalue GAMMA=   2.1143
  4.6605  3.1523  2.1998  1.4467  1.0373  1.0373  1.2663

 Free energy of the ion-electron system (eV)
  ---------------------------------------------------
  alpha Z        PSCENC =       175.87611319
  Ewald energy   TEWEN  =     36640.74434160
  -Hartree energ DENC   =    -48341.63361708
  -exchange      EXHF   =         0.00000000
  -V(xc)+E(xc)   XCENC  =      1274.29581435
  PAW double counting   =     37289.64222795   -37353.53212859
  entropy T*S    EENTRO =        -0.00000004
  eigenvalues    EBANDS =     -4243.91688038
  atomic energy  EATOM  =     13716.13071916
  Solvation  Ediel_sol  =         0.00000000
  ---------------------------------------------------
  free energy    TOTEN  =      -842.39340984 eV

  energy without entropy =     -842.39340981  energy(sigma->0) =     -842.39340983


[...]
   -.194E+02 0.112E+02 -.254E+00   0.195E+02 -.112E+02 0.260E+00   -.122E+00 0.524E-01 -.433E-02   0.497E-04 -.433E-03 0.702E-03
   -.403E+01 -.232E+01 -.815E+00   0.397E+01 0.228E+01 0.818E+00   0.572E-01 0.364E-01 0.382E-03   -.223E-03 -.363E-03 -.444E-03
   0.837E+01 -.123E+02 -.558E+00   -.849E+01 0.122E+02 0.555E+00   0.116E+00 0.317E-01 0.417E-02   0.109E-03 0.181E-03 0.485E-03
   0.193E+02 -.669E+02 0.597E+00   -.195E+02 0.675E+02 -.594E+00   0.243E+00 -.617E+00 -.821E-02   -.670E-03 0.632E-03 0.247E-02
   -.482E+02 0.501E+02 0.738E+00   0.486E+02 -.506E+02 -.735E+00   -.414E+00 0.515E+00 -.914E-02   0.260E-03 0.567E-05 0.254E-02
   -.643E+01 0.135E+02 -.612E+00   0.635E+01 -.136E+02 0.610E+00   0.867E-01 0.991E-01 0.348E-02   0.610E-03 0.130E-03 0.165E-04
   0.436E+01 0.249E+01 -.114E+01   -.453E+01 -.258E+01 0.114E+01   0.171E+00 0.941E-01 -.216E-03   0.478E-03 -.118E-02 0.328E-03
   0.252E+02 -.101E+02 -.125E+00   -.256E+02 0.996E+01 0.104E+00   0.426E+00 0.143E+00 0.189E-01   0.655E-03 -.515E-05 0.121E-02
   0.386E+01 0.269E+02 0.388E+00   -.420E+01 -.272E+02 -.412E+00   0.343E+00 0.300E+00 0.197E-01   0.190E-02 -.630E-03 0.143E-02
   0.147E+01 0.934E+01 -.125E+01   -.146E+01 -.919E+01 0.126E+01   -.107E-01 -.142E+00 -.152E-01   0.607E-03 0.984E-04 0.401E-03
   0.882E+01 -.343E+01 -.130E+01   -.869E+01 0.337E+01 0.131E+01   -.132E+00 0.568E-01 -.131E-01   0.151E-02 0.691E-03 0.159E-03
   0.234E+02 -.184E+02 0.290E+00   -.235E+02 0.188E+02 -.294E+00   0.669E-01 -.394E+00 -.259E-02   0.618E-03 0.658E-03 0.260E-02
   0.698E+02 0.121E+02 0.646E+01   -.703E+02 -.123E+02 -.643E+01   0.563E+00 0.229E+00 -.462E-01   0.973E-03 -.399E-03 -.117E-02
   0.820E+02 0.474E+02 0.189E+02   -.823E+02 -.476E+02 -.191E+02   0.291E+00 0.162E+00 0.144E+00   0.822E-03 0.360E-03 -.927E-02
   0.454E+02 0.544E+02 0.616E+01   -.459E+02 -.547E+02 -.612E+01   0.482E+00 0.376E+00 -.447E-01   -.108E-03 0.648E-03 -.372E-02
   -.428E+01 0.295E+02 0.527E+00   0.458E+01 -.298E+02 -.528E+00   -.307E+00 0.258E+00 -.394E-02   0.175E-03 0.183E-03 0.160E-02
   -.117E+01 0.607E+01 -.116E+01   0.130E+01 -.613E+01 0.117E+01   -.124E+00 0.552E-01 -.673E-02   -.189E-03 0.255E-03 0.727E-03
   -.176E+01 -.102E+01 -.594E+00   0.188E+01 0.110E+01 0.603E+00   -.118E+00 -.713E-01 -.519E-02   -.143E-02 0.535E-03 -.879E-03
   0.474E+01 -.409E+01 -.166E+01   -.473E+01 0.422E+01 0.167E+01   -.985E-02 -.138E+00 -.608E-02   0.733E-04 0.268E-02 -.280E-03
   0.187E+02 -.133E+01 -.497E+01   -.187E+02 0.146E+01 0.501E+01   -.205E-02 -.128E+00 -.353E-01   0.953E-03 -.380E-03 0.406E-02
   0.264E+02 0.105E+02 -.483E+01   -.264E+02 -.105E+02 0.476E+01   0.183E-01 0.639E-01 0.640E-01   0.104E-02 0.303E-03 0.432E-02
   0.223E+02 0.176E+02 -.482E+01   -.223E+02 -.176E+02 0.476E+01   0.642E-01 -.197E-01 0.654E-01   -.501E-03 0.772E-04 0.231E-02
   0.825E+01 0.169E+02 -.506E+01   -.815E+01 -.169E+02 0.510E+01   -.106E+00 0.654E-01 -.353E-01   -.113E-02 0.108E-02 0.263E-02
   0.685E+00 -.649E+02 0.238E+01   -.361E+00 0.708E+02 -.243E+01   -.323E+00 -.588E+01 0.404E-01   0.150E-03 -.125E-03 0.679E-03
   -.482E+02 -.335E+02 0.894E+01   0.532E+02 0.369E+02 -.902E+01   -.495E+01 -.341E+01 0.605E-01   -.929E-04 0.767E-04 -.708E-03
   -.530E+02 -.249E+02 0.895E+01   0.584E+02 0.275E+02 -.904E+01   -.543E+01 -.258E+01 0.649E-01   0.129E-03 -.545E-04 -.614E-03
   0.492E+02 0.353E+02 0.250E+02   -.543E+02 -.379E+02 -.260E+02   0.509E+01 0.257E+01 0.943E+00   0.258E-03 0.502E-03 -.387E-02
   0.553E+02 0.251E+02 0.250E+02   -.600E+02 -.282E+02 -.260E+02   0.476E+01 0.313E+01 0.942E+00   0.555E-03 0.147E-03 -.365E-02
   -.558E+02 0.330E+02 0.234E+01   0.611E+02 -.356E+02 -.239E+01   -.525E+01 0.266E+01 0.388E-01   0.108E-03 -.121E-04 0.712E-03
   -.236E+01 -.698E+02 -.233E+02   0.316E+01 0.781E+02 0.236E+02   -.771E+00 -.826E+01 -.129E+00   -.106E-02 -.402E-03 0.914E-04
   -.621E+02 0.321E+02 -.230E+02   0.697E+02 -.354E+02 0.233E+02   -.759E+01 0.334E+01 -.107E+00   -.858E-03 -.352E-03 0.102E-03
   0.197E+03 -.115E+03 0.488E+01   -.225E+03 0.131E+03 -.498E+01   0.276E+02 -.156E+02 0.901E-01   0.496E-03 0.867E-03 0.642E-02
   -.154E+01 0.228E+03 0.499E+01   0.123E+01 -.260E+03 -.506E+01   0.308E+00 0.317E+02 0.630E-01   0.764E-03 -.407E-03 0.483E-02
   0.247E+02 0.154E+02 -.119E+03   -.648E+02 -.390E+02 0.119E+03   0.402E+02 0.236E+02 -.318E+00   -.972E-02 -.189E-03 0.257E-02
 -----------------------------------------------------------------------------------------------
   -.454E+02 -.266E+02 -.207E+01   0.128E-12 0.142E-13 -.426E-13   0.455E+02 0.265E+02 0.209E+01   -.505E-02 0.140E-02 0.376E-01
 
 
 POSITION                                       TOTAL-FORCE (eV/Angst)
 -----------------------------------------------------------------------------------
      8.62712     14.94732      7.51864        -0.000749     -0.004027      0.005949
     16.02600      2.12375      7.50910        -0.000156      0.000378      0.003614
     14.79011      4.26473      7.50570         0.000856     -0.000932      0.002128
     13.55418      6.40529      7.51106         0.001100     -0.001368      0.003347
     12.32527      8.54337      7.51895        -0.002494      0.001428      0.003411
     11.09857     10.67842      7.51855        -0.006296      0.001474      0.004200
      9.86306     12.81795      7.51777        -0.002427     -0.001736      0.003893
      2.46565      0.00158      7.51240        -0.001722     -0.002300      0.004312
      1.22517      2.13094      7.50488        -0.000914      0.000878      0.001866
     -0.02027      4.25594      7.49610        -0.000042      0.002230     -0.003156
     -1.25821      6.40016      7.49770         0.002126      0.000149     -0.003774
     -2.47551      8.54093      7.50689         0.003145      0.000730      0.000871
     -3.69917     10.68019      7.51325        -0.002117      0.000982      0.002728
     -4.93401     12.81980      7.51469        -0.004148     -0.000690      0.004816
      4.93772      0.00210      7.50829         0.000215     -0.000894      0.003464
      3.70459      2.14085      7.49851         0.002915      0.000337      0.000133
      2.45022      4.28689      7.47553         0.001730      0.004721     -0.008058
      1.19151      6.38498      7.45976         0.002522      0.002248     -0.014531
      0.00370      8.52414      7.47849         0.004100     -0.000395     -0.009713
     -1.22723     10.68326      7.49945         0.001309      0.000330     -0.002642
     -2.46312     12.82091      7.50771        -0.000820      0.001075      0.002311
      7.40543      0.00109      7.50543        -0.000393      0.000808      0.001975
      6.17615      2.14912      7.50098         0.003024     -0.000703     -0.000430
      4.94149      4.24396      7.48899         0.004063      0.001510     -0.005793
      1.21289     10.70284      7.48980         0.001768      0.000706     -0.008083
      0.01562     12.81945      7.50078        -0.000745      0.000918     -0.001391
      1.23231     14.95611      7.50205        -0.004371      0.003789     -0.000278
      8.63468      2.13536      7.50290        -0.000677     -0.000184      0.000431
      7.43201      4.32031      7.49071        -0.000234     -0.002018     -0.004846
      2.52331     12.82234      7.48926        -0.002108      0.000050     -0.006734
     12.33102      0.00469      7.49803        -0.001774      0.000077     -0.002285
     11.09939      2.13408      7.50554        -0.001782     -0.000781      0.001232
      9.87105      4.26581      7.49960        -0.001951     -0.002735     -0.001179
      8.59688      6.34937      7.46896        -0.002759     -0.000822     -0.011368
      7.42670      8.55139      7.34677        -0.002095     -0.003066     -0.034294
      6.18515     10.70131      7.34694        -0.002822     -0.002017     -0.033520
      4.86285     12.81642      7.46772        -0.001059     -0.001432     -0.010738
      6.15738     14.94795      7.50244         0.000393     -0.003534      0.000005
     13.56146      2.13193      7.50474        -0.000973     -0.000619      0.001547
     12.32864      4.26777      7.50608         0.000109     -0.008690      0.002382
     11.09050      6.40456      7.50425        -0.002283     -0.001136     -0.000523
      9.85357      8.53286      7.49759        -0.004377      0.000310     -0.005511
      8.63192     10.68052      7.48158        -0.005170      0.000051     -0.006622
      7.38221     12.81219      7.49788        -0.000881     -0.003733     -0.002287
     -0.00743      1.41521      7.51273        -0.000037      0.000961      0.003778
     -1.25246      3.54437      7.50504         0.000125     -0.000712      0.000982
     -2.49050      5.68871      7.50649        -0.001232      0.001231      0.001479
     -3.71143      7.83140      7.51376        -0.000938     -0.000192      0.002454
     -4.93951      9.96927      7.51931         0.000987     -0.003642      0.003486
     -6.17327     12.10434      7.51767         0.003327     -0.000543      0.004510
     -7.40585     14.24036      7.51847        -0.000722      0.001601      0.004918
      2.46728      1.42255      7.50505        -0.001445      0.000595      0.002451
      1.21865      3.55245      7.49328         0.003425     -0.003318     -0.002159
     -0.03989      5.67421      7.48698         0.000188      0.000218     -0.007334
     -1.24779      7.82457      7.49622        -0.000821      0.000975     -0.004555
     -2.46779      9.97088      7.50587        -0.001144     -0.000640     -0.000553
     -3.69804     12.10875      7.51188         0.000070     -0.001669      0.003272
     -4.93190     14.24590      7.51153        -0.001398      0.000118      0.004310
      4.94053      1.43414      7.50330        -0.004602      0.000731      0.000531
      3.71765      3.56877      7.48713        -0.003749     -0.002717     -0.004403
      2.40354      5.67168      7.44842         0.001046     -0.000952     -0.015900
      1.17922      7.79125      7.45063         0.000142      0.001120     -0.018311
      0.01636      9.98077      7.48873        -0.006243      0.000750     -0.006997
     -1.22158     12.10696      7.50330        -0.002033     -0.002254      0.001267
     -2.46652     14.24468      7.50770        -0.002159     -0.001452      0.003177
      7.40429      1.42537      7.50351        -0.003281     -0.000983      0.000507
      6.17074      3.58141      7.49520        -0.002453     -0.000737     -0.003033
      1.25325     12.09872      7.49477        -0.001444      0.000174     -0.004328
      0.00255     14.24535      7.50339         0.000062     -0.001671      0.000463
      9.86506      1.42144      7.50456         0.001268     -0.001806      0.000658
      8.64069      3.56345      7.49780         0.000721      0.000794     -0.001930
      2.47217     14.24772      7.49582         0.001347     -0.000879     -0.003472
     12.33047      1.42776      7.50440         0.000962     -0.000475      0.000720
     11.10304      3.55338      7.50520         0.001347      0.003408      0.001327
      9.85972      5.68377      7.49210         0.001001      0.001393     -0.004557
      8.60256      7.82011      7.44365        -0.001000     -0.001689     -0.016663
      7.39244      9.96505      7.39110        -0.000813     -0.001487     -0.024051
      6.13931     12.08539      7.44405        -0.002206     -0.001055     -0.014039
      4.91774     14.24296      7.49048        -0.000618      0.000281     -0.004583
     14.79316      1.41077      7.50629        -0.000488     -0.000195      0.001567
     13.55963      3.55444      7.50577        -0.000746      0.002591      0.002734
     12.32021      5.69457      7.50855        -0.000253      0.003644      0.002904
     11.08959      7.83096      7.51281         0.002724     -0.002976      0.001344
      9.85894      9.96068      7.50359         0.000875     -0.002905     -0.002537
      8.62169     12.10311      7.50342        -0.002623     -0.000836     -0.000042
      7.39234     14.23368      7.51235        -0.002402      0.001697      0.001565
      4.97549      5.32976      7.48271         0.000637     -0.001094     -0.009263
      3.31044      6.26346      7.43156         0.003458      0.003339     -0.020069
      2.14493      8.28096      7.43311         0.004344      0.001417     -0.020965
      5.23985     10.18706      7.19920        -0.001306     -0.007601     -0.064766
      6.50914      7.98878      7.19947        -0.007043      0.002583     -0.065939
      2.17023     10.18966      7.48395        -0.000400      0.000908     -0.011152
      4.29352      9.07628      8.03192         0.019221      0.010544      0.170231
      5.07376      7.74901      8.02936         0.020764      0.011690      0.170661
      7.42988      5.67531      7.47670        -0.000599      0.000103     -0.009505
      3.69566     12.14290      7.47580        -0.001850     -0.000281     -0.009934
      4.17109      8.11126      8.02332         0.016966      0.010530      0.082887
 -----------------------------------------------------------------------------------
    total drift:                                0.051561     -0.030728      0.058746


--------------------------------------------------------------------------------------------------------



  FREE ENERGIE OF THE ION-ELECTRON SYSTEM (eV)
  ---------------------------------------------------
  free  energy   TOTEN  =      -850.15599809 eV

  energy  without entropy=     -850.15599805  energy(sigma->0) =     -850.15599807
 
 d Force =-0.1045591E-03[-0.112E-03,-0.975E-04]  d Energy =-0.1052059E-03 0.647E-06
 d Force =-0.5993393E-01[-0.598E-01,-0.601E-01]  d Ewald  =-0.5993393E-01 0.395E-08


--------------------------------------------------------------------------------------------------------


    POTLOK:  cpu time      5.1944: real time      5.2223


--------------------------------------------------------------------------------------------------------


 NEB: the previous image is higher in energy: F
 NEB: the next image is higher in energy    : T
 NEB: only next energy greater

 NEB: Tangent
 ----------------------------------------------
      0.00301      0.00189     -0.01961
      0.00053      0.00047     -0.00964
     -0.00067     -0.00016     -0.00424
      0.00025      0.00044     -0.00849
      0.00304      0.00128     -0.01717
      0.00463      0.00221     -0.01893
      0.00473      0.00247     -0.01896
      0.00284      0.00101     -0.01293
      0.00043     -0.00064     -0.00478
     -0.00124     -0.00118      0.00715
     -0.00139     -0.00068      0.00881
      0.00002      0.00048     -0.00227
      0.00286      0.00125     -0.01203
      0.00373      0.00164     -0.01584
      0.00251      0.00123     -0.00962
      0.00114      0.00017      0.00076
     -0.00257     -0.00329      0.02739
     -0.00296     -0.00240      0.04941
     -0.00347     -0.00086      0.02977
      0.00151      0.00064      0.00474
      0.00276      0.00120     -0.00741
      0.00187      0.00135     -0.00505
      0.00109      0.00178     -0.00183
     -0.00073      0.00009      0.01054
      0.00044     -0.00022      0.01643
      0.00223      0.00068      0.00189
      0.00139      0.00087      0.00059
      0.00077      0.00151     -0.00212
      0.00063      0.00260      0.00771
      0.00270      0.00023      0.01330
      0.00119      0.00111      0.00327
      0.00046      0.00083     -0.00414
      0.00080      0.00086      0.00020
      0.00347      0.00171      0.02747
      0.00987      0.00479      0.14044
      0.00911      0.00717      0.14010
      0.00355      0.00281      0.03032
      0.00208      0.00191     -0.00311
      0.00027      0.00058     -0.00469
      0.00008      0.00045     -0.00564
      0.00190      0.00099     -0.00432
      0.00699      0.00253      0.00084
      0.00656      0.00403      0.01371
      0.00605      0.00528     -0.00059
      0.00087      0.00084     -0.01342
     -0.00084     -0.00019     -0.00388
     -0.00078     -0.00030     -0.00282
      0.00110      0.00034     -0.01057
      0.00351      0.00128     -0.01818
      0.00430      0.00200     -0.01868
      0.00328      0.00178     -0.01918
      0.00142      0.00046     -0.00546
     -0.00152     -0.00201      0.00862
     -0.00223     -0.00163      0.01985
     -0.00201     -0.00052      0.01040
      0.00175      0.00060     -0.00286
      0.00328      0.00125     -0.01203
      0.00305      0.00146     -0.01261
      0.00162      0.00108     -0.00463
     -0.00049     -0.00039      0.01313
     -0.00458     -0.00499      0.05865
     -0.00601     -0.00232      0.05976
      0.00031     -0.00041      0.01813
      0.00229      0.00075     -0.00105
      0.00230      0.00118     -0.00835
      0.00097      0.00160     -0.00351
      0.00040      0.00206      0.00373
      0.00227      0.00003      0.00936
      0.00180      0.00089     -0.00137
      0.00067      0.00099     -0.00267
      0.00049      0.00166      0.00190
      0.00155      0.00043      0.00674
      0.00050      0.00088     -0.00340
      0.00037      0.00068     -0.00460
      0.00219      0.00078      0.00658
      0.00851      0.00239      0.05057
      0.00553      0.00339      0.09834
      0.00659      0.00693      0.05012
      0.00194      0.00229      0.00929
      0.00071      0.00113     -0.00686
     -0.00036      0.00021     -0.00542
      0.00079      0.00055     -0.00773
      0.00432      0.00120     -0.01233
      0.00548      0.00263     -0.00554
      0.00519      0.00371     -0.00642
      0.00350      0.00366     -0.01331
     -0.00202     -0.00019      0.01718
     -0.00538     -0.00889      0.07692
     -0.01002     -0.00072      0.07904
     -0.00259      0.01876      0.27973
      0.01428     -0.01127      0.27979
     -0.00018     -0.00062      0.02319
     -0.05166     -0.03001     -0.50333
     -0.05002     -0.03200     -0.50319
      0.00240      0.00308      0.02013
      0.00402      0.00154      0.02439
     -0.04729     -0.02915     -0.48630

 NEB: forces: par spring, perp REAL, dneb     0.090424    0.140851    0.000000
 NEB: distance to prev, next image, angle between     1.058045    1.076130  149.782410
 NEB: projections on to tangent (spring, REAL)     0.090424   -0.236379

 stress matrix after NEB project (eV)
     -2.10676     -0.30475      0.04326
     -0.30475     -1.88138      0.00745
      0.04326      0.00745     -0.39399
  FORCES: max atom, RMS     0.026779    0.005333
  FORCE total and by dimension    0.052525    0.026652
  Stress total and by dimension    2.884937    2.106763
 OPT: skip step - force has converged


--------------------------------------------------------------------------------------------------------


  
 reached required accuracy - stopping structural energy minimisation
     LOOP+:  cpu time    290.6491: real time    292.7032
    4ORBIT:  cpu time      0.0000: real time      0.0000

 total amount of memory used by VASP MPI-rank0  1122708. kBytes
=======================================================================

   base      :      30000. kBytes
   nonlr-proj:       9001. kBytes
   fftplans  :     185212. kBytes
   grid      :     184190. kBytes
   one-center:        595. kBytes
   wavefun   :     713710. kBytes
 
  
  
 General timing and accounting informations for this job:
 ========================================================
  
                  Total CPU time used (sec):     2903.511
                            User time (sec):     2816.732
                          System time (sec):       86.779
                         Elapsed time (sec):     2925.944
  
                   Maximum memory used (kb):     1562836.
                   Average memory used (kb):          N/A
  
                          Minor page faults:       261665
                          Major page faults:           43
                 Voluntary context switches:         2504
