<?xml version="1.0" encoding="ISO-8859-1"?>
<modeling>
 <generator>
  <i name="program" type="string">vasp </i>
  <i name="version" type="string">6.4.2  </i>
  <i name="subversion" type="string">20Jul23 (build Aug 26 2025 15:10:52) complex                          parallel </i>
  <i name="platform" type="string">LinuxIFC </i>
  <i name="date" type="string">2025 12 02 </i>
  <i name="time" type="string">12:14:44 </i>
 </generator>
 <incar>
  <i type="int" name="ISTART">     0</i>
  <i type="string" name="ALGO">Normal</i>
  <i type="logical" name="ADDGRID"> T  </i>
  <i type="int" name="ISPIN">     2</i>
  <i type="int" name="IMIX">     4</i>
  <i name="AMIX">      0.20000000</i>
  <i name="BMIX">      0.00010000</i>
  <i name="AMIX_MAG">      0.80000000</i>
  <i name="BMIX_MAG">      0.00010000</i>
  <i type="int" name="ICHARG">     2</i>
  <i type="int" name="NELM">   200</i>
  <i type="int" name="IBRION">     3</i>
  <i name="EDIFF">      0.00001000</i>
  <i name="EDIFFG">     -0.03000000</i>
  <i type="int" name="NSW">   300</i>
  <i type="int" name="ISIF">     2</i>
  <i type="int" name="ISYM">     0</i>
  <i name="ENCUT">    520.00000000</i>
  <i name="POTIM">      0.00000000</i>
  <v name="MAGMOM">      0.60000000      0.60000000      0.60000000      0.60000000      0.60000000      0.60000000      0.60000000      0.60000000      0.60000000      0.60000000      0.60000000      0.60000000      0.60000000      0.60000000      0.60000000      0.60000000      0.60000000      0.60000000      0.60000000      0.60000000
      0.60000000      0.60000000      0.60000000      0.60000000      0.60000000      0.60000000      0.60000000      0.60000000      0.60000000      0.60000000      0.60000000      0.60000000      0.60000000      0.60000000      0.60000000      0.60000000      0.60000000      0.60000000      0.60000000      0.60000000
      0.60000000      0.60000000      0.60000000      0.60000000      0.60000000      0.60000000      0.60000000      0.60000000      0.60000000      0.60000000      0.60000000      0.60000000      0.60000000      0.60000000      0.60000000      0.60000000      0.60000000      0.60000000      0.60000000      0.60000000
      0.60000000      0.60000000      0.60000000      0.60000000      0.60000000      0.60000000      0.60000000      0.60000000      0.60000000      0.60000000      0.60000000      0.60000000      0.60000000      0.60000000      0.60000000      0.60000000      0.60000000      0.60000000      0.60000000      0.60000000
      0.60000000      0.60000000      0.60000000      0.60000000      0.60000000      0.60000000      0.60000000      0.60000000      0.60000000      0.60000000      0.60000000      0.60000000      0.60000000      0.60000000      0.60000000      0.60000000      0.60000000</v>
  <i type="string" name="LREAL">Auto</i>
  <i type="int" name="ISMEAR">     0</i>
  <i name="SIGMA">      0.05000000</i>
  <i type="logical" name="LWAVE"> F  </i>
  <i type="logical" name="LCHARG"> F  </i>
  <i type="logical" name="LASPH"> T  </i>
  <i type="int" name="IVDW">    12</i>
  <i name="SPRING">     -5.00000000</i>
 </incar>
 <primitive_cell>
  <structure name="primitive_cell" >
   <crystal>
    <varray name="basis" >
     <v>      17.27103806       0.00000000       0.00000000 </v>
     <v>      -8.63551903      14.95715771       0.00000000 </v>
     <v>       0.00000000       0.00000000      15.00000000 </v>
    </varray>
    <i name="volume">   3874.88459904 </i>
    <varray name="rec_basis" >
     <v>       0.05790040       0.03342881       0.00000000 </v>
     <v>       0.00000000       0.06685762       0.00000000 </v>
     <v>       0.00000000       0.00000000       0.06666667 </v>
    </varray>
   </crystal>
   <varray name="positions" >
    <v>       0.99918672       0.99934342       0.50125418 </v>
    <v>       0.99890553       0.14198791       0.50061075 </v>
    <v>       0.99891632       0.28512881       0.50037399 </v>
    <v>       0.99891341       0.42824374       0.50073124 </v>
    <v>       0.99923402       0.57119006       0.50127904 </v>
    <v>       0.99958406       0.71393451       0.50125745 </v>
    <v>       0.99956741       0.85697892       0.50119562 </v>
    <v>       0.14281725       0.00010716       0.50082678 </v>
    <v>       0.14217264       0.14246872       0.50032017 </v>
    <v>       0.14109419       0.28453970       0.49974570 </v>
    <v>       0.14109597       0.42789959       0.49985207 </v>
    <v>       0.14218014       0.57102741       0.50046781 </v>
    <v>       0.14284417       0.71405294       0.50089358 </v>
    <v>       0.14287286       0.85710373       0.50098237 </v>
    <v>       0.28596863       0.00014115       0.50055029 </v>
    <v>       0.28606380       0.14313158       0.49989904 </v>
    <v>       0.28517245       0.28660953       0.49836158 </v>
    <v>       0.28242453       0.42688130       0.49730875 </v>
    <v>       0.28516399       0.56990211       0.49856761 </v>
    <v>       0.28607306       0.71425714       0.49996942 </v>
    <v>       0.28597471       0.85717631       0.50051304 </v>
    <v>       0.42881582       0.00007329       0.50035912 </v>
    <v>       0.42944486       0.14368712       0.50007387 </v>
    <v>       0.42798584       0.28374323       0.49928253 </v>
    <v>       0.42801039       0.71556437       0.49933826 </v>
    <v>       0.42944418       0.85707665       0.50005544 </v>
    <v>       0.57131790       0.99992759       0.50013787 </v>
    <v>       0.57133545       0.14276350       0.50019542 </v>
    <v>       0.57474001       0.28884448       0.49939569 </v>
    <v>       0.57473662       0.85726846       0.49929817 </v>
    <v>       0.71412921       0.00031284       0.49987555 </v>
    <v>       0.71400036       0.14267927       0.50036979 </v>
    <v>       0.71413910       0.28520157       0.49998018 </v>
    <v>       0.71001697       0.42450424       0.49794816 </v>
    <v>       0.71587680       0.57172553       0.48971607 </v>
    <v>       0.71585830       0.71546850       0.48971464 </v>
    <v>       0.71000097       0.85687606       0.49785397 </v>
    <v>       0.85620876       0.99938751       0.50017115 </v>
    <v>       0.85648152       0.14253613       0.50031509 </v>
    <v>       0.85650051       0.28533526       0.50040108 </v>
    <v>       0.85624176       0.42819473       0.50029345 </v>
    <v>       0.85577174       0.57048824       0.49986984 </v>
    <v>       0.85683244       0.71407910       0.49878513 </v>
    <v>       0.85572881       0.85659080       0.49987622 </v>
    <v>       0.04687840       0.09461631       0.50084930 </v>
    <v>       0.04596410       0.23696621       0.50033608 </v>
    <v>       0.04596375       0.38033379       0.50042744 </v>
    <v>       0.04690184       0.52358989       0.50092132 </v>
    <v>       0.04725997       0.66652050       0.50129840 </v>
    <v>       0.04719970       0.80926779       0.50118902 </v>
    <v>       0.04723932       0.95207723       0.50123921 </v>
    <v>       0.19041255       0.09510919       0.50033099 </v>
    <v>       0.18931321       0.23750747       0.49955362 </v>
    <v>       0.18736786       0.37936268       0.49913983 </v>
    <v>       0.18931744       0.52313210       0.49975581 </v>
    <v>       0.19043032       0.66663114       0.50040000 </v>
    <v>       0.19066550       0.80956373       0.50079602 </v>
    <v>       0.19066702       0.95244909       0.50076719 </v>
    <v>       0.33400258       0.09588385       0.50022287 </v>
    <v>       0.33455606       0.23860060       0.49914133 </v>
    <v>       0.32875930       0.37919398       0.49654161 </v>
    <v>       0.32872465       0.52090115       0.49668916 </v>
    <v>       0.33459197       0.66728963       0.49925297 </v>
    <v>       0.33399242       0.80944227       0.50022382 </v>
    <v>       0.33337328       0.95236621       0.50050956 </v>
    <v>       0.47636010       0.09529750       0.50023651 </v>
    <v>       0.47700994       0.23944701       0.49969372 </v>
    <v>       0.47700966       0.80889035       0.49966624 </v>
    <v>       0.47635461       0.95240942       0.50022424 </v>
    <v>       0.61870912       0.09503190       0.50030567 </v>
    <v>       0.61942140       0.23824177       0.49985618 </v>
    <v>       0.61942480       0.95256599       0.49972809 </v>
    <v>       0.76166762       0.09545589       0.50029445 </v>
    <v>       0.76165625       0.23757087       0.50034636 </v>
    <v>       0.76088417       0.38000336       0.49948802 </v>
    <v>       0.75951057       0.52283420       0.49624797 </v>
    <v>       0.76114939       0.66624215       0.49270218 </v>
    <v>       0.75947052       0.80800084       0.49625990 </v>
    <v>       0.76086624       0.95225121       0.49937429 </v>
    <v>       0.90369053       0.09432022       0.50042304 </v>
    <v>       0.90392800       0.23764223       0.50037933 </v>
    <v>       0.90370846       0.38072740       0.50056566 </v>
    <v>       0.90387359       0.52356068       0.50087635 </v>
    <v>       0.90381343       0.66595010       0.50026674 </v>
    <v>       0.90379267       0.80918662       0.50024232 </v>
    <v>       0.90383527       0.95163024       0.50083932 </v>
    <v>       0.46624928       0.35633718       0.49887044 </v>
    <v>       0.40105013       0.41876343       0.49540178 </v>
    <v>       0.40100855       0.55363787       0.49550756 </v>
    <v>       0.64394455       0.68109399       0.47974516 </v>
    <v>       0.64395400       0.53411555       0.47976874 </v>
    <v>       0.46628399       0.68125173       0.49895233 </v>
    <v>       0.55198700       0.60681319       0.53542684 </v>
    <v>       0.55278148       0.51807119       0.53525293 </v>
    <v>       0.61991245       0.37943644       0.49846982 </v>
    <v>       0.61990380       0.81184389       0.49840425 </v>
    <v>       0.51262664       0.54229387       0.53488800 </v>
   </varray>
  </structure>
  <varray name="primitive_index" >
   <v type="int" >        1 </v>
   <v type="int" >        2 </v>
   <v type="int" >        3 </v>
   <v type="int" >        4 </v>
   <v type="int" >        5 </v>
   <v type="int" >        6 </v>
   <v type="int" >        7 </v>
   <v type="int" >        8 </v>
   <v type="int" >        9 </v>
   <v type="int" >       10 </v>
   <v type="int" >       11 </v>
   <v type="int" >       12 </v>
   <v type="int" >       13 </v>
   <v type="int" >       14 </v>
   <v type="int" >       15 </v>
   <v type="int" >       16 </v>
   <v type="int" >       17 </v>
   <v type="int" >       18 </v>
   <v type="int" >       19 </v>
   <v type="int" >       20 </v>
   <v type="int" >       21 </v>
   <v type="int" >       22 </v>
   <v type="int" >       23 </v>
   <v type="int" >       24 </v>
   <v type="int" >       25 </v>
   <v type="int" >       26 </v>
   <v type="int" >       27 </v>
   <v type="int" >       28 </v>
   <v type="int" >       29 </v>
   <v type="int" >       30 </v>
   <v type="int" >       31 </v>
   <v type="int" >       32 </v>
   <v type="int" >       33 </v>
   <v type="int" >       34 </v>
   <v type="int" >       35 </v>
   <v type="int" >       36 </v>
   <v type="int" >       37 </v>
   <v type="int" >       38 </v>
   <v type="int" >       39 </v>
   <v type="int" >       40 </v>
   <v type="int" >       41 </v>
   <v type="int" >       42 </v>
   <v type="int" >       43 </v>
   <v type="int" >       44 </v>
   <v type="int" >       45 </v>
   <v type="int" >       46 </v>
   <v type="int" >       47 </v>
   <v type="int" >       48 </v>
   <v type="int" >       49 </v>
   <v type="int" >       50 </v>
   <v type="int" >       51 </v>
   <v type="int" >       52 </v>
   <v type="int" >       53 </v>
   <v type="int" >       54 </v>
   <v type="int" >       55 </v>
   <v type="int" >       56 </v>
   <v type="int" >       57 </v>
   <v type="int" >       58 </v>
   <v type="int" >       59 </v>
   <v type="int" >       60 </v>
   <v type="int" >       61 </v>
   <v type="int" >       62 </v>
   <v type="int" >       63 </v>
   <v type="int" >       64 </v>
   <v type="int" >       65 </v>
   <v type="int" >       66 </v>
   <v type="int" >       67 </v>
   <v type="int" >       68 </v>
   <v type="int" >       69 </v>
   <v type="int" >       70 </v>
   <v type="int" >       71 </v>
   <v type="int" >       72 </v>
   <v type="int" >       73 </v>
   <v type="int" >       74 </v>
   <v type="int" >       75 </v>
   <v type="int" >       76 </v>
   <v type="int" >       77 </v>
   <v type="int" >       78 </v>
   <v type="int" >       79 </v>
   <v type="int" >       80 </v>
   <v type="int" >       81 </v>
   <v type="int" >       82 </v>
   <v type="int" >       83 </v>
   <v type="int" >       84 </v>
   <v type="int" >       85 </v>
   <v type="int" >       86 </v>
   <v type="int" >       87 </v>
   <v type="int" >       88 </v>
   <v type="int" >       89 </v>
   <v type="int" >       90 </v>
   <v type="int" >       91 </v>
   <v type="int" >       92 </v>
   <v type="int" >       93 </v>
   <v type="int" >       94 </v>
   <v type="int" >       95 </v>
   <v type="int" >       96 </v>
   <v type="int" >       97 </v>
  </varray>
 </primitive_cell>
 <kpoints>
  <generation param="Gamma">
   <v type="int" name="divisions">       2        2        1 </v>
   <v name="usershift">      0.00000000       0.00000000       0.00000000 </v>
   <v name="genvec1">      0.50000000       0.00000000       0.00000000 </v>
   <v name="genvec2">      0.00000000       0.50000000       0.00000000 </v>
   <v name="genvec3">      0.00000000       0.00000000       1.00000000 </v>
   <v name="shift">      0.00000000       0.00000000       0.00000000 </v>
  </generation>
  <varray name="kpointlist" >
   <v>       0.00000000       0.00000000       0.00000000 </v>
   <v>       0.50000000       0.00000000       0.00000000 </v>
   <v>       0.00000000       0.50000000       0.00000000 </v>
   <v>       0.50000000       0.50000000       0.00000000 </v>
  </varray>
  <varray name="weights" >
   <v>       0.25000000 </v>
   <v>       0.25000000 </v>
   <v>       0.25000000 </v>
   <v>       0.25000000 </v>
  </varray>
 </kpoints>
 <parameters>
  <separator name="general" >
   <i type="string" name="SYSTEM">unknown system</i>
   <i type="logical" name="LCOMPAT"> F  </i>
  </separator>
  <separator name="electronic" >
   <i type="string" name="PREC">normal</i>
   <i name="ENMAX">    520.00000000</i>
   <i name="ENAUG">    644.87300000</i>
   <i name="EDIFF">      0.00001000</i>
   <i type="int" name="IALGO">    38</i>
   <i type="int" name="IWAVPR">    11</i>
   <i type="int" name="NBANDS">   265</i>
   <i type="int" name="NBANDSLOW">    -1</i>
   <i type="int" name="NBANDSHIGH">    -1</i>
   <i name="NELECT">    368.00000000</i>
   <i type="int" name="TURBO">     0</i>
   <i type="int" name="IRESTART">     0</i>
   <i type="int" name="NREBOOT">     0</i>
   <i type="int" name="NMIN">     0</i>
   <i name="EREF">      0.00000000</i>
   <separator name="electronic smearing" >
    <i type="int" name="ISMEAR">     0</i>
    <i name="SIGMA">      0.05000000</i>
    <i name="KSPACING">      0.50000000</i>
    <i type="logical" name="KGAMMA"> T  </i>
    <i type="logical" name="KBLOWUP"> T  </i>
   </separator>
   <separator name="electronic projectors" >
    <i type="logical" name="LREAL"> T  </i>
    <v name="ROPT">     -0.00050000     -0.00050000     -0.00050000     -0.00050000</v>
    <i type="int" name="LMAXPAW">  -100</i>
    <i type="int" name="LMAXMIX">     2</i>
    <i type="logical" name="NLSPLINE"> F  </i>
   </separator>
   <separator name="electronic startup" >
    <i type="int" name="ISTART">     0</i>
    <i type="int" name="ICHARG">     2</i>
    <i type="int" name="INIWAV">     1</i>
   </separator>
   <separator name="electronic spin" >
    <i type="int" name="ISPIN">     2</i>
    <i type="logical" name="LNONCOLLINEAR"> F  </i>
    <v name="MAGMOM">      0.60000000      0.60000000      0.60000000      0.60000000      0.60000000      0.60000000      0.60000000      0.60000000      0.60000000      0.60000000      0.60000000      0.60000000      0.60000000      0.60000000      0.60000000      0.60000000      0.60000000      0.60000000      0.60000000      0.60000000
      0.60000000      0.60000000      0.60000000      0.60000000      0.60000000      0.60000000      0.60000000      0.60000000      0.60000000      0.60000000      0.60000000      0.60000000      0.60000000      0.60000000      0.60000000      0.60000000      0.60000000      0.60000000      0.60000000      0.60000000
      0.60000000      0.60000000      0.60000000      0.60000000      0.60000000      0.60000000      0.60000000      0.60000000      0.60000000      0.60000000      0.60000000      0.60000000      0.60000000      0.60000000      0.60000000      0.60000000      0.60000000      0.60000000      0.60000000      0.60000000
      0.60000000      0.60000000      0.60000000      0.60000000      0.60000000      0.60000000      0.60000000      0.60000000      0.60000000      0.60000000      0.60000000      0.60000000      0.60000000      0.60000000      0.60000000      0.60000000      0.60000000      0.60000000      0.60000000      0.60000000
      0.60000000      0.60000000      0.60000000      0.60000000      0.60000000      0.60000000      0.60000000      0.60000000      0.60000000      0.60000000      0.60000000      0.60000000      0.60000000      0.60000000      0.60000000      0.60000000      0.60000000</v>
    <i name="NUPDOWN">     -1.00000000</i>
    <i type="logical" name="LSORBIT"> F  </i>
    <v name="SAXIS">      0.00000000      0.00000000      1.00000000</v>
    <i type="logical" name="LSPIRAL"> F  </i>
    <v name="QSPIRAL">      0.00000000      0.00000000      0.00000000</v>
    <i type="logical" name="LZEROZ"> F  </i>
   </separator>
   <separator name="electronic exchange-correlation" >
    <i type="logical" name="LASPH"> T  </i>
    <i type="logical" name="LMETAGGA"> F  </i>
   </separator>
   <separator name="electronic convergence" >
    <i type="int" name="NELM">   200</i>
    <i type="int" name="NELMDL">    -5</i>
    <i type="int" name="NELMIN">     2</i>
    <i name="ENINI">    520.00000000</i>
    <separator name="electronic convergence detail" >
     <i type="logical" name="LDIAG"> T  </i>
     <i type="logical" name="LSUBROT"> F  </i>
     <i name="WEIMIN">      0.00100000</i>
     <i name="EBREAK">      0.00000001</i>
     <i name="DEPER">      0.30000000</i>
     <i type="int" name="NRMM">     4</i>
     <i name="TIME">      0.40000000</i>
    </separator>
   </separator>
   <separator name="electronic mixer" >
    <i name="AMIX">      0.20000000</i>
    <i name="BMIX">      0.00010000</i>
    <i name="AMIN">      0.10000000</i>
    <i name="AMIX_MAG">      0.80000000</i>
    <i name="BMIX_MAG">      0.00010000</i>
    <separator name="electronic mixer details" >
     <i type="int" name="IMIX">     4</i>
     <i type="logical" name="MIXFIRST"> F  </i>
     <i type="int" name="MAXMIX">   -45</i>
     <i name="WC">    100.00000000</i>
     <i type="int" name="INIMIX">     1</i>
     <i type="int" name="MIXPRE">     1</i>
     <i type="int" name="MREMOVE">     5</i>
    </separator>
   </separator>
   <separator name="electronic dipolcorrection" >
    <i type="logical" name="LDIPOL"> F  </i>
    <i type="logical" name="LMONO"> F  </i>
    <i type="int" name="IDIPOL">     0</i>
    <i name="EPSILON">      1.00000000</i>
    <v name="DIPOL">   -100.00000000   -100.00000000   -100.00000000</v>
    <i name="EFIELD">      0.00000000</i>
   </separator>
  </separator>
  <separator name="grids" >
   <i type="int" name="NGX">    96</i>
   <i type="int" name="NGY">    96</i>
   <i type="int" name="NGZ">    84</i>
   <i type="int" name="NGXF">   192</i>
   <i type="int" name="NGYF">   192</i>
   <i type="int" name="NGZF">   168</i>
   <i type="logical" name="ADDGRID"> T  </i>
  </separator>
  <separator name="ionic" >
   <i type="int" name="NSW">   300</i>
   <i type="int" name="IBRION">     3</i>
   <i type="int" name="MDALGO">     0</i>
   <i type="int" name="ISIF">     2</i>
   <i name="PSTRESS">      0.00000000</i>
   <i name="EDIFFG">     -0.03000000</i>
   <i type="int" name="NFREE">     0</i>
   <i name="POTIM">      0.00000000</i>
   <i name="SMASS">     -3.00000000</i>
   <i name="SCALEE">      1.00000000</i>
  </separator>
  <separator name="ionic md" >
   <i name="TEBEG">      0.00010000</i>
   <i name="TEEND">      0.00010000</i>
   <i type="int" name="NBLOCK">     1</i>
   <i type="int" name="KBLOCK">   300</i>
   <i type="int" name="NPACO">   256</i>
   <i name="APACO">     10.00000000</i>
  </separator>
  <separator name="symmetry" >
   <i type="int" name="ISYM">     0</i>
   <i name="SYMPREC">      0.00001000</i>
  </separator>
  <separator name="dos" >
   <i type="int" name="LORBIT">     0</i>
   <v name="RWIGS">     -1.00000000     -1.00000000     -1.00000000     -1.00000000</v>
   <i type="int" name="NEDOS">   301</i>
   <i name="EMIN">     10.00000000</i>
   <i name="EMAX">    -10.00000000</i>
   <i name="EFERMI">      0.00000000</i>
  </separator>
  <separator name="writing" >
   <i type="int" name="NWRITE">     2</i>
   <i type="logical" name="LWAVE"> F  </i>
   <i type="logical" name="LDOWNSAMPLE"> F  </i>
   <i type="logical" name="LCHARG"> F  </i>
   <i type="logical" name="LPARD"> F  </i>
   <i type="logical" name="LVTOT"> F  </i>
   <i type="logical" name="LVHAR"> F  </i>
   <i type="logical" name="LELF"> F  </i>
   <i type="logical" name="LOPTICS"> F  </i>
   <v name="STM">      0.00000000      0.00000000      0.00000000      0.00000000      0.00000000      0.00000000      0.00000000</v>
  </separator>
  <separator name="performance" >
   <i type="int" name="NPAR">     5</i>
   <i type="int" name="NSIM">     4</i>
   <i type="int" name="NBLK">    -1</i>
   <i type="logical" name="LPLANE"> T  </i>
   <i type="logical" name="LSCALAPACK"> T  </i>
   <i type="logical" name="LSCAAWARE"> F  </i>
   <i type="logical" name="LSCALU"> F  </i>
   <i type="logical" name="LASYNC"> F  </i>
   <i type="logical" name="LORBITALREAL"> F  </i>
  </separator>
  <separator name="miscellaneous" >
   <i type="int" name="IDIOT">     3</i>
   <i type="int" name="PHON_NSTRUCT">    -1</i>
   <i type="logical" name="LMUSIC"> F  </i>
   <v name="POMASS">     12.01100000      1.00000000     14.00100000     16.00000000</v>
   <v name="DARWINR">      0.00000000      0.00000000      0.00000000      0.00000000</v>
   <v name="DARWINV">      1.00000000      1.00000000      1.00000000      1.00000000</v>
   <i type="logical" name="LCORR"> T  </i>
  </separator>
  <i type="logical" name="GGA_COMPAT"> T  </i>
  <i type="logical" name="LBERRY"> F  </i>
  <i type="int" name="ICORELEVEL">     0</i>
  <i type="logical" name="LDAU"> F  </i>
  <i type="int" name="I_CONSTRAINED_M">     0</i>
  <separator name="electronic exchange-correlation" >
   <i type="string" name="GGA">--</i>
   <i type="int" name="VOSKOWN">     0</i>
   <i type="logical" name="LHFCALC"> F  </i>
   <i type="string" name="PRECFOCK"></i>
   <i type="logical" name="LSYMGRAD"> F  </i>
   <i type="logical" name="LHFONE"> F  </i>
   <i type="logical" name="LRHFCALC"> F  </i>
   <i type="logical" name="LTHOMAS"> F  </i>
   <i type="logical" name="LMODELHF"> F  </i>
   <i type="logical" name="LFOCKACE"> F  </i>
   <i name="ENCUT4O">     -1.00000000</i>
   <i type="int" name="EXXOEP">     0</i>
   <i type="int" name="FOURORBIT">     0</i>
   <i name="AEXX">      0.00000000</i>
   <i name="HFALPHA">      0.00000000</i>
   <i name="MCALPHA">      0.00000000</i>
   <i name="ALDAX">      1.00000000</i>
   <i name="AGGAX">      1.00000000</i>
   <i name="ALDAC">      1.00000000</i>
   <i name="AGGAC">      1.00000000</i>
   <i type="int" name="NKREDX">     1</i>
   <i type="int" name="NKREDY">     1</i>
   <i type="int" name="NKREDZ">     1</i>
   <i type="logical" name="SHIFTRED"> F  </i>
   <i type="logical" name="ODDONLY"> F  </i>
   <i type="logical" name="EVENONLY"> F  </i>
   <i type="int" name="LMAXFOCK">     0</i>
   <i type="int" name="NMAXFOCKAE">     0</i>
   <i type="logical" name="LFOCKAEDFT"> F  </i>
   <i name="HFSCREEN">      0.00000000</i>
   <i name="HFSCREENC">      0.00000000</i>
   <i type="int" name="NBANDSGWLOW">     0</i>
  </separator>
  <separator name="vdW DFT" >
   <i type="logical" name="LUSE_VDW"> F  </i>
   <i type="int" name="IVDW_NL">     1</i>
   <i type="logical" name="LSPIN_VDW"> F  </i>
   <i name="Zab_VDW">     -0.84910000</i>
   <i name="PARAM1">      0.12340000</i>
   <i name="PARAM2">      1.00000000</i>
   <i name="PARAM3">      0.00000000</i>
  </separator>
  <separator name="model GW" >
   <i type="int" name="MODEL_GW">     0</i>
   <i name="MODEL_EPS0">     23.96835834</i>
   <i name="MODEL_ALPHA">      1.00000000</i>
  </separator>
  <separator name="linear response parameters" >
   <i type="logical" name="LEPSILON"> F  </i>
   <i type="logical" name="LRPA"> F  </i>
   <i type="logical" name="LNABLA"> F  </i>
   <i type="logical" name="LVEL"> F  </i>
   <i name="CSHIFT">      0.10000000</i>
   <i name="OMEGAMAX">     -1.00000000</i>
   <i name="DEG_THRESHOLD">      0.00200000</i>
   <i name="RTIME">     -0.10000000</i>
   <i name="WPLASMAI">      0.00000000</i>
   <v name="DFIELD">      0.00000000      0.00000000      0.00000000</v>
   <v name="WPLASMA">      0.00000000      0.00000000      0.00000000      0.00000000      0.00000000      0.00000000      0.00000000      0.00000000      0.00000000</v>
  </separator>
  <separator name="orbital magnetization" >
   <i type="logical" name="NUCIND"> F  </i>
   <v name="MAGPOS">      0.00000000      0.00000000      0.00000000</v>
   <i type="logical" name="LNICSALL"> T  </i>
   <i type="logical" name="ORBITALMAG"> F  </i>
   <i type="logical" name="LMAGBLOCH"> F  </i>
   <i type="logical" name="LCHIMAG"> F  </i>
   <i type="logical" name="LGAUGE"> T  </i>
   <i type="int" name="MAGATOM">     0</i>
   <v name="MAGDIPOL">      0.00000000      0.00000000      0.00000000</v>
   <v name="AVECCONST">      0.00000000      0.00000000      0.00000000</v>
  </separator>
  <separator name="response functions" >
   <i type="logical" name="LALL_IN_ONE"> F  </i>
   <i type="int" name="IALL_IN_ONE">    -1</i>
   <i type="int" name="NBANDS_WAVE">    -1</i>
   <i type="logical" name="LFINITE_TEMPERATURE"> F  </i>
   <i type="logical" name="LADDER"> F  </i>
   <i type="logical" name="LRPAFORCE"> F  </i>
   <i type="logical" name="LFXC"> F  </i>
   <i type="logical" name="LHARTREE"> T  </i>
   <i type="int" name="IBSE">     0</i>
   <v type="int" name="KPOINT">    -1     0     0     0</v>
   <i type="logical" name="LTCTC"> F  </i>
   <i type="logical" name="LTCTE"> F  </i>
   <i type="logical" name="LTETE"> F  </i>
   <i type="logical" name="LTRIPLET"> F  </i>
   <i type="logical" name="LFXCEPS"> F  </i>
   <i type="logical" name="LFXHEG"> F  </i>
   <i type="int" name="NATURALO">     2</i>
   <i type="logical" name="LHOLEGF"> F  </i>
   <i type="logical" name="L2ORDER"> F  </i>
   <i type="logical" name="LDMP1"> F  </i>
   <i type="logical" name="LMP2LT"> F  </i>
   <i type="logical" name="LSMP2LT"> F  </i>
   <i type="logical" name="LGWLF"> F  </i>
   <i name="ENCUTGW">     -1.60000002</i>
   <i name="ENCUTGWSOFT">     -1.60000002</i>
   <i name="ENCUTLF">     -1.00000000</i>
   <i type="logical" name="LESF_SPLINES"> F  </i>
   <i type="int" name="LMAXMP2">    -1</i>
   <i name="SCISSOR">      0.00000000</i>
   <i type="int" name="NOMEGA">     0</i>
   <i type="int" name="NOMEGAR">     0</i>
   <i type="int" name="NBANDSGW">    -1</i>
   <i type="int" name="NBANDSO">    -1</i>
   <i type="int" name="NBANDSV">    -1</i>
   <i type="int" name="NELMGW">     1</i>
   <i type="int" name="NELMHF">     1</i>
   <i type="int" name="DIM">     3</i>
   <i type="int" name="IESPILON">     4</i>
   <i type="int" name="ANTIRES">     0</i>
   <i name="OMEGAMAX">    -30.00000000</i>
   <i name="OMEGAMIN">    -30.00000000</i>
   <i name="OMEGATL">   -200.00000000</i>
   <i type="int" name="OMEGAGRID">     0</i>
   <i name="CSHIFT">     -0.10000000</i>
   <i type="logical" name="LSELFENERGY"> F  </i>
   <i type="logical" name="LSPECTRAL"> F  </i>
   <i type="logical" name="LSPECTRALGW"> F  </i>
   <i type="logical" name="LSINGLES"> F  </i>
   <i type="logical" name="LFERMIGW"> F  </i>
   <i type="logical" name="ODDONLYGW"> F  </i>
   <i type="logical" name="EVENONLYGW"> F  </i>
   <i type="int" name="NKREDLFX">     1</i>
   <i type="int" name="NKREDLFY">     1</i>
   <i type="int" name="NKREDLFZ">     1</i>
   <i type="int" name="MAXMEM">  2800</i>
   <i type="int" name="TELESCOPE">     0</i>
   <i type="int" name="NTAUPAR">    -1</i>
   <i type="int" name="NOMEGAPAR">    -1</i>
   <i name="DAMP_NEWTON">      0.80000001</i>
   <i name="LAMBDA">      1.00000000</i>
  </separator>
  <separator name="External order field" >
   <i name="OFIELD_KAPPA">      0.00000000</i>
   <v name="OFIELD_K">      0.00000000      0.00000000      0.00000000</v>
   <i name="OFIELD_Q6_NEAR">      0.00000000</i>
   <i name="OFIELD_Q6_FAR">      0.00000000</i>
   <i name="OFIELD_A">      0.00000000</i>
  </separator>
  <separator name="optional k-points parameters" >
   <i type="int" name="KPOINTS_OPT_MODE">     1</i>
   <i type="logical" name="LKPOINTS_OPT"> F  </i>
  </separator>
 </parameters>
 <atominfo>
  <atoms>      97 </atoms>
  <types>       4 </types>
  <array name="atoms" >
   <dimension dim="1">ion</dimension>
   <field type="string">element</field>
   <field type="int">atomtype</field>
   <set>
    <rc><c>C </c><c>   1</c></rc>
    <rc><c>C </c><c>   1</c></rc>
    <rc><c>C </c><c>   1</c></rc>
    <rc><c>C </c><c>   1</c></rc>
    <rc><c>C </c><c>   1</c></rc>
    <rc><c>C </c><c>   1</c></rc>
    <rc><c>C </c><c>   1</c></rc>
    <rc><c>C </c><c>   1</c></rc>
    <rc><c>C </c><c>   1</c></rc>
    <rc><c>C </c><c>   1</c></rc>
    <rc><c>C </c><c>   1</c></rc>
    <rc><c>C </c><c>   1</c></rc>
    <rc><c>C </c><c>   1</c></rc>
    <rc><c>C </c><c>   1</c></rc>
    <rc><c>C </c><c>   1</c></rc>
    <rc><c>C </c><c>   1</c></rc>
    <rc><c>C </c><c>   1</c></rc>
    <rc><c>C </c><c>   1</c></rc>
    <rc><c>C </c><c>   1</c></rc>
    <rc><c>C </c><c>   1</c></rc>
    <rc><c>C </c><c>   1</c></rc>
    <rc><c>C </c><c>   1</c></rc>
    <rc><c>C </c><c>   1</c></rc>
    <rc><c>C </c><c>   1</c></rc>
    <rc><c>C </c><c>   1</c></rc>
    <rc><c>C </c><c>   1</c></rc>
    <rc><c>C </c><c>   1</c></rc>
    <rc><c>C </c><c>   1</c></rc>
    <rc><c>C </c><c>   1</c></rc>
    <rc><c>C </c><c>   1</c></rc>
    <rc><c>C </c><c>   1</c></rc>
    <rc><c>C </c><c>   1</c></rc>
    <rc><c>C </c><c>   1</c></rc>
    <rc><c>C </c><c>   1</c></rc>
    <rc><c>C </c><c>   1</c></rc>
    <rc><c>C </c><c>   1</c></rc>
    <rc><c>C </c><c>   1</c></rc>
    <rc><c>C </c><c>   1</c></rc>
    <rc><c>C </c><c>   1</c></rc>
    <rc><c>C </c><c>   1</c></rc>
    <rc><c>C </c><c>   1</c></rc>
    <rc><c>C </c><c>   1</c></rc>
    <rc><c>C </c><c>   1</c></rc>
    <rc><c>C </c><c>   1</c></rc>
    <rc><c>C </c><c>   1</c></rc>
    <rc><c>C </c><c>   1</c></rc>
    <rc><c>C </c><c>   1</c></rc>
    <rc><c>C </c><c>   1</c></rc>
    <rc><c>C </c><c>   1</c></rc>
    <rc><c>C </c><c>   1</c></rc>
    <rc><c>C </c><c>   1</c></rc>
    <rc><c>C </c><c>   1</c></rc>
    <rc><c>C </c><c>   1</c></rc>
    <rc><c>C </c><c>   1</c></rc>
    <rc><c>C </c><c>   1</c></rc>
    <rc><c>C </c><c>   1</c></rc>
    <rc><c>C </c><c>   1</c></rc>
    <rc><c>C </c><c>   1</c></rc>
    <rc><c>C </c><c>   1</c></rc>
    <rc><c>C </c><c>   1</c></rc>
    <rc><c>C </c><c>   1</c></rc>
    <rc><c>C </c><c>   1</c></rc>
    <rc><c>C </c><c>   1</c></rc>
    <rc><c>C </c><c>   1</c></rc>
    <rc><c>C </c><c>   1</c></rc>
    <rc><c>C </c><c>   1</c></rc>
    <rc><c>C </c><c>   1</c></rc>
    <rc><c>C </c><c>   1</c></rc>
    <rc><c>C </c><c>   1</c></rc>
    <rc><c>C </c><c>   1</c></rc>
    <rc><c>C </c><c>   1</c></rc>
    <rc><c>C </c><c>   1</c></rc>
    <rc><c>C </c><c>   1</c></rc>
    <rc><c>C </c><c>   1</c></rc>
    <rc><c>C </c><c>   1</c></rc>
    <rc><c>C </c><c>   1</c></rc>
    <rc><c>C </c><c>   1</c></rc>
    <rc><c>C </c><c>   1</c></rc>
    <rc><c>C </c><c>   1</c></rc>
    <rc><c>C </c><c>   1</c></rc>
    <rc><c>C </c><c>   1</c></rc>
    <rc><c>C </c><c>   1</c></rc>
    <rc><c>C </c><c>   1</c></rc>
    <rc><c>C </c><c>   1</c></rc>
    <rc><c>C </c><c>   1</c></rc>
    <rc><c>C </c><c>   1</c></rc>
    <rc><c>H </c><c>   2</c></rc>
    <rc><c>H </c><c>   2</c></rc>
    <rc><c>H </c><c>   2</c></rc>
    <rc><c>H </c><c>   2</c></rc>
    <rc><c>H </c><c>   2</c></rc>
    <rc><c>H </c><c>   2</c></rc>
    <rc><c>H </c><c>   2</c></rc>
    <rc><c>H </c><c>   2</c></rc>
    <rc><c>N </c><c>   3</c></rc>
    <rc><c>N </c><c>   3</c></rc>
    <rc><c>O </c><c>   4</c></rc>
   </set>
  </array>
  <array name="atomtypes" >
   <dimension dim="1">type</dimension>
   <field type="int">atomspertype</field>
   <field type="string">element</field>
   <field>mass</field>
   <field>valence</field>
   <field type="string">pseudopotential</field>
   <set>
    <rc><c>  86</c><c>C </c><c>     12.01100000</c><c>      4.00000000</c><c>  PAW_PBE C 08Apr2002                   </c></rc>
    <rc><c>   8</c><c>H </c><c>      1.00000000</c><c>      1.00000000</c><c>  PAW_PBE H 15Jun2001                   </c></rc>
    <rc><c>   2</c><c>N </c><c>     14.00100000</c><c>      5.00000000</c><c>  PAW_PBE N 08Apr2002                   </c></rc>
    <rc><c>   1</c><c>O </c><c>     16.00000000</c><c>      6.00000000</c><c>  PAW_PBE O 08Apr2002                   </c></rc>
   </set>
  </array>
 </atominfo>
 <structure name="initialpos" >
  <crystal>
   <varray name="basis" >
    <v>      17.27103806       0.00000000       0.00000000 </v>
    <v>      -8.63551903      14.95715771       0.00000000 </v>
    <v>       0.00000000       0.00000000      15.00000000 </v>
   </varray>
   <i name="volume">   3874.88459904 </i>
   <varray name="rec_basis" >
    <v>       0.05790040       0.03342881       0.00000000 </v>
    <v>       0.00000000       0.06685762       0.00000000 </v>
    <v>       0.00000000       0.00000000       0.06666667 </v>
   </varray>
  </crystal>
  <varray name="positions" >
   <v>       0.99918672       0.99934342       0.50125418 </v>
   <v>       0.99890553       0.14198791       0.50061075 </v>
   <v>       0.99891632       0.28512881       0.50037399 </v>
   <v>       0.99891341       0.42824374       0.50073124 </v>
   <v>       0.99923402       0.57119006       0.50127904 </v>
   <v>       0.99958406       0.71393451       0.50125745 </v>
   <v>       0.99956741       0.85697892       0.50119562 </v>
   <v>       0.14281725       0.00010716       0.50082678 </v>
   <v>       0.14217264       0.14246872       0.50032017 </v>
   <v>       0.14109419       0.28453970       0.49974570 </v>
   <v>       0.14109597       0.42789959       0.49985207 </v>
   <v>       0.14218014       0.57102741       0.50046781 </v>
   <v>       0.14284417       0.71405294       0.50089358 </v>
   <v>       0.14287286       0.85710373       0.50098237 </v>
   <v>       0.28596863       0.00014115       0.50055029 </v>
   <v>       0.28606380       0.14313158       0.49989904 </v>
   <v>       0.28517245       0.28660953       0.49836158 </v>
   <v>       0.28242453       0.42688130       0.49730875 </v>
   <v>       0.28516399       0.56990211       0.49856761 </v>
   <v>       0.28607306       0.71425714       0.49996942 </v>
   <v>       0.28597471       0.85717631       0.50051304 </v>
   <v>       0.42881582       0.00007329       0.50035912 </v>
   <v>       0.42944486       0.14368712       0.50007387 </v>
   <v>       0.42798584       0.28374323       0.49928253 </v>
   <v>       0.42801039       0.71556437       0.49933826 </v>
   <v>       0.42944418       0.85707665       0.50005544 </v>
   <v>       0.57131790       0.99992759       0.50013787 </v>
   <v>       0.57133545       0.14276350       0.50019542 </v>
   <v>       0.57474001       0.28884448       0.49939569 </v>
   <v>       0.57473662       0.85726846       0.49929817 </v>
   <v>       0.71412921       0.00031284       0.49987555 </v>
   <v>       0.71400036       0.14267927       0.50036979 </v>
   <v>       0.71413910       0.28520157       0.49998018 </v>
   <v>       0.71001697       0.42450424       0.49794816 </v>
   <v>       0.71587680       0.57172553       0.48971607 </v>
   <v>       0.71585830       0.71546850       0.48971464 </v>
   <v>       0.71000097       0.85687606       0.49785397 </v>
   <v>       0.85620876       0.99938751       0.50017115 </v>
   <v>       0.85648152       0.14253613       0.50031509 </v>
   <v>       0.85650051       0.28533526       0.50040108 </v>
   <v>       0.85624176       0.42819473       0.50029345 </v>
   <v>       0.85577174       0.57048824       0.49986984 </v>
   <v>       0.85683244       0.71407910       0.49878513 </v>
   <v>       0.85572881       0.85659080       0.49987622 </v>
   <v>       0.04687840       0.09461631       0.50084930 </v>
   <v>       0.04596410       0.23696621       0.50033608 </v>
   <v>       0.04596375       0.38033379       0.50042744 </v>
   <v>       0.04690184       0.52358989       0.50092132 </v>
   <v>       0.04725997       0.66652050       0.50129840 </v>
   <v>       0.04719970       0.80926779       0.50118902 </v>
   <v>       0.04723932       0.95207723       0.50123921 </v>
   <v>       0.19041255       0.09510919       0.50033099 </v>
   <v>       0.18931321       0.23750747       0.49955362 </v>
   <v>       0.18736786       0.37936268       0.49913983 </v>
   <v>       0.18931744       0.52313210       0.49975581 </v>
   <v>       0.19043032       0.66663114       0.50040000 </v>
   <v>       0.19066550       0.80956373       0.50079602 </v>
   <v>       0.19066702       0.95244909       0.50076719 </v>
   <v>       0.33400258       0.09588385       0.50022287 </v>
   <v>       0.33455606       0.23860060       0.49914133 </v>
   <v>       0.32875930       0.37919398       0.49654161 </v>
   <v>       0.32872465       0.52090115       0.49668916 </v>
   <v>       0.33459197       0.66728963       0.49925297 </v>
   <v>       0.33399242       0.80944227       0.50022382 </v>
   <v>       0.33337328       0.95236621       0.50050956 </v>
   <v>       0.47636010       0.09529750       0.50023651 </v>
   <v>       0.47700994       0.23944701       0.49969372 </v>
   <v>       0.47700966       0.80889035       0.49966624 </v>
   <v>       0.47635461       0.95240942       0.50022424 </v>
   <v>       0.61870912       0.09503190       0.50030567 </v>
   <v>       0.61942140       0.23824177       0.49985618 </v>
   <v>       0.61942480       0.95256599       0.49972809 </v>
   <v>       0.76166762       0.09545589       0.50029445 </v>
   <v>       0.76165625       0.23757087       0.50034636 </v>
   <v>       0.76088417       0.38000336       0.49948802 </v>
   <v>       0.75951057       0.52283420       0.49624797 </v>
   <v>       0.76114939       0.66624215       0.49270218 </v>
   <v>       0.75947052       0.80800084       0.49625990 </v>
   <v>       0.76086624       0.95225121       0.49937429 </v>
   <v>       0.90369053       0.09432022       0.50042304 </v>
   <v>       0.90392800       0.23764223       0.50037933 </v>
   <v>       0.90370846       0.38072740       0.50056566 </v>
   <v>       0.90387359       0.52356068       0.50087635 </v>
   <v>       0.90381343       0.66595010       0.50026674 </v>
   <v>       0.90379267       0.80918662       0.50024232 </v>
   <v>       0.90383527       0.95163024       0.50083932 </v>
   <v>       0.46624928       0.35633718       0.49887044 </v>
   <v>       0.40105013       0.41876343       0.49540178 </v>
   <v>       0.40100855       0.55363787       0.49550756 </v>
   <v>       0.64394455       0.68109399       0.47974516 </v>
   <v>       0.64395400       0.53411555       0.47976874 </v>
   <v>       0.46628399       0.68125173       0.49895233 </v>
   <v>       0.55198700       0.60681319       0.53542684 </v>
   <v>       0.55278148       0.51807119       0.53525293 </v>
   <v>       0.61991245       0.37943644       0.49846982 </v>
   <v>       0.61990380       0.81184389       0.49840425 </v>
   <v>       0.51262664       0.54229387       0.53488800 </v>
  </varray>
  <varray name="selective"  type="logical" >
   <v type="logical" >  T  T  T </v>
   <v type="logical" >  T  T  T </v>
   <v type="logical" >  T  T  T </v>
   <v type="logical" >  T  T  T </v>
   <v type="logical" >  T  T  T </v>
   <v type="logical" >  T  T  T </v>
   <v type="logical" >  T  T  T </v>
   <v type="logical" >  T  T  T </v>
   <v type="logical" >  T  T  T </v>
   <v type="logical" >  T  T  T </v>
   <v type="logical" >  T  T  T </v>
   <v type="logical" >  T  T  T </v>
   <v type="logical" >  T  T  T </v>
   <v type="logical" >  T  T  T </v>
   <v type="logical" >  T  T  T </v>
   <v type="logical" >  T  T  T </v>
   <v type="logical" >  T  T  T </v>
   <v type="logical" >  T  T  T </v>
   <v type="logical" >  T  T  T </v>
   <v type="logical" >  T  T  T </v>
   <v type="logical" >  T  T  T </v>
   <v type="logical" >  T  T  T </v>
   <v type="logical" >  T  T  T </v>
   <v type="logical" >  T  T  T </v>
   <v type="logical" >  T  T  T </v>
   <v type="logical" >  T  T  T </v>
   <v type="logical" >  T  T  T </v>
   <v type="logical" >  T  T  T </v>
   <v type="logical" >  T  T  T </v>
   <v type="logical" >  T  T  T </v>
   <v type="logical" >  T  T  T </v>
   <v type="logical" >  T  T  T </v>
   <v type="logical" >  T  T  T </v>
   <v type="logical" >  T  T  T </v>
   <v type="logical" >  T  T  T </v>
   <v type="logical" >  T  T  T </v>
   <v type="logical" >  T  T  T </v>
   <v type="logical" >  T  T  T </v>
   <v type="logical" >  T  T  T </v>
   <v type="logical" >  T  T  T </v>
   <v type="logical" >  T  T  T </v>
   <v type="logical" >  T  T  T </v>
   <v type="logical" >  T  T  T </v>
   <v type="logical" >  T  T  T </v>
   <v type="logical" >  T  T  T </v>
   <v type="logical" >  T  T  T </v>
   <v type="logical" >  T  T  T </v>
   <v type="logical" >  T  T  T </v>
   <v type="logical" >  T  T  T </v>
   <v type="logical" >  T  T  T </v>
   <v type="logical" >  T  T  T </v>
   <v type="logical" >  T  T  T </v>
   <v type="logical" >  T  T  T </v>
   <v type="logical" >  T  T  T </v>
   <v type="logical" >  T  T  T </v>
   <v type="logical" >  T  T  T </v>
   <v type="logical" >  T  T  T </v>
   <v type="logical" >  T  T  T </v>
   <v type="logical" >  T  T  T </v>
   <v type="logical" >  T  T  T </v>
   <v type="logical" >  T  T  T </v>
   <v type="logical" >  T  T  T </v>
   <v type="logical" >  T  T  T </v>
   <v type="logical" >  T  T  T </v>
   <v type="logical" >  T  T  T </v>
   <v type="logical" >  T  T  T </v>
   <v type="logical" >  T  T  T </v>
   <v type="logical" >  T  T  T </v>
   <v type="logical" >  T  T  T </v>
   <v type="logical" >  T  T  T </v>
   <v type="logical" >  T  T  T </v>
   <v type="logical" >  T  T  T </v>
   <v type="logical" >  T  T  T </v>
   <v type="logical" >  T  T  T </v>
   <v type="logical" >  T  T  T </v>
   <v type="logical" >  T  T  T </v>
   <v type="logical" >  T  T  T </v>
   <v type="logical" >  T  T  T </v>
   <v type="logical" >  T  T  T </v>
   <v type="logical" >  T  T  T </v>
   <v type="logical" >  T  T  T </v>
   <v type="logical" >  T  T  T </v>
   <v type="logical" >  T  T  T </v>
   <v type="logical" >  T  T  T </v>
   <v type="logical" >  T  T  T </v>
   <v type="logical" >  T  T  T </v>
   <v type="logical" >  T  T  T </v>
   <v type="logical" >  T  T  T </v>
   <v type="logical" >  T  T  T </v>
   <v type="logical" >  T  T  T </v>
   <v type="logical" >  T  T  T </v>
   <v type="logical" >  T  T  T </v>
   <v type="logical" >  T  T  T </v>
   <v type="logical" >  T  T  T </v>
   <v type="logical" >  T  T  T </v>
   <v type="logical" >  T  T  T </v>
   <v type="logical" >  T  T  F </v>
  </varray>
  <nose>
   <v>      -3.00000000       0.00000000       0.00010000       0.00010000 </v>
  </nose>
 </structure>
 <calculation>
  <scstep>
   <time name="dav">   77.46   77.98</time>
   <time name="total">   83.10   83.67</time>
   <energy>
    <i name="alphaZ">    175.87611319 </i>
    <i name="ewald">  36640.74434160 </i>
    <i name="hartreedc"> -46836.30839751 </i>
    <i name="XCdc">   1224.40421076 </i>
    <i name="pawpsdc">  10101.41315093 </i>
    <i name="pawaedc"> -10154.35997595 </i>
    <i name="eentropy">     -0.04476718 </i>
    <i name="bandstr">  -1605.21334218 </i>
    <i name="atom">  13716.13071916 </i>
    <i name="e_fr_energy">   3262.64205281 </i>
    <i name="e_wo_entrp">   3262.68681999 </i>
    <i name="e_0_energy">   3262.66443640 </i>
   </energy>
  </scstep>
  <scstep>
   <time name="dav">  101.21  101.90</time>
   <time name="total">  101.21  101.91</time>
   <energy>
    <i name="e_fr_energy">   -251.51878504 </i>
    <i name="e_wo_entrp">   -251.51878483 </i>
    <i name="e_0_energy">   -251.51878493 </i>
   </energy>
  </scstep>
  <scstep>
   <time name="dav">   86.75   87.36</time>
   <time name="total">   86.75   87.37</time>
   <energy>
    <i name="e_fr_energy">   -864.19130916 </i>
    <i name="e_wo_entrp">   -864.19130846 </i>
    <i name="e_0_energy">   -864.19130881 </i>
   </energy>
  </scstep>
  <scstep>
   <time name="dav">   87.97   88.64</time>
   <time name="total">   87.97   88.64</time>
   <energy>
    <i name="e_fr_energy">   -886.22222420 </i>
    <i name="e_wo_entrp">   -886.22222201 </i>
    <i name="e_0_energy">   -886.22222310 </i>
   </energy>
  </scstep>
  <scstep>
   <time name="dav">   95.46   96.15</time>
   <time name="total">  101.00  101.72</time>
   <energy>
    <i name="e_fr_energy">   -886.84797830 </i>
    <i name="e_wo_entrp">   -886.84797594 </i>
    <i name="e_0_energy">   -886.84797712 </i>
   </energy>
  </scstep>
  <scstep>
   <time name="dav">   83.65   84.22</time>
   <time name="total">   95.18   95.84</time>
   <energy>
    <i name="e_fr_energy">   -869.56067006 </i>
    <i name="e_wo_entrp">   -869.55834373 </i>
    <i name="e_0_energy">   -869.55950689 </i>
   </energy>
  </scstep>
  <scstep>
   <time name="dav">   82.78   83.42</time>
   <time name="total">   94.35   95.08</time>
   <energy>
    <i name="e_fr_energy">   -847.39524722 </i>
    <i name="e_wo_entrp">   -847.39523481 </i>
    <i name="e_0_energy">   -847.39524101 </i>
   </energy>
  </scstep>
  <scstep>
   <time name="dav">   84.14   84.75</time>
   <time name="total">   95.69   96.37</time>
   <energy>
    <i name="e_fr_energy">   -842.60333657 </i>
    <i name="e_wo_entrp">   -842.60333651 </i>
    <i name="e_0_energy">   -842.60333654 </i>
   </energy>
  </scstep>
  <scstep>
   <time name="dav">   83.00   83.58</time>
   <time name="total">   94.69   95.37</time>
   <energy>
    <i name="e_fr_energy">   -842.49744444 </i>
    <i name="e_wo_entrp">   -842.49744438 </i>
    <i name="e_0_energy">   -842.49744441 </i>
   </energy>
  </scstep>
  <scstep>
   <time name="dav">   80.80   81.34</time>
   <time name="total">   92.55   93.20</time>
   <energy>
    <i name="e_fr_energy">   -842.40666524 </i>
    <i name="e_wo_entrp">   -842.40666520 </i>
    <i name="e_0_energy">   -842.40666522 </i>
   </energy>
  </scstep>
  <scstep>
   <time name="dav">   79.83   80.44</time>
   <time name="total">   91.64   92.34</time>
   <energy>
    <i name="e_fr_energy">   -842.39539571 </i>
    <i name="e_wo_entrp">   -842.39539568 </i>
    <i name="e_0_energy">   -842.39539570 </i>
   </energy>
  </scstep>
  <scstep>
   <time name="dav">   86.10   86.69</time>
   <time name="total">   98.00   98.70</time>
   <energy>
    <i name="e_fr_energy">   -842.39340984 </i>
    <i name="e_wo_entrp">   -842.39340981 </i>
    <i name="e_0_energy">   -842.39340983 </i>
   </energy>
  </scstep>
  <scstep>
   <time name="dav">   84.56   85.17</time>
   <time name="total">   96.35   97.05</time>
   <energy>
    <i name="e_fr_energy">   -842.39298739 </i>
    <i name="e_wo_entrp">   -842.39298735 </i>
    <i name="e_0_energy">   -842.39298737 </i>
   </energy>
  </scstep>
  <scstep>
   <time name="dav">   83.21   83.88</time>
   <time name="total">   95.11   95.85</time>
   <energy>
    <i name="e_fr_energy">   -842.39311465 </i>
    <i name="e_wo_entrp">   -842.39311461 </i>
    <i name="e_0_energy">   -842.39311463 </i>
   </energy>
  </scstep>
  <scstep>
   <time name="dav">   81.91   82.52</time>
   <time name="total">   93.65   94.34</time>
   <energy>
    <i name="e_fr_energy">   -842.39314641 </i>
    <i name="e_wo_entrp">   -842.39314637 </i>
    <i name="e_0_energy">   -842.39314639 </i>
   </energy>
  </scstep>
  <scstep>
   <time name="dav">   68.97   69.46</time>
   <time name="total">   80.90   81.47</time>
   <energy>
    <i name="e_fr_energy">   -842.39315968 </i>
    <i name="e_wo_entrp">   -842.39315964 </i>
    <i name="e_0_energy">   -842.39315966 </i>
   </energy>
  </scstep>
  <scstep>
   <time name="dav">   63.07   63.46</time>
   <time name="total">   68.74   69.17</time>
   <energy>
    <i name="alphaZ">    175.87611319 </i>
    <i name="ewald">  36640.74434160 </i>
    <i name="hartreedc"> -48341.36582430 </i>
    <i name="XCdc">   1274.29838696 </i>
    <i name="pawpsdc">  37330.97916571 </i>
    <i name="pawaedc"> -37394.82491062 </i>
    <i name="eentropy">     -0.00000004 </i>
    <i name="bandstr">  -4244.23115117 </i>
    <i name="atom">  13716.13071916 </i>
    <i name="e_fr_energy">   -842.39315952 </i>
    <i name="e_wo_entrp">   -842.39315948 </i>
    <i name="e_0_energy">   -842.39315950 </i>
   </energy>
  </scstep>
  <structure>
   <crystal>
    <varray name="basis" >
     <v>      17.27103806       0.00000000       0.00000000 </v>
     <v>      -8.63551903      14.95715771       0.00000000 </v>
     <v>       0.00000000       0.00000000      15.00000000 </v>
    </varray>
    <i name="volume">   3874.88459904 </i>
    <varray name="rec_basis" >
     <v>       0.05790040       0.03342881       0.00000000 </v>
     <v>       0.00000000       0.06685762       0.00000000 </v>
     <v>       0.00000000       0.00000000       0.06666667 </v>
    </varray>
   </crystal>
   <varray name="positions" >
    <v>       0.99918672       0.99934342       0.50125418 </v>
    <v>       0.99890553       0.14198791       0.50061075 </v>
    <v>       0.99891632       0.28512881       0.50037399 </v>
    <v>       0.99891341       0.42824374       0.50073124 </v>
    <v>       0.99923402       0.57119006       0.50127904 </v>
    <v>       0.99958406       0.71393451       0.50125745 </v>
    <v>       0.99956741       0.85697892       0.50119562 </v>
    <v>       0.14281725       0.00010716       0.50082678 </v>
    <v>       0.14217264       0.14246872       0.50032017 </v>
    <v>       0.14109419       0.28453970       0.49974570 </v>
    <v>       0.14109597       0.42789959       0.49985207 </v>
    <v>       0.14218014       0.57102741       0.50046781 </v>
    <v>       0.14284417       0.71405294       0.50089358 </v>
    <v>       0.14287286       0.85710373       0.50098237 </v>
    <v>       0.28596863       0.00014115       0.50055029 </v>
    <v>       0.28606380       0.14313158       0.49989904 </v>
    <v>       0.28517245       0.28660953       0.49836158 </v>
    <v>       0.28242453       0.42688130       0.49730875 </v>
    <v>       0.28516399       0.56990211       0.49856761 </v>
    <v>       0.28607306       0.71425714       0.49996942 </v>
    <v>       0.28597471       0.85717631       0.50051304 </v>
    <v>       0.42881582       0.00007329       0.50035912 </v>
    <v>       0.42944486       0.14368712       0.50007387 </v>
    <v>       0.42798584       0.28374323       0.49928253 </v>
    <v>       0.42801039       0.71556437       0.49933826 </v>
    <v>       0.42944418       0.85707665       0.50005544 </v>
    <v>       0.57131790       0.99992759       0.50013787 </v>
    <v>       0.57133545       0.14276350       0.50019542 </v>
    <v>       0.57474001       0.28884448       0.49939569 </v>
    <v>       0.57473662       0.85726846       0.49929817 </v>
    <v>       0.71412921       0.00031284       0.49987555 </v>
    <v>       0.71400036       0.14267927       0.50036979 </v>
    <v>       0.71413910       0.28520157       0.49998018 </v>
    <v>       0.71001697       0.42450424       0.49794816 </v>
    <v>       0.71587680       0.57172553       0.48971607 </v>
    <v>       0.71585830       0.71546850       0.48971464 </v>
    <v>       0.71000097       0.85687606       0.49785397 </v>
    <v>       0.85620876       0.99938751       0.50017115 </v>
    <v>       0.85648152       0.14253613       0.50031509 </v>
    <v>       0.85650051       0.28533526       0.50040108 </v>
    <v>       0.85624176       0.42819473       0.50029345 </v>
    <v>       0.85577174       0.57048824       0.49986984 </v>
    <v>       0.85683244       0.71407910       0.49878513 </v>
    <v>       0.85572881       0.85659080       0.49987622 </v>
    <v>       0.04687840       0.09461631       0.50084930 </v>
    <v>       0.04596410       0.23696621       0.50033608 </v>
    <v>       0.04596375       0.38033379       0.50042744 </v>
    <v>       0.04690184       0.52358989       0.50092132 </v>
    <v>       0.04725997       0.66652050       0.50129840 </v>
    <v>       0.04719970       0.80926779       0.50118902 </v>
    <v>       0.04723932       0.95207723       0.50123921 </v>
    <v>       0.19041255       0.09510919       0.50033099 </v>
    <v>       0.18931321       0.23750747       0.49955362 </v>
    <v>       0.18736786       0.37936268       0.49913983 </v>
    <v>       0.18931744       0.52313210       0.49975581 </v>
    <v>       0.19043032       0.66663114       0.50040000 </v>
    <v>       0.19066550       0.80956373       0.50079602 </v>
    <v>       0.19066702       0.95244909       0.50076719 </v>
    <v>       0.33400258       0.09588385       0.50022287 </v>
    <v>       0.33455606       0.23860060       0.49914133 </v>
    <v>       0.32875930       0.37919398       0.49654161 </v>
    <v>       0.32872465       0.52090115       0.49668916 </v>
    <v>       0.33459197       0.66728963       0.49925297 </v>
    <v>       0.33399242       0.80944227       0.50022382 </v>
    <v>       0.33337328       0.95236621       0.50050956 </v>
    <v>       0.47636010       0.09529750       0.50023651 </v>
    <v>       0.47700994       0.23944701       0.49969372 </v>
    <v>       0.47700966       0.80889035       0.49966624 </v>
    <v>       0.47635461       0.95240942       0.50022424 </v>
    <v>       0.61870912       0.09503190       0.50030567 </v>
    <v>       0.61942140       0.23824177       0.49985618 </v>
    <v>       0.61942480       0.95256599       0.49972809 </v>
    <v>       0.76166762       0.09545589       0.50029445 </v>
    <v>       0.76165625       0.23757087       0.50034636 </v>
    <v>       0.76088417       0.38000336       0.49948802 </v>
    <v>       0.75951057       0.52283420       0.49624797 </v>
    <v>       0.76114939       0.66624215       0.49270218 </v>
    <v>       0.75947052       0.80800084       0.49625990 </v>
    <v>       0.76086624       0.95225121       0.49937429 </v>
    <v>       0.90369053       0.09432022       0.50042304 </v>
    <v>       0.90392800       0.23764223       0.50037933 </v>
    <v>       0.90370846       0.38072740       0.50056566 </v>
    <v>       0.90387359       0.52356068       0.50087635 </v>
    <v>       0.90381343       0.66595010       0.50026674 </v>
    <v>       0.90379267       0.80918662       0.50024232 </v>
    <v>       0.90383527       0.95163024       0.50083932 </v>
    <v>       0.46624928       0.35633718       0.49887044 </v>
    <v>       0.40105013       0.41876343       0.49540178 </v>
    <v>       0.40100855       0.55363787       0.49550756 </v>
    <v>       0.64394455       0.68109399       0.47974516 </v>
    <v>       0.64395400       0.53411555       0.47976874 </v>
    <v>       0.46628399       0.68125173       0.49895233 </v>
    <v>       0.55198700       0.60681319       0.53542684 </v>
    <v>       0.55278148       0.51807119       0.53525293 </v>
    <v>       0.61991245       0.37943644       0.49846982 </v>
    <v>       0.61990380       0.81184389       0.49840425 </v>
    <v>       0.51262664       0.54229387       0.53488800 </v>
   </varray>
  </structure>
  <varray name="forces" >
   <v>      -0.00118786      -0.00645583       0.00439293 </v>
   <v>       0.00074356       0.00100452       0.00184756 </v>
   <v>       0.00129842      -0.00059331       0.00233473 </v>
   <v>       0.00142100      -0.00136962       0.00373043 </v>
   <v>      -0.00249756       0.00121386       0.00341121 </v>
   <v>      -0.01047105       0.00260796       0.00302616 </v>
   <v>      -0.00424329      -0.00204901       0.00482764 </v>
   <v>      -0.00147472      -0.00244927       0.00423389 </v>
   <v>      -0.00068720       0.00143358       0.00243072 </v>
   <v>       0.00026089       0.00288700      -0.00311014 </v>
   <v>       0.00301083       0.00018240      -0.00355518 </v>
   <v>       0.00176319      -0.00038950      -0.00038498 </v>
   <v>      -0.00231469       0.00072027       0.00252150 </v>
   <v>      -0.00688880      -0.00167300       0.00405494 </v>
   <v>       0.00043625      -0.00085891       0.00366892 </v>
   <v>       0.00437084       0.00155956       0.00002299 </v>
   <v>       0.00217880       0.00558029      -0.00799662 </v>
   <v>       0.00327587       0.00272629      -0.01508016 </v>
   <v>       0.00452205      -0.00062874      -0.01010153 </v>
   <v>       0.00137525       0.00060004      -0.00239804 </v>
   <v>      -0.00074103       0.00105973       0.00268817 </v>
   <v>      -0.00030113       0.00085967       0.00208722 </v>
   <v>       0.00360345      -0.00047248      -0.00063302 </v>
   <v>       0.00449713       0.00239783      -0.00577601 </v>
   <v>       0.00178422       0.00133134      -0.00799549 </v>
   <v>       0.00003582       0.00101454      -0.00092055 </v>
   <v>      -0.00444466       0.00386808       0.00001012 </v>
   <v>      -0.00135011       0.00019090       0.00037840 </v>
   <v>      -0.00057414      -0.00209912      -0.00458615 </v>
   <v>      -0.00238542       0.00103476      -0.00624498 </v>
   <v>      -0.00221499      -0.00058281      -0.00204471 </v>
   <v>      -0.00227350      -0.00113716       0.00135235 </v>
   <v>      -0.00222851      -0.00269808      -0.00106028 </v>
   <v>      -0.00312708      -0.00068250      -0.01173282 </v>
   <v>      -0.00608873      -0.00138304      -0.03737749 </v>
   <v>      -0.00439864      -0.00350436      -0.03504088 </v>
   <v>      -0.00062369      -0.00199763      -0.01086637 </v>
   <v>       0.00128840      -0.00637050       0.00059180 </v>
   <v>      -0.00069941      -0.00076220       0.00174981 </v>
   <v>       0.00037802      -0.00975824       0.00210713 </v>
   <v>      -0.00229764      -0.00140492       0.00010832 </v>
   <v>      -0.00569707       0.00087713      -0.00464750 </v>
   <v>      -0.00668910      -0.00181601      -0.00648082 </v>
   <v>      -0.00120512      -0.00407376      -0.00255783 </v>
   <v>       0.00001743       0.00205396       0.00458377 </v>
   <v>       0.00011745      -0.00059942       0.00139274 </v>
   <v>      -0.00115393       0.00095909       0.00179329 </v>
   <v>      -0.00066637      -0.00041999       0.00306423 </v>
   <v>       0.00438984      -0.00573818       0.00336104 </v>
   <v>       0.00617721       0.00016561       0.00505313 </v>
   <v>      -0.00066095       0.00215652       0.00533524 </v>
   <v>      -0.00206578       0.00010455       0.00267401 </v>
   <v>       0.00298265      -0.00317195      -0.00408946 </v>
   <v>       0.00039639      -0.00015618      -0.00763219 </v>
   <v>      -0.00091106       0.00081901      -0.00447672 </v>
   <v>      -0.00151547      -0.00119716      -0.00018392 </v>
   <v>      -0.00001042      -0.00215218       0.00353444 </v>
   <v>      -0.00110146      -0.00010615       0.00446341 </v>
   <v>      -0.00566051       0.00058777       0.00058055 </v>
   <v>      -0.00604450      -0.00371185      -0.00375299 </v>
   <v>       0.00078227      -0.00211092      -0.01644202 </v>
   <v>      -0.00040223       0.00141037      -0.01666614 </v>
   <v>      -0.00565186       0.00062661      -0.00584476 </v>
   <v>      -0.00182487      -0.00164747      -0.00014096 </v>
   <v>      -0.00250491      -0.00172161       0.00327025 </v>
   <v>      -0.00205357      -0.00049856       0.00079847 </v>
   <v>      -0.00184485      -0.00113431      -0.00358165 </v>
   <v>      -0.00120050      -0.00021186      -0.00529112 </v>
   <v>       0.00010373      -0.00173895       0.00076965 </v>
   <v>       0.00139684      -0.00121616       0.00067477 </v>
   <v>       0.00107933       0.00083075      -0.00079110 </v>
   <v>       0.00192154      -0.00037603      -0.00309976 </v>
   <v>       0.00169846      -0.00015002       0.00100785 </v>
   <v>       0.00185176       0.00333659       0.00165369 </v>
   <v>       0.00154591       0.00158158      -0.00421735 </v>
   <v>      -0.00103249      -0.00121839      -0.01725100 </v>
   <v>      -0.00148550      -0.00163921      -0.02750268 </v>
   <v>      -0.00255814      -0.00125027      -0.01519290 </v>
   <v>      -0.00047236       0.00070299      -0.00427098 </v>
   <v>      -0.00065689       0.00140890       0.00179848 </v>
   <v>      -0.00055440       0.00251072       0.00259639 </v>
   <v>       0.00001152       0.00374408       0.00332515 </v>
   <v>       0.00052220      -0.00177168       0.00111103 </v>
   <v>       0.00157069      -0.00313211      -0.00192395 </v>
   <v>      -0.00198187      -0.00058721      -0.00030575 </v>
   <v>      -0.00510880       0.00208420       0.00166972 </v>
   <v>       0.00097322      -0.00113651      -0.00893970 </v>
   <v>       0.00427151       0.00321146      -0.02002544 </v>
   <v>       0.00472728       0.00178494      -0.02109258 </v>
   <v>       0.00062579      -0.00734508      -0.06173489 </v>
   <v>      -0.00612644       0.00361444      -0.06241761 </v>
   <v>      -0.00030058       0.00116063      -0.01073895 </v>
   <v>       0.01978896       0.01068515       0.17022075 </v>
   <v>       0.02107260       0.01202442       0.17061574 </v>
   <v>      -0.00032240       0.00102695      -0.00992653 </v>
   <v>      -0.00113702      -0.00059265      -0.01065688 </v>
   <v>       0.01984672       0.01020101       0.08185678 </v>
  </varray>
  <varray name="stress" >
   <v>      -0.87321314      -0.12626337       0.01505287 </v>
   <v>      -0.12626330      -0.78224578       0.00450752 </v>
   <v>       0.01505293       0.00450753      -0.17358032 </v>
  </varray>
  <energy>
   <i name="e_fr_energy">   -850.15625604 </i>
   <i name="e_wo_entrp">   -850.15625600 </i>
   <i name="e_0_energy">   -850.15625602 </i>
  </energy>
  <time name="totalsc"> 1713.75 1726.06</time>
 </calculation>
 <calculation>
  <scstep>
   <time name="dav">   76.56   77.08</time>
   <time name="total">   88.06   88.66</time>
   <energy>
    <i name="alphaZ">    175.87611319 </i>
    <i name="ewald">  36640.75539806 </i>
    <i name="hartreedc"> -48341.35567416 </i>
    <i name="XCdc">   1274.29828998 </i>
    <i name="pawpsdc">  37330.66076601 </i>
    <i name="pawaedc"> -37394.50625461 </i>
    <i name="eentropy">     -0.00000004 </i>
    <i name="bandstr">  -4244.25249213 </i>
    <i name="atom">  13716.13071916 </i>
    <i name="e_fr_energy">   -842.39313454 </i>
    <i name="e_wo_entrp">   -842.39313450 </i>
    <i name="e_0_energy">   -842.39313452 </i>
   </energy>
  </scstep>
  <scstep>
   <time name="dav">   54.98   55.40</time>
   <time name="total">   60.33   60.79</time>
   <energy>
    <i name="alphaZ">    175.87611319 </i>
    <i name="ewald">  36640.75539806 </i>
    <i name="hartreedc"> -48341.34898473 </i>
    <i name="XCdc">   1274.29821352 </i>
    <i name="pawpsdc">  37330.62411295 </i>
    <i name="pawaedc"> -37394.46959010 </i>
    <i name="eentropy">     -0.00000004 </i>
    <i name="bandstr">  -4244.25911691 </i>
    <i name="atom">  13716.13071916 </i>
    <i name="e_fr_energy">   -842.39313491 </i>
    <i name="e_wo_entrp">   -842.39313488 </i>
    <i name="e_0_energy">   -842.39313490 </i>
   </energy>
  </scstep>
  <structure>
   <crystal>
    <varray name="basis" >
     <v>      17.27103806       0.00000000       0.00000000 </v>
     <v>      -8.63551903      14.95715771       0.00000000 </v>
     <v>       0.00000000       0.00000000      15.00000000 </v>
    </varray>
    <i name="volume">   3874.88459904 </i>
    <varray name="rec_basis" >
     <v>       0.05790040       0.03342881       0.00000000 </v>
     <v>       0.00000000       0.06685762       0.00000000 </v>
     <v>       0.00000000       0.00000000       0.06666667 </v>
    </varray>
   </crystal>
   <varray name="positions" >
    <v>       0.99918465       0.99933952       0.50125279 </v>
    <v>       0.99890645       0.14198868       0.50060986 </v>
    <v>       0.99891674       0.28512838       0.50037463 </v>
    <v>       0.99891387       0.42824291       0.50073189 </v>
    <v>       0.99923370       0.57119115       0.50127751 </v>
    <v>       0.99957997       0.71393674       0.50125526 </v>
    <v>       0.99956542       0.85697808       0.50119466 </v>
    <v>       0.14281622       0.00010574       0.50082676 </v>
    <v>       0.14217274       0.14246954       0.50032075 </v>
    <v>       0.14109495       0.28454138       0.49974516 </v>
    <v>       0.14109744       0.42789957       0.49985159 </v>
    <v>       0.14218108       0.57102726       0.50046702 </v>
    <v>       0.14284374       0.71405369       0.50089260 </v>
    <v>       0.14286919       0.85710297       0.50098159 </v>
    <v>       0.28596920       0.00014085       0.50055063 </v>
    <v>       0.28606709       0.14313266       0.49989922 </v>
    <v>       0.28517473       0.28661254       0.49836225 </v>
    <v>       0.28242653       0.42688261       0.49730952 </v>
    <v>       0.28516565       0.56990151       0.49856737 </v>
    <v>       0.28607441       0.71425769       0.49996884 </v>
    <v>       0.28597528       0.85717728       0.50051321 </v>
    <v>       0.42881642       0.00007416       0.50035941 </v>
    <v>       0.42944718       0.14368719       0.50007302 </v>
    <v>       0.42798911       0.28374485       0.49928094 </v>
    <v>       0.42801193       0.71556522       0.49933647 </v>
    <v>       0.42944503       0.85707747       0.50005523 </v>
    <v>       0.57131697       0.99993037       0.50013800 </v>
    <v>       0.57133504       0.14276396       0.50019520 </v>
    <v>       0.57473938       0.28884365       0.49939428 </v>
    <v>       0.57473612       0.85726921       0.49929688 </v>
    <v>       0.71412807       0.00031270       0.49987488 </v>
    <v>       0.71399883       0.14267870       0.50036979 </v>
    <v>       0.71413715       0.28519996       0.49997950 </v>
    <v>       0.71001577       0.42450416       0.49794633 </v>
    <v>       0.71587520       0.57172565       0.48972215 </v>
    <v>       0.71585709       0.71546772       0.48972224 </v>
    <v>       0.71000092       0.85687534       0.49785336 </v>
    <v>       0.85620797       0.99938366       0.50017085 </v>
    <v>       0.85648097       0.14253575       0.50031524 </v>
    <v>       0.85649753       0.28532883       0.50040126 </v>
    <v>       0.85624043       0.42819400       0.50029256 </v>
    <v>       0.85577033       0.57048938       0.49986685 </v>
    <v>       0.85682963       0.71407875       0.49878378 </v>
    <v>       0.85572848       0.85658924       0.49987434 </v>
    <v>       0.04687935       0.09461787       0.50084941 </v>
    <v>       0.04596380       0.23696577       0.50033615 </v>
    <v>       0.04596323       0.38033437       0.50042803 </v>
    <v>       0.04690155       0.52358967       0.50092104 </v>
    <v>       0.04726140       0.66651695       0.50129662 </v>
    <v>       0.04720436       0.80926834       0.50118826 </v>
    <v>       0.04724047       0.95207906       0.50123854 </v>
    <v>       0.19041170       0.09510935       0.50033159 </v>
    <v>       0.18931337       0.23750492       0.49955276 </v>
    <v>       0.18736745       0.37936222       0.49913904 </v>
    <v>       0.18931675       0.52313254       0.49975506 </v>
    <v>       0.19042943       0.66663047       0.50039922 </v>
    <v>       0.19066553       0.80956256       0.50079573 </v>
    <v>       0.19066707       0.95244934       0.50076740 </v>
    <v>       0.33399992       0.09588448       0.50022223 </v>
    <v>       0.33455117       0.23859803       0.49914170 </v>
    <v>       0.32875764       0.37919147       0.49654353 </v>
    <v>       0.32872351       0.52090159       0.49669117 </v>
    <v>       0.33458892       0.66728997       0.49925303 </v>
    <v>       0.33399132       0.80944133       0.50022348 </v>
    <v>       0.33337181       0.95236532       0.50050992 </v>
    <v>       0.47635910       0.09529751       0.50023627 </v>
    <v>       0.47700879       0.23944670       0.49969211 </v>
    <v>       0.47700933       0.80889022       0.49966471 </v>
    <v>       0.47635452       0.95240845       0.50022446 </v>
    <v>       0.61870976       0.09503131       0.50030553 </v>
    <v>       0.61942257       0.23824269       0.49985607 </v>
    <v>       0.61942612       0.95256584       0.49972747 </v>
    <v>       0.76166875       0.09545599       0.50029437 </v>
    <v>       0.76165857       0.23757325       0.50034646 </v>
    <v>       0.76088609       0.38000459       0.49948663 </v>
    <v>       0.75951145       0.52283392       0.49624754 </v>
    <v>       0.76114939       0.66624178       0.49270551 </v>
    <v>       0.75947063       0.80800152       0.49626080 </v>
    <v>       0.76086682       0.95225218       0.49937345 </v>
    <v>       0.90369088       0.09432141       0.50042273 </v>
    <v>       0.90392847       0.23764396       0.50037989 </v>
    <v>       0.90370993       0.38073001       0.50056620 </v>
    <v>       0.90387425       0.52355975       0.50087433 </v>
    <v>       0.90381461       0.66594857       0.50026418 </v>
    <v>       0.90379272       0.80918703       0.50024068 </v>
    <v>       0.90383407       0.95163243       0.50083747 </v>
    <v>       0.46624906       0.35633637       0.49886819 </v>
    <v>       0.40105169       0.41876361       0.49540534 </v>
    <v>       0.40100992       0.55363893       0.49551089 </v>
    <v>       0.64394399       0.68109317       0.47976592 </v>
    <v>       0.64395308       0.53411547       0.47978905 </v>
    <v>       0.46628410       0.68125239       0.49895018 </v>
    <v>       0.55198901       0.60681377       0.53543017 </v>
    <v>       0.55278479       0.51807222       0.53525659 </v>
    <v>       0.61991340       0.37943781       0.49846756 </v>
    <v>       0.61990388       0.81184384       0.49840244 </v>
    <v>       0.51262947       0.54229431       0.53488800 </v>
   </varray>
  </structure>
  <varray name="forces" >
   <v>      -0.00080160       0.00247336       0.00463222 </v>
   <v>       0.00000838       0.00012537       0.00195954 </v>
   <v>       0.00041809       0.00033533       0.00233705 </v>
   <v>      -0.00018345      -0.00000055       0.00371059 </v>
   <v>      -0.00083147      -0.00122520       0.00327118 </v>
   <v>      -0.00253348      -0.00085834       0.00292265 </v>
   <v>      -0.00146299      -0.00083256       0.00469231 </v>
   <v>      -0.00097438      -0.00004243       0.00424106 </v>
   <v>      -0.00015442       0.00016786       0.00231502 </v>
   <v>       0.00076174       0.00030032      -0.00321079 </v>
   <v>       0.00066122       0.00017542      -0.00358919 </v>
   <v>      -0.00021225      -0.00035738      -0.00044360 </v>
   <v>      -0.00082926      -0.00103337       0.00240825 </v>
   <v>       0.00029575      -0.00063380       0.00518690 </v>
   <v>      -0.00157448      -0.00044102       0.00358376 </v>
   <v>      -0.00068282       0.00022964       0.00000490 </v>
   <v>       0.00099793       0.00046201      -0.00796904 </v>
   <v>       0.00160062       0.00103316      -0.01494756 </v>
   <v>       0.00072805       0.00077301      -0.00994698 </v>
   <v>      -0.00126864      -0.00034081      -0.00240645 </v>
   <v>      -0.00125492      -0.00100066       0.00262808 </v>
   <v>      -0.00100957      -0.00076246       0.00205125 </v>
   <v>      -0.00049235      -0.00154433      -0.00073889 </v>
   <v>      -0.00079155      -0.00083528      -0.00589619 </v>
   <v>      -0.00130815       0.00003555      -0.00809214 </v>
   <v>      -0.00135420      -0.00020531      -0.00103970 </v>
   <v>      -0.00175735       0.00093801      -0.00009894 </v>
   <v>      -0.00058274      -0.00061847       0.00036317 </v>
   <v>      -0.00042694      -0.00001645      -0.00472990 </v>
   <v>      -0.00059669       0.00009379      -0.00641685 </v>
   <v>      -0.00036403       0.00001753      -0.00211621 </v>
   <v>      -0.00007397      -0.00013338       0.00132584 </v>
   <v>       0.00022228       0.00017347      -0.00109439 </v>
   <v>      -0.00132315      -0.00073665      -0.01166660 </v>
   <v>      -0.00393496      -0.00138524      -0.03626354 </v>
   <v>      -0.00308632      -0.00313114      -0.03406994 </v>
   <v>      -0.00198223      -0.00111898      -0.01083595 </v>
   <v>      -0.00137398       0.00168443      -0.00079380 </v>
   <v>       0.00008869      -0.00014070       0.00172285 </v>
   <v>       0.00038100      -0.00195824       0.00218191 </v>
   <v>      -0.00010959      -0.00017202       0.00000737 </v>
   <v>      -0.00166101      -0.00129615      -0.00472289 </v>
   <v>       0.00127655      -0.00236908      -0.00625170 </v>
   <v>      -0.00210301      -0.00141352      -0.00263284 </v>
   <v>      -0.00056379      -0.00090102       0.00438859 </v>
   <v>       0.00060575       0.00049113       0.00126517 </v>
   <v>       0.00100697      -0.00010539       0.00175518 </v>
   <v>      -0.00039034      -0.00036821       0.00295507 </v>
   <v>      -0.00131798       0.00184945       0.00527088 </v>
   <v>      -0.00498498      -0.00170958       0.00416535 </v>
   <v>      -0.00178468      -0.00146729       0.00520808 </v>
   <v>      -0.00048160      -0.00057585       0.00265640 </v>
   <v>      -0.00028607       0.00199442      -0.00258670 </v>
   <v>       0.00139764       0.00078852      -0.00762721 </v>
   <v>       0.00115675      -0.00011981      -0.00456602 </v>
   <v>      -0.00066849      -0.00028761      -0.00029458 </v>
   <v>      -0.00174267      -0.00042596       0.00340838 </v>
   <v>      -0.00142004      -0.00094695       0.00437657 </v>
   <v>      -0.00046958      -0.00006151       0.00063145 </v>
   <v>      -0.00013342       0.00034585      -0.00389318 </v>
   <v>       0.00245237       0.00236300      -0.01637825 </v>
   <v>       0.00310490       0.00128368      -0.01669714 </v>
   <v>       0.00230826       0.00016838      -0.00675763 </v>
   <v>      -0.00080195       0.00006982      -0.00016518 </v>
   <v>      -0.00085853      -0.00028326       0.00326426 </v>
   <v>      -0.00048336      -0.00049170       0.00074527 </v>
   <v>       0.00035717      -0.00063698      -0.00373843 </v>
   <v>      -0.00049994       0.00020829      -0.00541570 </v>
   <v>      -0.00103369      -0.00000865       0.00075167 </v>
   <v>      -0.00089762       0.00010758       0.00066813 </v>
   <v>      -0.00083056      -0.00039407      -0.00098760 </v>
   <v>      -0.00101026      -0.00001400      -0.00316062 </v>
   <v>      -0.00055110      -0.00031481       0.00095776 </v>
   <v>      -0.00054779      -0.00092113       0.00156477 </v>
   <v>      -0.00156255      -0.00055216      -0.00436086 </v>
   <v>      -0.00374737      -0.00100498      -0.01735972 </v>
   <v>      -0.00304034      -0.00157234      -0.02703810 </v>
   <v>      -0.00260442      -0.00252256      -0.01506297 </v>
   <v>      -0.00098073      -0.00156555      -0.00431894 </v>
   <v>      -0.00030121      -0.00089418       0.00173138 </v>
   <v>       0.00027904      -0.00057498       0.00258393 </v>
   <v>      -0.00033099      -0.00097622       0.00323503 </v>
   <v>      -0.00226864      -0.00043828       0.00086662 </v>
   <v>      -0.00332073      -0.00072358      -0.00215657 </v>
   <v>      -0.00241497      -0.00192392      -0.00043242 </v>
   <v>       0.00009687      -0.00245777       0.00240476 </v>
   <v>       0.00103256      -0.00007235      -0.00903866 </v>
   <v>       0.00289930       0.00220577      -0.01995693 </v>
   <v>       0.00352377       0.00115581      -0.02101788 </v>
   <v>      -0.00041283      -0.00795837      -0.06214932 </v>
   <v>      -0.00717713       0.00299039      -0.06290839 </v>
   <v>       0.00010628       0.00072106      -0.01085174 </v>
   <v>       0.01952080       0.01003253       0.17022127 </v>
   <v>       0.02037599       0.01204431       0.17062309 </v>
   <v>      -0.00076306      -0.00147125      -0.00999258 </v>
   <v>      -0.00160247       0.00019631      -0.01066414 </v>
   <v>       0.02171713       0.01131122       0.08230654 </v>
  </varray>
  <varray name="stress" >
   <v>      -0.87000316      -0.12547353       0.01503575 </v>
   <v>      -0.12547346      -0.78467438       0.00443176 </v>
   <v>       0.01503582       0.00443178      -0.16925830 </v>
  </varray>
  <energy>
   <i name="e_fr_energy">   -850.15623403 </i>
   <i name="e_wo_entrp">   -850.15623399 </i>
   <i name="e_0_energy">   -850.15623401 </i>
  </energy>
  <time name="totalsc">  283.27  285.41</time>
 </calculation>
 <calculation>
  <scstep>
   <time name="dav">   77.26   77.87</time>
   <time name="total">   88.81   89.49</time>
   <energy>
    <i name="alphaZ">    175.87611319 </i>
    <i name="ewald">  36640.78713653 </i>
    <i name="hartreedc"> -48341.36602329 </i>
    <i name="XCdc">   1274.29848710 </i>
    <i name="pawpsdc">  37330.53657695 </i>
    <i name="pawaedc"> -37394.38204165 </i>
    <i name="eentropy">     -0.00000004 </i>
    <i name="bandstr">  -4244.27404123 </i>
    <i name="atom">  13716.13071916 </i>
    <i name="e_fr_energy">   -842.39307328 </i>
    <i name="e_wo_entrp">   -842.39307324 </i>
    <i name="e_0_energy">   -842.39307326 </i>
   </energy>
  </scstep>
  <scstep>
   <time name="dav">   60.05   60.48</time>
   <time name="total">   65.47   65.94</time>
   <energy>
    <i name="alphaZ">    175.87611319 </i>
    <i name="ewald">  36640.78713653 </i>
    <i name="hartreedc"> -48341.36449912 </i>
    <i name="XCdc">   1274.29849202 </i>
    <i name="pawpsdc">  37330.48729701 </i>
    <i name="pawaedc"> -37394.33275277 </i>
    <i name="eentropy">     -0.00000004 </i>
    <i name="bandstr">  -4244.27557951 </i>
    <i name="atom">  13716.13071916 </i>
    <i name="e_fr_energy">   -842.39307353 </i>
    <i name="e_wo_entrp">   -842.39307349 </i>
    <i name="e_0_energy">   -842.39307351 </i>
   </energy>
  </scstep>
  <structure>
   <crystal>
    <varray name="basis" >
     <v>      17.27103806       0.00000000       0.00000000 </v>
     <v>      -8.63551903      14.95715771       0.00000000 </v>
     <v>       0.00000000       0.00000000      15.00000000 </v>
    </varray>
    <i name="volume">   3874.88459904 </i>
    <varray name="rec_basis" >
     <v>       0.05790040       0.03342881       0.00000000 </v>
     <v>       0.00000000       0.06685762       0.00000000 </v>
     <v>       0.00000000       0.00000000       0.06666667 </v>
    </varray>
   </crystal>
   <varray name="positions" >
[...]
       <r>   -14.0485     6.8446    58.0004 </r>
       <r>   -13.9447     5.4351    58.5649 </r>
       <r>   -13.8408     3.1547    58.8926 </r>
       <r>   -13.7369     5.8312    59.4983 </r>
       <r>   -13.6330     6.5556    60.1792 </r>
       <r>   -13.5292     8.7946    61.0928 </r>
       <r>   -13.4253     8.2779    61.9526 </r>
       <r>   -13.3214    13.0532    63.3085 </r>
       <r>   -13.2176     2.7727    63.5965 </r>
       <r>   -13.1137     7.0227    64.3259 </r>
       <r>   -13.0098     1.6757    64.5000 </r>
       <r>   -12.9059     2.5813    64.7681 </r>
       <r>   -12.8021     9.2717    65.7312 </r>
       <r>   -12.6982     5.9709    66.3514 </r>
       <r>   -12.5943    12.0820    67.6064 </r>
       <r>   -12.4904    14.4199    69.1042 </r>
       <r>   -12.3866    11.8470    70.3348 </r>
       <r>   -12.2827     9.5574    71.3275 </r>
       <r>   -12.1788     4.0133    71.7444 </r>
       <r>   -12.0750     1.3688    71.8866 </r>
       <r>   -11.9711    10.6839    72.9963 </r>
       <r>   -11.8672    13.8034    74.4301 </r>
       <r>   -11.7633     8.5450    75.3177 </r>
       <r>   -11.6595     3.9414    75.7271 </r>
       <r>   -11.5556    12.8149    77.0582 </r>
       <r>   -11.4517    10.6997    78.1696 </r>
       <r>   -11.3479    13.9007    79.6135 </r>
       <r>   -11.2440     8.6462    80.5116 </r>
       <r>   -11.1401     9.6869    81.5178 </r>
       <r>   -11.0362     8.9362    82.4460 </r>
       <r>   -10.9324    12.1006    83.7029 </r>
       <r>   -10.8285    11.7975    84.9284 </r>
       <r>   -10.7246    11.1592    86.0875 </r>
       <r>   -10.6207     1.8061    86.2751 </r>
       <r>   -10.5169     6.0396    86.9024 </r>
       <r>   -10.4130     3.6212    87.2786 </r>
       <r>   -10.3091     6.6491    87.9692 </r>
       <r>   -10.2053    14.8210    89.5087 </r>
       <r>   -10.1014    18.5512    91.4357 </r>
       <r>    -9.9975    16.5287    93.1525 </r>
       <r>    -9.8936    13.0668    94.5098 </r>
       <r>    -9.7898    22.5394    96.8510 </r>
       <r>    -9.6859    14.8796    98.3966 </r>
       <r>    -9.5820    11.7890    99.6211 </r>
       <r>    -9.4782    18.7622   101.5700 </r>
       <r>    -9.3743    19.1970   103.5640 </r>
       <r>    -9.2704    16.9324   105.3228 </r>
       <r>    -9.1665    16.1639   107.0018 </r>
       <r>    -9.0627    18.1291   108.8849 </r>
       <r>    -8.9588    27.6011   111.7519 </r>
       <r>    -8.8549    22.9255   114.1332 </r>
       <r>    -8.7511    27.4281   116.9823 </r>
       <r>    -8.6472    15.8894   118.6327 </r>
       <r>    -8.5433    22.9216   121.0136 </r>
       <r>    -8.4394    15.1217   122.5843 </r>
       <r>    -8.3356    19.7704   124.6379 </r>
       <r>    -8.2317    22.9568   127.0225 </r>
       <r>    -8.1278    24.1469   129.5307 </r>
       <r>    -8.0239    12.7448   130.8545 </r>
       <r>    -7.9201    17.9272   132.7167 </r>
       <r>    -7.8162    13.6703   134.1366 </r>
       <r>    -7.7123    22.1070   136.4329 </r>
       <r>    -7.6085     7.3474   137.1961 </r>
       <r>    -7.5046    10.0702   138.2421 </r>
       <r>    -7.4007    12.7970   139.5714 </r>
       <r>    -7.2968    21.9390   141.8502 </r>
       <r>    -7.1930    23.5064   144.2919 </r>
       <r>    -7.0891    14.9344   145.8431 </r>
       <r>    -6.9852    14.5194   147.3513 </r>
       <r>    -6.8814    13.9228   148.7975 </r>
       <r>    -6.7775     9.6561   149.8005 </r>
       <r>    -6.6736    10.6863   150.9105 </r>
       <r>    -6.5697    10.5082   152.0020 </r>
       <r>    -6.4659    11.1859   153.1639 </r>
       <r>    -6.3620     9.8463   154.1867 </r>
       <r>    -6.2581    16.7431   155.9258 </r>
       <r>    -6.1543    22.2265   158.2345 </r>
       <r>    -6.0504    13.1665   159.6021 </r>
       <r>    -5.9465    11.5162   160.7984 </r>
       <r>    -5.8426    14.0781   162.2607 </r>
       <r>    -5.7388    21.0593   164.4482 </r>
       <r>    -5.6349    11.2749   165.6193 </r>
       <r>    -5.5310     6.6516   166.3102 </r>
       <r>    -5.4271     4.0181   166.7276 </r>
       <r>    -5.3233     2.5988   166.9975 </r>
       <r>    -5.2194     3.2165   167.3316 </r>
       <r>    -5.1155    13.1067   168.6931 </r>
       <r>    -5.0117    20.1337   170.7844 </r>
       <r>    -4.9078    17.7164   172.6246 </r>
       <r>    -4.8039    15.6172   174.2468 </r>
       <r>    -4.7000     9.7102   175.2554 </r>
       <r>    -4.5962    13.6696   176.6753 </r>
       <r>    -4.4923     5.4939   177.2460 </r>
       <r>    -4.3884     1.1013   177.3604 </r>
       <r>    -4.2846    10.5924   178.4606 </r>
       <r>    -4.1807     6.2408   179.1089 </r>
       <r>    -4.0768     7.7790   179.9169 </r>
       <r>    -3.9729     9.9219   180.9475 </r>
       <r>    -3.8691     7.3671   181.7127 </r>
       <r>    -3.7652     2.7582   181.9992 </r>
       <r>    -3.6613     0.0075   182.0000 </r>
       <r>    -3.5575     0.4939   182.0513 </r>
       <r>    -3.4536     1.8994   182.2486 </r>
       <r>    -3.3497     3.2749   182.5888 </r>
       <r>    -3.2458     4.6340   183.0701 </r>
       <r>    -3.1420     3.8263   183.4676 </r>
       <r>    -3.0381     0.3121   183.5000 </r>
       <r>    -2.9342     0.0001   183.5000 </r>
       <r>    -2.8303     0.0002   183.5000 </r>
       <r>    -2.7265     0.7901   183.5821 </r>
       <r>    -2.6226     3.9031   183.9875 </r>
       <r>    -2.5187     0.1202   184.0000 </r>
       <r>    -2.4149     0.0253   184.0026 </r>
       <r>    -2.3110     3.0937   184.3240 </r>
       <r>    -2.2071     1.6924   184.4998 </r>
       <r>    -2.1032     0.0022   184.5000 </r>
       <r>    -1.9994     0.1677   184.5174 </r>
       <r>    -1.8955     2.5241   184.7796 </r>
       <r>    -1.7916     3.5620   185.1496 </r>
       <r>    -1.6878     5.0561   185.6748 </r>
       <r>    -1.5839     1.7721   185.8589 </r>
       <r>    -1.4800     1.3717   186.0013 </r>
       <r>    -1.3761     3.5078   186.3657 </r>
       <r>    -1.2723     9.1708   187.3183 </r>
       <r>    -1.1684     1.7478   187.4998 </r>
       <r>    -1.0645     0.8260   187.5856 </r>
       <r>    -0.9607     7.3597   188.3501 </r>
       <r>    -0.8568    17.9862   190.2184 </r>
       <r>    -0.7529     6.9969   190.9451 </r>
       <r>    -0.6490     9.2363   191.9045 </r>
       <r>    -0.5452    10.0516   192.9486 </r>
       <r>    -0.4413     6.9995   193.6757 </r>
       <r>    -0.3374     5.0222   194.1973 </r>
       <r>    -0.2335     4.9436   194.7108 </r>
       <r>    -0.1297    11.4612   195.9013 </r>
       <r>    -0.0258     8.8388   196.8194 </r>
       <r>     0.0781    10.1636   197.8751 </r>
       <r>     0.1819    12.2349   199.1460 </r>
       <r>     0.2858     4.9913   199.6645 </r>
       <r>     0.3897     3.1728   199.9940 </r>
       <r>     0.4936     3.0705   200.3130 </r>
       <r>     0.5974     5.3667   200.8704 </r>
       <r>     0.7013     6.3426   201.5292 </r>
       <r>     0.8052    10.7122   202.6419 </r>
       <r>     0.9090     4.9185   203.1528 </r>
       <r>     1.0129    11.4445   204.3416 </r>
       <r>     1.1168     9.4339   205.3215 </r>
       <r>     1.2207     5.9811   205.9428 </r>
       <r>     1.3245    10.4233   207.0255 </r>
       <r>     1.4284    17.1746   208.8094 </r>
       <r>     1.5323    16.6965   210.5437 </r>
       <r>     1.6361    13.1186   211.9064 </r>
       <r>     1.7400    11.3794   213.0884 </r>
       <r>     1.8439     8.0252   213.9220 </r>
       <r>     1.9478    15.1932   215.5001 </r>
       <r>     2.0516    19.1170   217.4858 </r>
       <r>     2.1555    13.6203   218.9006 </r>
       <r>     2.2594    20.7361   221.0545 </r>
       <r>     2.3633    19.3411   223.0635 </r>
       <r>     2.4671    26.4170   225.8075 </r>
       <r>     2.5710     5.1278   226.3401 </r>
       <r>     2.6749     8.3427   227.2067 </r>
       <r>     2.7787    19.2336   229.2045 </r>
       <r>     2.8826    35.3593   232.8774 </r>
       <r>     2.9865    44.0476   237.4527 </r>
       <r>     3.0904    15.6673   239.0801 </r>
       <r>     3.1942    20.6286   241.2228 </r>
       <r>     3.2981    20.7473   243.3779 </r>
       <r>     3.4020     9.0571   244.3187 </r>
       <r>     3.5058    25.1243   246.9284 </r>
       <r>     3.6097    20.6350   249.0718 </r>
       <r>     3.7136    11.7458   250.2918 </r>
       <r>     3.8175    25.8581   252.9778 </r>
       <r>     3.9213    25.9072   255.6688 </r>
       <r>     4.0252    23.1907   258.0777 </r>
       <r>     4.1291    13.6881   259.4995 </r>
       <r>     4.2329    17.3775   261.3045 </r>
       <r>     4.3368    27.8682   264.1992 </r>
       <r>     4.4407     7.6260   264.9914 </r>
       <r>     4.5446     0.0831   265.0000 </r>
       <r>     4.6484     0.0000   265.0000 </r>
       <r>     4.7523     0.0000   265.0000 </r>
       <r>     4.8562     0.0000   265.0000 </r>
       <r>     4.9601     0.0000   265.0000 </r>
       <r>     5.0639     0.0000   265.0000 </r>
       <r>     5.1678     0.0000   265.0000 </r>
       <r>     5.2717     0.0000   265.0000 </r>
       <r>     5.3755     0.0000   265.0000 </r>
       <r>     5.4794     0.0000   265.0000 </r>
       <r>     5.5833     0.0000   265.0000 </r>
       <r>     5.6872     0.0000   265.0000 </r>
       <r>     5.7910     0.0000   265.0000 </r>
      </set>
     </set>
    </array>
   </total>
  </dos>
 </calculation>
 <structure name="finalpos" >
  <crystal>
   <varray name="basis" >
    <v>      17.27103806       0.00000000       0.00000000 </v>
    <v>      -8.63551903      14.95715771       0.00000000 </v>
    <v>       0.00000000       0.00000000      15.00000000 </v>
   </varray>
   <i name="volume">   3874.88459904 </i>
   <varray name="rec_basis" >
    <v>       0.05790040       0.03342881       0.00000000 </v>
    <v>       0.00000000       0.06685762       0.00000000 </v>
    <v>       0.00000000       0.00000000       0.06666667 </v>
   </varray>
  </crystal>
  <varray name="positions" >
   <v>       0.99918483       0.99934247       0.50124275 </v>
   <v>       0.99890599       0.14198895       0.50060644 </v>
   <v>       0.99891826       0.28512960       0.50038020 </v>
   <v>       0.99891359       0.42824243       0.50073728 </v>
   <v>       0.99923292       0.57118935       0.50126332 </v>
   <v>       0.99957850       0.71393362       0.50123636 </v>
   <v>       0.99956371       0.85697774       0.50118457 </v>
   <v>       0.14281509       0.00010585       0.50082674 </v>
   <v>       0.14217274       0.14246976       0.50032504 </v>
   <v>       0.14109716       0.28454199       0.49973977 </v>
   <v>       0.14109924       0.42789979       0.49984694 </v>
   <v>       0.14218011       0.57102625       0.50045954 </v>
   <v>       0.14284277       0.71405201       0.50088348 </v>
   <v>       0.14286957       0.85710138       0.50097932 </v>
   <v>       0.28596596       0.00014045       0.50055298 </v>
   <v>       0.28606347       0.14313203       0.49990072 </v>
   <v>       0.28517394       0.28661096       0.49836838 </v>
   <v>       0.28243129       0.42688474       0.49731725 </v>
   <v>       0.28516611       0.56990354       0.49856628 </v>
   <v>       0.28607182       0.71425733       0.49996338 </v>
   <v>       0.28597237       0.85717557       0.50051415 </v>
   <v>       0.42881383       0.00007297       0.50036174 </v>
   <v>       0.42944394       0.14368499       0.50006530 </v>
   <v>       0.42798461       0.28374112       0.49926607 </v>
   <v>       0.42800996       0.71556654       0.49931981 </v>
   <v>       0.42944350       0.85707766       0.50005224 </v>
   <v>       0.57131625       0.99992973       0.50013683 </v>
   <v>       0.57133421       0.14276540       0.50019320 </v>
   <v>       0.57473950       0.28884578       0.49938076 </v>
   <v>       0.57473648       0.85727134       0.49928399 </v>
   <v>       0.71412800       0.00031359       0.49986835 </v>
   <v>       0.71399869       0.14267919       0.50036947 </v>
   <v>       0.71413851       0.28520187       0.49997324 </v>
   <v>       0.71001487       0.42450400       0.49793046 </v>
   <v>       0.71587161       0.57172574       0.48978481 </v>
   <v>       0.71585475       0.71546383       0.48979631 </v>
   <v>       0.70999866       0.85687507       0.49784808 </v>
   <v>       0.85620694       0.99938469       0.50016270 </v>
   <v>       0.85648166       0.14253586       0.50031621 </v>
   <v>       0.85649980       0.28533298       0.50040501 </v>
   <v>       0.85624092       0.42819332       0.50028364 </v>
   <v>       0.85576912       0.57048657       0.49983901 </v>
   <v>       0.85682884       0.71407443       0.49877207 </v>
   <v>       0.85572902       0.85659267       0.49985840 </v>
   <v>       0.04687829       0.09461748       0.50084862 </v>
   <v>       0.04596623       0.23696788       0.50033567 </v>
   <v>       0.04596584       0.38033391       0.50043283 </v>
   <v>       0.04690097       0.52358855       0.50091747 </v>
   <v>       0.04726112       0.66652142       0.50128737 </v>
   <v>       0.04719894       0.80926729       0.50117769 </v>
   <v>       0.04723686       0.95207686       0.50123161 </v>
   <v>       0.19041065       0.09510814       0.50033669 </v>
   <v>       0.18931454       0.23750846       0.49955199 </v>
   <v>       0.18737237       0.37936437       0.49913213 </v>
   <v>       0.18931861       0.52313209       0.49974777 </v>
   <v>       0.19042861       0.66662963       0.50039137 </v>
   <v>       0.19066300       0.80956217       0.50079229 </v>
   <v>       0.19066433       0.95244717       0.50076882 </v>
   <v>       0.33400013       0.09588300       0.50022020 </v>
   <v>       0.33455338       0.23859970       0.49914212 </v>
   <v>       0.32876367       0.37919501       0.49656117 </v>
   <v>       0.32872952       0.52090466       0.49670867 </v>
   <v>       0.33459235       0.66729073       0.49924841 </v>
   <v>       0.33399097       0.80944239       0.50022033 </v>
   <v>       0.33337053       0.95236558       0.50051305 </v>
   <v>       0.47636001       0.09529712       0.50023432 </v>
   <v>       0.47701062       0.23944459       0.49968017 </v>
   <v>       0.47700919       0.80889135       0.49965153 </v>
   <v>       0.47635271       0.95240990       0.50022615 </v>
   <v>       0.61870810       0.09503424       0.50030425 </v>
   <v>       0.61942096       0.23824362       0.49985322 </v>
   <v>       0.61942410       0.95256863       0.49972151 </v>
   <v>       0.76166765       0.09545667       0.50029319 </v>
   <v>       0.76165543       0.23757034       0.50034657 </v>
   <v>       0.76088337       0.38000355       0.49947312 </v>
   <v>       0.75950839       0.52283371       0.49624316 </v>
   <v>       0.76114492       0.66623963       0.49273968 </v>
   <v>       0.75946879       0.80800064       0.49626991 </v>
   <v>       0.76086452       0.95225073       0.49936539 </v>
   <v>       0.90369049       0.09432069       0.50041914 </v>
   <v>       0.90392903       0.23764173       0.50038484 </v>
   <v>       0.90370785       0.38072539       0.50057023 </v>
   <v>       0.90387154       0.52355951       0.50085417 </v>
   <v>       0.90381031       0.66594732       0.50023951 </v>
   <v>       0.90379165       0.80918511       0.50022775 </v>
   <v>       0.90383426       0.95163007       0.50082319 </v>
   <v>       0.46625017       0.35633505       0.49884728 </v>
   <v>       0.40105607       0.41876002       0.49543739 </v>
   <v>       0.40101477       0.55364501       0.49554095 </v>
   <v>       0.64393073       0.68108232       0.47994662 </v>
   <v>       0.64393714       0.53411059       0.47996484 </v>
   <v>       0.46628551       0.68125616       0.49893000 </v>
   <v>       0.55200584       0.60681868       0.53546113 </v>
   <v>       0.55281318       0.51808055       0.53529042 </v>
   <v>       0.61991205       0.37943769       0.49844700 </v>
   <v>       0.61990282       0.81184550       0.49838640 </v>
   <v>       0.51265735       0.54229955       0.53488800 </v>
  </varray>
  <varray name="selective"  type="logical" >
   <v type="logical" >  T  T  T </v>
   <v type="logical" >  T  T  T </v>
   <v type="logical" >  T  T  T </v>
   <v type="logical" >  T  T  T </v>
   <v type="logical" >  T  T  T </v>
   <v type="logical" >  T  T  T </v>
   <v type="logical" >  T  T  T </v>
   <v type="logical" >  T  T  T </v>
   <v type="logical" >  T  T  T </v>
   <v type="logical" >  T  T  T </v>
   <v type="logical" >  T  T  T </v>
   <v type="logical" >  T  T  T </v>
   <v type="logical" >  T  T  T </v>
   <v type="logical" >  T  T  T </v>
   <v type="logical" >  T  T  T </v>
   <v type="logical" >  T  T  T </v>
   <v type="logical" >  T  T  T </v>
   <v type="logical" >  T  T  T </v>
   <v type="logical" >  T  T  T </v>
   <v type="logical" >  T  T  T </v>
   <v type="logical" >  T  T  T </v>
   <v type="logical" >  T  T  T </v>
   <v type="logical" >  T  T  T </v>
   <v type="logical" >  T  T  T </v>
   <v type="logical" >  T  T  T </v>
   <v type="logical" >  T  T  T </v>
   <v type="logical" >  T  T  T </v>
   <v type="logical" >  T  T  T </v>
   <v type="logical" >  T  T  T </v>
   <v type="logical" >  T  T  T </v>
   <v type="logical" >  T  T  T </v>
   <v type="logical" >  T  T  T </v>
   <v type="logical" >  T  T  T </v>
   <v type="logical" >  T  T  T </v>
   <v type="logical" >  T  T  T </v>
   <v type="logical" >  T  T  T </v>
   <v type="logical" >  T  T  T </v>
   <v type="logical" >  T  T  T </v>
   <v type="logical" >  T  T  T </v>
   <v type="logical" >  T  T  T </v>
   <v type="logical" >  T  T  T </v>
   <v type="logical" >  T  T  T </v>
   <v type="logical" >  T  T  T </v>
   <v type="logical" >  T  T  T </v>
   <v type="logical" >  T  T  T </v>
   <v type="logical" >  T  T  T </v>
   <v type="logical" >  T  T  T </v>
   <v type="logical" >  T  T  T </v>
   <v type="logical" >  T  T  T </v>
   <v type="logical" >  T  T  T </v>
   <v type="logical" >  T  T  T </v>
   <v type="logical" >  T  T  T </v>
   <v type="logical" >  T  T  T </v>
   <v type="logical" >  T  T  T </v>
   <v type="logical" >  T  T  T </v>
   <v type="logical" >  T  T  T </v>
   <v type="logical" >  T  T  T </v>
   <v type="logical" >  T  T  T </v>
   <v type="logical" >  T  T  T </v>
   <v type="logical" >  T  T  T </v>
   <v type="logical" >  T  T  T </v>
   <v type="logical" >  T  T  T </v>
   <v type="logical" >  T  T  T </v>
   <v type="logical" >  T  T  T </v>
   <v type="logical" >  T  T  T </v>
   <v type="logical" >  T  T  T </v>
   <v type="logical" >  T  T  T </v>
   <v type="logical" >  T  T  T </v>
   <v type="logical" >  T  T  T </v>
   <v type="logical" >  T  T  T </v>
   <v type="logical" >  T  T  T </v>
   <v type="logical" >  T  T  T </v>
   <v type="logical" >  T  T  T </v>
   <v type="logical" >  T  T  T </v>
   <v type="logical" >  T  T  T </v>
   <v type="logical" >  T  T  T </v>
   <v type="logical" >  T  T  T </v>
   <v type="logical" >  T  T  T </v>
   <v type="logical" >  T  T  T </v>
   <v type="logical" >  T  T  T </v>
   <v type="logical" >  T  T  T </v>
   <v type="logical" >  T  T  T </v>
   <v type="logical" >  T  T  T </v>
   <v type="logical" >  T  T  T </v>
   <v type="logical" >  T  T  T </v>
   <v type="logical" >  T  T  T </v>
   <v type="logical" >  T  T  T </v>
   <v type="logical" >  T  T  T </v>
   <v type="logical" >  T  T  T </v>
   <v type="logical" >  T  T  T </v>
   <v type="logical" >  T  T  T </v>
   <v type="logical" >  T  T  T </v>
   <v type="logical" >  T  T  T </v>
   <v type="logical" >  T  T  T </v>
   <v type="logical" >  T  T  T </v>
   <v type="logical" >  T  T  T </v>
   <v type="logical" >  T  T  F </v>
  </varray>
  <nose>
   <v>      -3.00000000       0.00000000       0.00010000       0.00010000 </v>
  </nose>
 </structure>
</modeling>
