unknown system                          
           1
    17.271038    0.000000    0.000000
    -8.635519   14.957158    0.000000
     0.000000    0.000000   15.000000
   C    H    N    O 
    86     8     2     1
Direct configuration=     1
   0.99918465  0.99933952  0.50125279
   0.99890645  0.14198868  0.50060986
   0.99891674  0.28512838  0.50037463
   0.99891387  0.42824291  0.50073189
   0.99923370  0.57119115  0.50127751
   0.99957997  0.71393674  0.50125526
   0.99956542  0.85697808  0.50119466
   0.14281622  0.00010574  0.50082676
   0.14217274  0.14246954  0.50032075
   0.14109495  0.28454138  0.49974516
   0.14109744  0.42789957  0.49985159
   0.14218108  0.57102726  0.50046702
   0.14284374  0.71405369  0.50089260
   0.14286919  0.85710297  0.50098159
   0.28596920  0.00014085  0.50055063
   0.28606709  0.14313266  0.49989922
   0.28517473  0.28661254  0.49836225
   0.28242653  0.42688261  0.49730952
   0.28516565  0.56990151  0.49856737
   0.28607441  0.71425769  0.49996884
   0.28597528  0.85717728  0.50051321
   0.42881642  0.00007416  0.50035941
   0.42944718  0.14368719  0.50007302
   0.42798911  0.28374485  0.49928094
   0.42801193  0.71556522  0.49933647
   0.42944503  0.85707747  0.50005523
   0.57131697  0.99993037  0.50013800
   0.57133504  0.14276396  0.50019520
   0.57473938  0.28884365  0.49939428
   0.57473612  0.85726921  0.49929688
   0.71412807  0.00031270  0.49987488
   0.71399883  0.14267870  0.50036979
   0.71413715  0.28519996  0.49997950
   0.71001577  0.42450416  0.49794633
   0.71587520  0.57172565  0.48972215
   0.71585709  0.71546772  0.48972224
   0.71000092  0.85687534  0.49785336
   0.85620797  0.99938366  0.50017085
   0.85648097  0.14253575  0.50031524
   0.85649753  0.28532883  0.50040126
   0.85624043  0.42819400  0.50029256
   0.85577033  0.57048938  0.49986685
   0.85682963  0.71407875  0.49878378
   0.85572848  0.85658924  0.49987434
   0.04687935  0.09461787  0.50084941
   0.04596380  0.23696577  0.50033615
   0.04596323  0.38033437  0.50042803
   0.04690155  0.52358967  0.50092104
   0.04726140  0.66651695  0.50129662
   0.04720436  0.80926834  0.50118826
   0.04724047  0.95207906  0.50123854
   0.19041170  0.09510935  0.50033159
   0.18931337  0.23750492  0.49955276
   0.18736745  0.37936222  0.49913904
   0.18931675  0.52313254  0.49975506
   0.19042943  0.66663047  0.50039922
   0.19066553  0.80956256  0.50079573
   0.19066707  0.95244934  0.50076740
   0.33399992  0.09588448  0.50022223
   0.33455117  0.23859803  0.49914170
   0.32875764  0.37919147  0.49654353
   0.32872351  0.52090159  0.49669117
   0.33458892  0.66728997  0.49925303
   0.33399132  0.80944133  0.50022348
   0.33337181  0.95236532  0.50050992
   0.47635910  0.09529751  0.50023627
   0.47700879  0.23944670  0.49969211
   0.47700933  0.80889022  0.49966471
   0.47635452  0.95240845  0.50022446
   0.61870976  0.09503131  0.50030553
   0.61942257  0.23824269  0.49985607
   0.61942612  0.95256584  0.49972747
   0.76166875  0.09545599  0.50029437
   0.76165857  0.23757325  0.50034646
   0.76088609  0.38000459  0.49948663
   0.75951145  0.52283392  0.49624754
   0.76114939  0.66624178  0.49270551
   0.75947063  0.80800152  0.49626080
   0.76086682  0.95225218  0.49937345
   0.90369088  0.09432141  0.50042273
   0.90392847  0.23764396  0.50037989
   0.90370993  0.38073001  0.50056620
   0.90387425  0.52355975  0.50087433
   0.90381461  0.66594857  0.50026418
   0.90379272  0.80918703  0.50024068
   0.90383407  0.95163243  0.50083747
   0.46624906  0.35633637  0.49886819
   0.40105169  0.41876361  0.49540534
   0.40100992  0.55363893  0.49551089
   0.64394399  0.68109317  0.47976592
   0.64395308  0.53411547  0.47978905
   0.46628410  0.68125239  0.49895018
   0.55198901  0.60681377  0.53543017
   0.55278479  0.51807222  0.53525659
   0.61991340  0.37943781  0.49846756
   0.61990388  0.81184384  0.49840244
   0.51262947  0.54229431  0.53488800
Direct configuration=     2
   0.99918406  0.99933833  0.50125016
   0.99890750  0.14198960  0.50060815
   0.99891735  0.28512821  0.50037592
   0.99891427  0.42824227  0.50073318
   0.99923321  0.57119152  0.50127433
   0.99957559  0.71393864  0.50125078
   0.99956368  0.85697731  0.50119262
   0.14281537  0.00010467  0.50082675
   0.14217280  0.14247025  0.50032185
   0.14109584  0.28454284  0.49974399
   0.14109889  0.42789951  0.49985060
   0.14218172  0.57102696  0.50046539
   0.14284319  0.71405390  0.50089053
   0.14286683  0.85710220  0.50098086
   0.28596920  0.00014054  0.50055126
   0.28606994  0.14313385  0.49989958
   0.28517665  0.28661479  0.49836362
   0.28242884  0.42688398  0.49731114
   0.28516706  0.56990134  0.49856700
   0.28607506  0.71425808  0.49996766
   0.28597533  0.85717770  0.50051352
   0.42881659  0.00007470  0.50035998
   0.42944882  0.14368653  0.50007123
   0.42799107  0.28374569  0.49927767
   0.42801254  0.71556597  0.49933278
   0.42944540  0.85707823  0.50005471
   0.57131575  0.99993378  0.50013819
   0.57133440  0.14276429  0.50019475
   0.57473898  0.28884353  0.49939136
   0.57473592  0.85727001  0.49929416
   0.71412721  0.00031286  0.49987349
   0.71399757  0.14267828  0.50036975
   0.71413588  0.28519885  0.49997812
   0.71001451  0.42450395  0.49794269
   0.71587336  0.57172589  0.48973519
   0.71585565  0.71546642  0.48973823
   0.71000027  0.85687455  0.49785216
   0.85620768  0.99938192  0.50016919
   0.85648062  0.14253544  0.50031550
   0.85649445  0.28532170  0.50040169
   0.85623962  0.42819346  0.50029070
   0.85576929  0.57049004  0.49986077
   0.85682893  0.71407764  0.49878124
   0.85572823  0.85658809  0.49987051
   0.04687979  0.09461881  0.50084951
   0.04596390  0.23696571  0.50033620
   0.04596318  0.38033473  0.50042918
   0.04690118  0.52358929  0.50092038
   0.04726343  0.66651546  0.50129448
   0.04720584  0.80926804  0.50118608
   0.04724071  0.95208004  0.50123711
   0.19041077  0.09510919  0.50033279
   0.18931351  0.23750362  0.49955216
   0.18736762  0.37936201  0.49913745
   0.18931635  0.52313272  0.49975347
   0.19042853  0.66662979  0.50039756
   0.19066510  0.80956149  0.50079504
   0.19066667  0.95244920  0.50076777
   0.33399767  0.09588526  0.50022098
   0.33454668  0.23859589  0.49914235
   0.32875704  0.37918978  0.49654744
   0.32872343  0.52090240  0.49669519
   0.33458775  0.66729029  0.49925245
   0.33399042  0.80944073  0.50022279
   0.33337045  0.95236459  0.50051064
   0.47635811  0.09529755  0.50023574
   0.47700810  0.23944644  0.49968877
   0.47700926  0.80889026  0.49966155
   0.47635425  0.95240780  0.50022488
   0.61871005  0.09503111  0.50030524
   0.61942325  0.23824364  0.49985570
   0.61942703  0.95256581  0.49972620
   0.76166949  0.09545606  0.50029418
   0.76166012  0.23757485  0.50034660
   0.76088715  0.38000547  0.49948371
   0.75951153  0.52283351  0.49624660
   0.76114841  0.66624109  0.49271254
   0.75947035  0.80800195  0.49626270
   0.76086681  0.95225245  0.49937174
   0.90369096  0.09432209  0.50042205
   0.90392882  0.23764512  0.50038101
   0.90371090  0.38073175  0.50056723
   0.90387426  0.52355888  0.50087008
   0.90381473  0.66594730  0.50025884
   0.90379203  0.80918687  0.50023728
   0.90383332  0.95163347  0.50083431
   0.46624905  0.35633554  0.49886359
   0.40105357  0.41876324  0.49541257
   0.40101167  0.55364059  0.49551763
   0.64394195  0.68109106  0.47980735
   0.64395034  0.53411485  0.47982950
   0.46628443  0.68125338  0.49894575
   0.55199265  0.60681445  0.53543696
   0.55279101  0.51807431  0.53526402
   0.61991409  0.37943870  0.49846297
   0.61990402  0.81184432  0.49839879
   0.51263678  0.54229603  0.53488800
Direct configuration=     3
   0.99918516  0.99934115  0.50124642
   0.99890723  0.14198954  0.50060698
   0.99891787  0.28512883  0.50037780
   0.99891411  0.42824240  0.50073501
   0.99923300  0.57119049  0.50126957
   0.99957675  0.71393681  0.50124402
   0.99956355  0.85697738  0.50118934
   0.14281532  0.00010516  0.50082673
   0.14217282  0.14247020  0.50032332
   0.14109647  0.28454268  0.49974219
   0.14109923  0.42789962  0.49984907
   0.14218117  0.57102665  0.50046291
   0.14284284  0.71405296  0.50088744
   0.14286771  0.85710174  0.50098014
   0.28596784  0.00014046  0.50055206
   0.28606730  0.14313307  0.49990008
   0.28517577  0.28661349  0.49836570
   0.28243009  0.42688444  0.49731369
   0.28516674  0.56990218  0.49856662
   0.28607372  0.71425780  0.49996586
   0.28597408  0.85717676  0.50051386
   0.42881536  0.00007398  0.50036076
   0.42944648  0.14368593  0.50006872
   0.42798855  0.28374398  0.49927270
   0.42801135  0.71556629  0.49932724
   0.42944462  0.85707804  0.50005376
   0.57131560  0.99993311  0.50013782
   0.57133398  0.14276464  0.50019407
   0.57473910  0.28884455  0.49938686
   0.57473618  0.85727071  0.49928991
   0.71412738  0.00031316  0.49987132
   0.71399785  0.14267858  0.50036966
   0.71413692  0.28520003  0.49997604
   0.71001448  0.42450392  0.49793738
   0.71587232  0.57172584  0.48975579
   0.71585484  0.71546559  0.48976303
   0.70999941  0.85687455  0.49785040
   0.85620772  0.99938387  0.50016616
   0.85648104  0.14253558  0.50031585
   0.85649592  0.28532476  0.50040325
   0.85624019  0.42819343  0.50028778
   0.85576923  0.57048879  0.49985158
   0.85683016  0.71407604  0.49877727
   0.85572854  0.85658990  0.49986523
   0.04687908  0.09461819  0.50084932
   0.04596483  0.23696659  0.50033607
   0.04596422  0.38033432  0.50043081
   0.04690103  0.52358887  0.50091924
   0.04726325  0.66651779  0.50129158
   0.04720176  0.80926723  0.50118239
   0.04723897  0.95207862  0.50123484
   0.19041048  0.09510856  0.50033451
   0.18931398  0.23750533  0.49955187
   0.18736947  0.37936283  0.49913512
   0.18931718  0.52313237  0.49975104
   0.19042835  0.66662959  0.50039497
   0.19066411  0.80956159  0.50079391
   0.19066560  0.95244829  0.50076825
   0.33399842  0.09588469  0.50022031
   0.33454936  0.23859719  0.49914221
   0.32875954  0.37919153  0.49655328
   0.32872586  0.52090340  0.49670103
   0.33458958  0.66729053  0.49925099
   0.33399060  0.80944135  0.50022174
   0.33337035  0.95236488  0.50051170
   0.47635982  0.09529752  0.50023526
   0.47700926  0.23944565  0.49968487
   0.47700946  0.80889084  0.49965675
   0.47635368  0.95240858  0.50022548
   0.61870927  0.09503234  0.50030482
   0.61942235  0.23824368  0.49985485
   0.61942608  0.95256684  0.49972424
   0.76166885  0.09545627  0.50029381
   0.76165840  0.23757312  0.50034665
   0.76088563  0.38000473  0.49947923
   0.75951011  0.52283356  0.49624508
   0.76114648  0.66624029  0.49272364
   0.75946955  0.80800129  0.49626564
   0.76086578  0.95225159  0.49936909
   0.90369067  0.09432156  0.50042088
   0.90392880  0.23764382  0.50038263
   0.90370977  0.38072945  0.50056860
   0.90387291  0.52355895  0.50086346
   0.90381264  0.66594732  0.50025067
   0.90379167  0.80918613  0.50023306
   0.90383320  0.95163176  0.50082966
   0.46624956  0.35633529  0.49885666
   0.40105479  0.41876185  0.49542326
   0.40101307  0.55364253  0.49552764
   0.64393759  0.68108740  0.47986775
   0.64394500  0.53411325  0.47988833
   0.46628495  0.68125456  0.49893907
   0.55199818  0.60681596  0.53544722
   0.55280035  0.51807712  0.53527523
   0.61991337  0.37943836  0.49845607
   0.61990368  0.81184487  0.49839340
   0.51264662  0.54229802  0.53488800
Direct configuration=     4
   0.99918483  0.99934247  0.50124275
   0.99890599  0.14198895  0.50060644
   0.99891826  0.28512960  0.50038020
   0.99891359  0.42824243  0.50073728
   0.99923292  0.57118935  0.50126332
   0.99957850  0.71393362  0.50123636
   0.99956371  0.85697774  0.50118457
   0.14281509  0.00010585  0.50082674
   0.14217274  0.14246976  0.50032504
   0.14109716  0.28454199  0.49973977
   0.14109924  0.42789979  0.49984694
   0.14218011  0.57102625  0.50045954
   0.14284277  0.71405201  0.50088348
   0.14286957  0.85710138  0.50097932
   0.28596596  0.00014045  0.50055298
   0.28606347  0.14313203  0.49990072
   0.28517394  0.28661096  0.49836838
   0.28243129  0.42688474  0.49731725
   0.28516611  0.56990354  0.49856628
   0.28607182  0.71425733  0.49996338
   0.28597237  0.85717557  0.50051415
   0.42881383  0.00007297  0.50036174
   0.42944394  0.14368499  0.50006530
   0.42798461  0.28374112  0.49926607
   0.42800996  0.71556654  0.49931981
   0.42944350  0.85707766  0.50005224
   0.57131625  0.99992973  0.50013683
   0.57133421  0.14276540  0.50019320
   0.57473950  0.28884578  0.49938076
   0.57473648  0.85727134  0.49928399
   0.71412800  0.00031359  0.49986835
   0.71399869  0.14267919  0.50036947
   0.71413851  0.28520187  0.49997324
   0.71001487  0.42450400  0.49793046
   0.71587161  0.57172574  0.48978481
   0.71585475  0.71546383  0.48979631
   0.70999866  0.85687507  0.49784808
   0.85620694  0.99938469  0.50016270
   0.85648166  0.14253586  0.50031621
   0.85649980  0.28533298  0.50040501
   0.85624092  0.42819332  0.50028364
   0.85576912  0.57048657  0.49983901
   0.85682884  0.71407443  0.49877207
   0.85572902  0.85659267  0.49985840
   0.04687829  0.09461748  0.50084862
   0.04596623  0.23696788  0.50033567
   0.04596584  0.38033391  0.50043283
   0.04690097  0.52358855  0.50091747
   0.04726112  0.66652142  0.50128737
   0.04719894  0.80926729  0.50117769
   0.04723686  0.95207686  0.50123161
   0.19041065  0.09510814  0.50033669
   0.18931454  0.23750846  0.49955199
   0.18737237  0.37936437  0.49913213
   0.18931861  0.52313209  0.49974777
   0.19042861  0.66662963  0.50039137
   0.19066300  0.80956217  0.50079229
   0.19066433  0.95244717  0.50076882
   0.33400013  0.09588300  0.50022020
   0.33455338  0.23859970  0.49914212
   0.32876367  0.37919501  0.49656117
   0.32872952  0.52090466  0.49670867
   0.33459235  0.66729073  0.49924841
   0.33399097  0.80944239  0.50022033
   0.33337053  0.95236558  0.50051305
   0.47636001  0.09529712  0.50023432
   0.47701062  0.23944459  0.49968017
   0.47700919  0.80889135  0.49965153
   0.47635271  0.95240990  0.50022615
   0.61870810  0.09503424  0.50030425
   0.61942096  0.23824362  0.49985322
   0.61942410  0.95256863  0.49972151
   0.76166765  0.09545667  0.50029319
   0.76165543  0.23757034  0.50034657
   0.76088337  0.38000355  0.49947312
   0.75950839  0.52283371  0.49624316
   0.76114492  0.66623963  0.49273968
   0.75946879  0.80800064  0.49626991
   0.76086452  0.95225073  0.49936539
   0.90369049  0.09432069  0.50041914
   0.90392903  0.23764173  0.50038484
   0.90370785  0.38072539  0.50057023
   0.90387154  0.52355951  0.50085417
   0.90381031  0.66594732  0.50023951
   0.90379165  0.80918511  0.50022775
   0.90383426  0.95163007  0.50082319
   0.46625017  0.35633505  0.49884728
   0.40105607  0.41876002  0.49543739
   0.40101477  0.55364501  0.49554095
   0.64393073  0.68108232  0.47994662
   0.64393714  0.53411059  0.47996484
   0.46628551  0.68125616  0.49893000
   0.55200584  0.60681868  0.53546113
   0.55281318  0.51808055  0.53529042
   0.61991205  0.37943769  0.49844700
   0.61990282  0.81184550  0.49838640
   0.51265735  0.54229955  0.53488800
Direct configuration=     5
   0.99918483  0.99934247  0.50124275
   0.99890599  0.14198895  0.50060644
   0.99891826  0.28512960  0.50038020
   0.99891359  0.42824243  0.50073728
   0.99923292  0.57118935  0.50126332
   0.99957850  0.71393362  0.50123636
   0.99956371  0.85697774  0.50118457
   0.14281509  0.00010585  0.50082674
   0.14217274  0.14246976  0.50032504
   0.14109716  0.28454199  0.49973977
   0.14109924  0.42789979  0.49984694
   0.14218011  0.57102625  0.50045954
   0.14284277  0.71405201  0.50088348
   0.14286957  0.85710138  0.50097932
   0.28596596  0.00014045  0.50055298
   0.28606347  0.14313203  0.49990072
   0.28517394  0.28661096  0.49836838
   0.28243129  0.42688474  0.49731725
   0.28516611  0.56990354  0.49856628
   0.28607182  0.71425733  0.49996338
   0.28597237  0.85717557  0.50051415
   0.42881383  0.00007297  0.50036174
   0.42944394  0.14368499  0.50006530
   0.42798461  0.28374112  0.49926607
   0.42800996  0.71556654  0.49931981
   0.42944350  0.85707766  0.50005224
   0.57131625  0.99992973  0.50013683
   0.57133421  0.14276540  0.50019320
   0.57473950  0.28884578  0.49938076
   0.57473648  0.85727134  0.49928399
   0.71412800  0.00031359  0.49986835
   0.71399869  0.14267919  0.50036947
   0.71413851  0.28520187  0.49997324
   0.71001487  0.42450400  0.49793046
   0.71587161  0.57172574  0.48978481
   0.71585475  0.71546383  0.48979631
   0.70999866  0.85687507  0.49784808
   0.85620694  0.99938469  0.50016270
   0.85648166  0.14253586  0.50031621
   0.85649980  0.28533298  0.50040501
   0.85624092  0.42819332  0.50028364
   0.85576912  0.57048657  0.49983901
   0.85682884  0.71407443  0.49877207
   0.85572902  0.85659267  0.49985840
   0.04687829  0.09461748  0.50084862
   0.04596623  0.23696788  0.50033567
   0.04596584  0.38033391  0.50043283
   0.04690097  0.52358855  0.50091747
   0.04726112  0.66652142  0.50128737
   0.04719894  0.80926729  0.50117769
   0.04723686  0.95207686  0.50123161
   0.19041065  0.09510814  0.50033669
   0.18931454  0.23750846  0.49955199
   0.18737237  0.37936437  0.49913213
   0.18931861  0.52313209  0.49974777
   0.19042861  0.66662963  0.50039137
   0.19066300  0.80956217  0.50079229
   0.19066433  0.95244717  0.50076882
   0.33400013  0.09588300  0.50022020
   0.33455338  0.23859970  0.49914212
   0.32876367  0.37919501  0.49656117
   0.32872952  0.52090466  0.49670867
   0.33459235  0.66729073  0.49924841
   0.33399097  0.80944239  0.50022033
   0.33337053  0.95236558  0.50051305
   0.47636001  0.09529712  0.50023432
   0.47701062  0.23944459  0.49968017
   0.47700919  0.80889135  0.49965153
   0.47635271  0.95240990  0.50022615
   0.61870810  0.09503424  0.50030425
   0.61942096  0.23824362  0.49985322
   0.61942410  0.95256863  0.49972151
   0.76166765  0.09545667  0.50029319
   0.76165543  0.23757034  0.50034657
   0.76088337  0.38000355  0.49947312
   0.75950839  0.52283371  0.49624316
   0.76114492  0.66623963  0.49273968
   0.75946879  0.80800064  0.49626991
   0.76086452  0.95225073  0.49936539
   0.90369049  0.09432069  0.50041914
   0.90392903  0.23764173  0.50038484
   0.90370785  0.38072539  0.50057023
   0.90387154  0.52355951  0.50085417
   0.90381031  0.66594732  0.50023951
   0.90379165  0.80918511  0.50022775
   0.90383426  0.95163007  0.50082319
   0.46625017  0.35633505  0.49884728
   0.40105607  0.41876002  0.49543739
   0.40101477  0.55364501  0.49554095
   0.64393073  0.68108232  0.47994662
   0.64393714  0.53411059  0.47996484
   0.46628551  0.68125616  0.49893000
   0.55200584  0.60681868  0.53546113
   0.55281318  0.51808055  0.53529042
   0.61991205  0.37943769  0.49844700
   0.61990282  0.81184550  0.49838640
   0.51265735  0.54229955  0.53488800
