  99  99   0   0
  0.3914025E+02  0.1727104E-08  0.1727104E-08  0.1500000E-08  0.0000000E+00
  1.000000000000000E-004
  CAR 
 unknown system                          
      6.06124754    -31.34165228  301     -2.40164556      1.00000000
    -31.342  0.0000E+00  0.0000E+00  0.0000E+00  0.0000E+00
    -31.217  0.0000E+00  0.0000E+00  0.0000E+00  0.0000E+00
    -31.092  0.0000E+00  0.0000E+00  0.0000E+00  0.0000E+00
    -30.968  0.0000E+00  0.0000E+00  0.0000E+00  0.0000E+00
    -30.843  0.0000E+00  0.0000E+00  0.0000E+00  0.0000E+00
    -30.718  0.0000E+00  0.0000E+00  0.0000E+00  0.0000E+00
    -30.594  0.0000E+00  0.0000E+00  0.0000E+00  0.0000E+00
    -30.469  0.0000E+00  0.0000E+00  0.0000E+00  0.0000E+00
    -30.344  0.0000E+00  0.0000E+00  0.0000E+00  0.0000E+00
    -30.220  0.0000E+00  0.0000E+00  0.0000E+00  0.0000E+00
    -30.095  0.0000E+00  0.0000E+00  0.0000E+00  0.0000E+00
    -29.970  0.0000E+00  0.0000E+00  0.0000E+00  0.0000E+00
    -29.846  0.3161E-10  0.3161E-10  0.3941E-11  0.3941E-11
    -29.721  0.9952E-04  0.9952E-04  0.1241E-04  0.1241E-04
    -29.596  0.8998E-02  0.8998E-02  0.1134E-02  0.1134E-02
    -29.472  0.1289E-01  0.1289E-01  0.2741E-02  0.2741E-02
    -29.347  0.5640E-02  0.5640E-02  0.3444E-02  0.3444E-02
    -29.222  0.1253E-01  0.1253E-01  0.5006E-02  0.5006E-02
    -29.097  0.1396E-01  0.1396E-01  0.6747E-02  0.6747E-02
    -28.973  0.9872E-02  0.9872E-02  0.7977E-02  0.7977E-02
    -28.848  0.1814E-03  0.1814E-03  0.8000E-02  0.8000E-02
    -28.723  0.1291E-09  0.1291E-09  0.8000E-02  0.8000E-02
    -28.599  0.0000E+00  0.0000E+00  0.8000E-02  0.8000E-02
    -28.474  0.0000E+00  0.0000E+00  0.8000E-02  0.8000E-02
    -28.349  0.0000E+00  0.0000E+00  0.8000E-02  0.8000E-02
    -28.225  0.0000E+00  0.0000E+00  0.8000E-02  0.8000E-02
    -28.100  0.0000E+00  0.0000E+00  0.8000E-02  0.8000E-02
    -27.975  0.0000E+00  0.0000E+00  0.8000E-02  0.8000E-02
    -27.851  0.0000E+00  0.0000E+00  0.8000E-02  0.8000E-02
    -27.726  0.0000E+00  0.0000E+00  0.8000E-02  0.8000E-02
    -27.601  0.0000E+00  0.0000E+00  0.8000E-02  0.8000E-02
    -27.477  0.0000E+00  0.0000E+00  0.8000E-02  0.8000E-02
    -27.352  0.0000E+00  0.0000E+00  0.8000E-02  0.8000E-02
    -27.227  0.0000E+00  0.0000E+00  0.8000E-02  0.8000E-02
    -27.103  0.0000E+00  0.0000E+00  0.8000E-02  0.8000E-02
    -26.978  0.0000E+00  0.0000E+00  0.8000E-02  0.8000E-02
    -26.853  0.0000E+00  0.0000E+00  0.8000E-02  0.8000E-02
    -26.729  0.0000E+00  0.0000E+00  0.8000E-02  0.8000E-02
    -26.604  0.0000E+00  0.0000E+00  0.8000E-02  0.8000E-02
    -26.479  0.0000E+00  0.0000E+00  0.8000E-02  0.8000E-02
    -26.355  0.0000E+00  0.0000E+00  0.8000E-02  0.8000E-02
    -26.230  0.0000E+00  0.0000E+00  0.8000E-02  0.8000E-02
    -26.105  0.0000E+00  0.0000E+00  0.8000E-02  0.8000E-02
    -25.981  0.0000E+00  0.0000E+00  0.8000E-02  0.8000E-02
    -25.856  0.0000E+00  0.0000E+00  0.8000E-02  0.8000E-02
    -25.731  0.0000E+00  0.0000E+00  0.8000E-02  0.8000E-02
    -25.607  0.0000E+00  0.0000E+00  0.8000E-02  0.8000E-02
    -25.482  0.0000E+00  0.0000E+00  0.8000E-02  0.8000E-02
    -25.357  0.0000E+00  0.0000E+00  0.8000E-02  0.8000E-02
    -25.233  0.0000E+00  0.0000E+00  0.8000E-02  0.8000E-02
    -25.108  0.0000E+00  0.0000E+00  0.8000E-02  0.8000E-02
    -24.983  0.0000E+00  0.0000E+00  0.8000E-02  0.8000E-02
    -24.858  0.0000E+00  0.0000E+00  0.8000E-02  0.8000E-02
    -24.734  0.0000E+00  0.0000E+00  0.8000E-02  0.8000E-02
    -24.609  0.0000E+00  0.0000E+00  0.8000E-02  0.8000E-02
    -24.484  0.0000E+00  0.0000E+00  0.8000E-02  0.8000E-02
    -24.360  0.0000E+00  0.0000E+00  0.8000E-02  0.8000E-02
    -24.235  0.0000E+00  0.0000E+00  0.8000E-02  0.8000E-02
    -24.110  0.0000E+00  0.0000E+00  0.8000E-02  0.8000E-02
    -23.986  0.0000E+00  0.0000E+00  0.8000E-02  0.8000E-02
    -23.861  0.0000E+00  0.0000E+00  0.8000E-02  0.8000E-02
    -23.736  0.0000E+00  0.0000E+00  0.8000E-02  0.8000E-02
    -23.612  0.0000E+00  0.0000E+00  0.8000E-02  0.8000E-02
    -23.487  0.0000E+00  0.0000E+00  0.8000E-02  0.8000E-02
    -23.362  0.0000E+00  0.0000E+00  0.8000E-02  0.8000E-02
    -23.238  0.0000E+00  0.0000E+00  0.8000E-02  0.8000E-02
    -23.113  0.0000E+00  0.0000E+00  0.8000E-02  0.8000E-02
    -22.988  0.0000E+00  0.0000E+00  0.8000E-02  0.8000E-02
    -22.864  0.1243E-11  0.1243E-11  0.8000E-02  0.8000E-02
    -22.739  0.2266E-04  0.2266E-04  0.8003E-02  0.8003E-02
    -22.614  0.6202E-02  0.6202E-02  0.8776E-02  0.8776E-02
    -22.490  0.1796E-02  0.1796E-02  0.9000E-02  0.9000E-02
    -22.365  0.7316E-07  0.7316E-07  0.9000E-02  0.9000E-02
    -22.240  0.0000E+00  0.0000E+00  0.9000E-02  0.9000E-02
    -22.116  0.1217E-12  0.1217E-12  0.9000E-02  0.9000E-02
    -21.991  0.3614E-05  0.3614E-05  0.9000E-02  0.9000E-02
    -21.866  0.2022E-02  0.2022E-02  0.9253E-02  0.9253E-02
    -21.742  0.8807E-02  0.8807E-02  0.1035E-01  0.1035E-01
    -21.617  0.3471E-02  0.3471E-02  0.1078E-01  0.1078E-01
    -21.492  0.7877E-02  0.7877E-02  0.1177E-01  0.1177E-01
    -21.368  0.1051E-01  0.1051E-01  0.1308E-01  0.1308E-01
    -21.243  0.3337E-02  0.3337E-02  0.1349E-01  0.1349E-01
    -21.118  0.3993E-02  0.3993E-02  0.1399E-01  0.1399E-01
    -20.994  0.1217E-01  0.1217E-01  0.1551E-01  0.1551E-01
    -20.869  0.7969E-02  0.7969E-02  0.1650E-01  0.1650E-01
    -20.744  0.2028E-02  0.2028E-02  0.1675E-01  0.1675E-01
    -20.619  0.4603E-02  0.4603E-02  0.1733E-01  0.1733E-01
    -20.495  0.9120E-02  0.9120E-02  0.1846E-01  0.1846E-01
    -20.370  0.1001E-01  0.1001E-01  0.1971E-01  0.1971E-01
    -20.245  0.1009E-01  0.1009E-01  0.2097E-01  0.2097E-01
    -20.121  0.2896E-02  0.2896E-02  0.2133E-01  0.2133E-01
    -19.996  0.3835E-02  0.3835E-02  0.2181E-01  0.2181E-01
    -19.871  0.7315E-02  0.7315E-02  0.2272E-01  0.2272E-01
    -19.747  0.4050E-02  0.4050E-02  0.2323E-01  0.2323E-01
    -19.622  0.1033E-01  0.1033E-01  0.2451E-01  0.2451E-01
    -19.497  0.1462E-01  0.1462E-01  0.2634E-01  0.2634E-01
    -19.373  0.3437E-02  0.3437E-02  0.2677E-01  0.2677E-01
    -19.248  0.4131E-02  0.4131E-02  0.2728E-01  0.2728E-01
    -19.123  0.7981E-02  0.7981E-02  0.2828E-01  0.2828E-01
    -18.999  0.6207E-02  0.6207E-02  0.2905E-01  0.2905E-01
    -18.874  0.2246E-02  0.2246E-02  0.2933E-01  0.2933E-01
    -18.749  0.9353E-02  0.9353E-02  0.3050E-01  0.3050E-01
    -18.625  0.1282E-01  0.1282E-01  0.3209E-01  0.3209E-01
    -18.500  0.7803E-02  0.7803E-02  0.3307E-01  0.3307E-01
    -18.375  0.6646E-02  0.6646E-02  0.3390E-01  0.3390E-01
    -18.251  0.6837E-02  0.6837E-02  0.3475E-01  0.3475E-01
    -18.126  0.8016E-02  0.8016E-02  0.3575E-01  0.3575E-01
    -18.001  0.7358E-02  0.7358E-02  0.3666E-01  0.3666E-01
    -17.877  0.3842E-02  0.3842E-02  0.3714E-01  0.3714E-01
    -17.752  0.3179E-02  0.3179E-02  0.3754E-01  0.3754E-01
    -17.627  0.7814E-02  0.7814E-02  0.3851E-01  0.3851E-01
    -17.503  0.1519E-01  0.1519E-01  0.4041E-01  0.4041E-01
    -17.378  0.1210E-01  0.1210E-01  0.4192E-01  0.4192E-01
    -17.253  0.8593E-02  0.8593E-02  0.4299E-01  0.4299E-01
    -17.129  0.5967E-02  0.5967E-02  0.4373E-01  0.4373E-01
    -17.004  0.7392E-02  0.7392E-02  0.4465E-01  0.4465E-01
    -16.879  0.7036E-02  0.7036E-02  0.4553E-01  0.4553E-01
    -16.755  0.8097E-02  0.8097E-02  0.4654E-01  0.4654E-01
    -16.630  0.3789E-02  0.3789E-02  0.4701E-01  0.4701E-01
    -16.505  0.1160E-01  0.1160E-01  0.4846E-01  0.4846E-01
    -16.380  0.1495E-01  0.1495E-01  0.5032E-01  0.5032E-01
    -16.256  0.5146E-02  0.5146E-02  0.5096E-01  0.5096E-01
    -16.131  0.2410E-02  0.2410E-02  0.5126E-01  0.5126E-01
    -16.006  0.2391E-02  0.2391E-02  0.5156E-01  0.5156E-01
    -15.882  0.2630E-02  0.2630E-02  0.5189E-01  0.5189E-01
    -15.757  0.3168E-02  0.3168E-02  0.5229E-01  0.5229E-01
    -15.632  0.4232E-02  0.4232E-02  0.5281E-01  0.5281E-01
    -15.508  0.6002E-02  0.6002E-02  0.5356E-01  0.5356E-01
    -15.383  0.7718E-02  0.7718E-02  0.5452E-01  0.5452E-01
    -15.258  0.7864E-02  0.7864E-02  0.5550E-01  0.5550E-01
    -15.134  0.9326E-02  0.9326E-02  0.5667E-01  0.5667E-01
    -15.009  0.1144E-01  0.1144E-01  0.5809E-01  0.5809E-01
    -14.884  0.7590E-02  0.7590E-02  0.5904E-01  0.5904E-01
    -14.760  0.6988E-02  0.6988E-02  0.5991E-01  0.5991E-01
    -14.635  0.8699E-02  0.8699E-02  0.6100E-01  0.6100E-01
    -14.510  0.1004E-01  0.1004E-01  0.6225E-01  0.6225E-01
    -14.386  0.1591E-01  0.1591E-01  0.6423E-01  0.6423E-01
    -14.261  0.8786E-02  0.8786E-02  0.6533E-01  0.6533E-01
    -14.136  0.5339E-02  0.5339E-02  0.6599E-01  0.6599E-01
    -14.012  0.4754E-02  0.4754E-02  0.6658E-01  0.6658E-01
    -13.887  0.4939E-02  0.4939E-02  0.6720E-01  0.6720E-01
    -13.762  0.6893E-02  0.6893E-02  0.6806E-01  0.6806E-01
    -13.638  0.1251E-01  0.1251E-01  0.6962E-01  0.6962E-01
    -13.513  0.1004E-01  0.1004E-01  0.7087E-01  0.7087E-01
    -13.388  0.8342E-02  0.8342E-02  0.7191E-01  0.7191E-01
    -13.264  0.4124E-02  0.4124E-02  0.7243E-01  0.7243E-01
    -13.139  0.3314E-02  0.3314E-02  0.7284E-01  0.7284E-01
    -13.014  0.6249E-02  0.6249E-02  0.7362E-01  0.7362E-01
    -12.890  0.7809E-02  0.7809E-02  0.7459E-01  0.7459E-01
    -12.765  0.1582E-01  0.1582E-01  0.7656E-01  0.7656E-01
    -12.640  0.1607E-01  0.1607E-01  0.7857E-01  0.7857E-01
    -12.516  0.3535E-02  0.3535E-02  0.7901E-01  0.7901E-01
    -12.391  0.1354E-01  0.1354E-01  0.8070E-01  0.8070E-01
    -12.266  0.1119E-01  0.1119E-01  0.8209E-01  0.8209E-01
    -12.141  0.6091E-02  0.6091E-02  0.8285E-01  0.8285E-01
    -12.017  0.8518E-02  0.8518E-02  0.8391E-01  0.8391E-01
    -11.892  0.1453E-01  0.1453E-01  0.8572E-01  0.8572E-01
    -11.767  0.1216E-01  0.1216E-01  0.8724E-01  0.8724E-01
    -11.643  0.1155E-01  0.1155E-01  0.8868E-01  0.8868E-01
    -11.518  0.1182E-01  0.1182E-01  0.9016E-01  0.9016E-01
    -11.393  0.9147E-02  0.9147E-02  0.9130E-01  0.9130E-01
    -11.269  0.1309E-01  0.1309E-01  0.9293E-01  0.9293E-01
    -11.144  0.1310E-01  0.1310E-01  0.9456E-01  0.9456E-01
    -11.019  0.1132E-01  0.1132E-01  0.9597E-01  0.9597E-01
    -10.895  0.1168E-01  0.1168E-01  0.9743E-01  0.9743E-01
    -10.770  0.1037E-01  0.1037E-01  0.9872E-01  0.9872E-01
    -10.645  0.1058E-01  0.1058E-01  0.1000E+00  0.1000E+00
    -10.521  0.1340E-01  0.1340E-01  0.1017E+00  0.1017E+00
    -10.396  0.1267E-01  0.1267E-01  0.1033E+00  0.1033E+00
    -10.271  0.1628E-01  0.1628E-01  0.1053E+00  0.1053E+00
    -10.147  0.2318E-01  0.2318E-01  0.1082E+00  0.1082E+00
    -10.022  0.2384E-01  0.2384E-01  0.1112E+00  0.1112E+00
     -9.897  0.2054E-01  0.2054E-01  0.1137E+00  0.1137E+00
     -9.773  0.1740E-01  0.1740E-01  0.1159E+00  0.1159E+00
     -9.648  0.1942E-01  0.1942E-01  0.1183E+00  0.1183E+00
     -9.523  0.2155E-01  0.2155E-01  0.1210E+00  0.1210E+00
     -9.399  0.2439E-01  0.2439E-01  0.1241E+00  0.1241E+00
     -9.274  0.2324E-01  0.2324E-01  0.1270E+00  0.1270E+00
     -9.149  0.2542E-01  0.2542E-01  0.1301E+00  0.1301E+00
     -9.025  0.1413E-01  0.1413E-01  0.1319E+00  0.1319E+00
     -8.900  0.2216E-01  0.2216E-01  0.1347E+00  0.1347E+00
     -8.775  0.2761E-01  0.2761E-01  0.1381E+00  0.1381E+00
     -8.651  0.2384E-01  0.2384E-01  0.1411E+00  0.1411E+00
     -8.526  0.1627E-01  0.1627E-01  0.1431E+00  0.1431E+00
     -8.401  0.1405E-01  0.1405E-01  0.1448E+00  0.1448E+00
     -8.277  0.1508E-01  0.1508E-01  0.1467E+00  0.1467E+00
     -8.152  0.1688E-01  0.1688E-01  0.1488E+00  0.1488E+00
     -8.027  0.2495E-01  0.2495E-01  0.1519E+00  0.1519E+00
     -7.903  0.2306E-01  0.2306E-01  0.1548E+00  0.1548E+00
     -7.778  0.1542E-01  0.1542E-01  0.1567E+00  0.1567E+00
     -7.653  0.1481E-01  0.1481E-01  0.1586E+00  0.1586E+00
     -7.528  0.1310E-01  0.1310E-01  0.1602E+00  0.1602E+00
     -7.404  0.1735E-01  0.1735E-01  0.1624E+00  0.1624E+00
     -7.279  0.2123E-01  0.2123E-01  0.1650E+00  0.1650E+00
     -7.154  0.1593E-01  0.1593E-01  0.1670E+00  0.1670E+00
     -7.030  0.1763E-01  0.1763E-01  0.1692E+00  0.1692E+00
     -6.905  0.1981E-01  0.1981E-01  0.1717E+00  0.1717E+00
     -6.780  0.1653E-01  0.1653E-01  0.1737E+00  0.1737E+00
     -6.656  0.1464E-01  0.1464E-01  0.1756E+00  0.1756E+00
     -6.531  0.1440E-01  0.1440E-01  0.1774E+00  0.1774E+00
     -6.406  0.1055E-01  0.1055E-01  0.1787E+00  0.1787E+00
     -6.282  0.9054E-02  0.9054E-02  0.1798E+00  0.1798E+00
     -6.157  0.2260E-01  0.2260E-01  0.1826E+00  0.1826E+00
     -6.032  0.2156E-01  0.2156E-01  0.1853E+00  0.1853E+00
     -5.908  0.4934E-02  0.4934E-02  0.1859E+00  0.1859E+00
     -5.783  0.1137E-01  0.1137E-01  0.1873E+00  0.1873E+00
     -5.658  0.1187E-01  0.1187E-01  0.1888E+00  0.1888E+00
     -5.534  0.7614E-02  0.7614E-02  0.1898E+00  0.1898E+00
     -5.409  0.7193E-02  0.7193E-02  0.1907E+00  0.1907E+00
     -5.284  0.6046E-02  0.6046E-02  0.1914E+00  0.1914E+00
     -5.160  0.4085E-02  0.4085E-02  0.1919E+00  0.1919E+00
     -5.035  0.1949E-01  0.1949E-01  0.1944E+00  0.1944E+00
     -4.910  0.1198E-01  0.1198E-01  0.1959E+00  0.1959E+00
     -4.786  0.1807E-01  0.1807E-01  0.1981E+00  0.1981E+00
     -4.661  0.3611E-02  0.3611E-02  0.1986E+00  0.1986E+00
     -4.536  0.9027E-02  0.9027E-02  0.1997E+00  0.1997E+00
     -4.412  0.9125E-02  0.9125E-02  0.2008E+00  0.2008E+00
     -4.287  0.6429E-02  0.6429E-02  0.2016E+00  0.2016E+00
     -4.162  0.8963E-02  0.8963E-02  0.2027E+00  0.2027E+00
     -4.038  0.6465E-02  0.6465E-02  0.2036E+00  0.2036E+00
     -3.913  0.5393E-02  0.5393E-02  0.2042E+00  0.2042E+00
     -3.788  0.5664E-02  0.5664E-02  0.2049E+00  0.2049E+00
     -3.664  0.6102E-02  0.6102E-02  0.2057E+00  0.2057E+00
     -3.539  0.2469E-02  0.2469E-02  0.2060E+00  0.2060E+00
     -3.414  0.1728E-05  0.1728E-05  0.2060E+00  0.2060E+00
     -3.289  0.1047E-02  0.1047E-02  0.2061E+00  0.2061E+00
     -3.165  0.6770E-02  0.6770E-02  0.2070E+00  0.2070E+00
     -3.040  0.2763E-02  0.2763E-02  0.2073E+00  0.2073E+00
     -2.915  0.1448E-02  0.1448E-02  0.2075E+00  0.2075E+00
     -2.791  0.2452E-05  0.2452E-05  0.2075E+00  0.2075E+00
     -2.666  0.4466E-03  0.4466E-03  0.2076E+00  0.2076E+00
     -2.541  0.3518E-02  0.3518E-02  0.2080E+00  0.2080E+00
     -2.417  0.4585E-04  0.4585E-04  0.2080E+00  0.2080E+00
     -2.292  0.3556E-05  0.3556E-05  0.2080E+00  0.2080E+00
     -2.167  0.2602E-02  0.2602E-02  0.2083E+00  0.2083E+00
     -2.043  0.1405E-02  0.1405E-02  0.2085E+00  0.2085E+00
     -1.918  0.2637E-03  0.2637E-03  0.2085E+00  0.2085E+00
     -1.793  0.1737E-02  0.1737E-02  0.2087E+00  0.2087E+00
     -1.669  0.4275E-02  0.4275E-02  0.2093E+00  0.2093E+00
     -1.544  0.3866E-02  0.3866E-02  0.2098E+00  0.2098E+00
     -1.419  0.1865E-02  0.1865E-02  0.2100E+00  0.2100E+00
     -1.295  0.2796E-03  0.2796E-03  0.2100E+00  0.2100E+00
     -1.170  0.4841E-02  0.4841E-02  0.2106E+00  0.2106E+00
     -1.045  0.4877E-02  0.4877E-02  0.2112E+00  0.2112E+00
     -0.921  0.1866E-01  0.1866E-01  0.2136E+00  0.2136E+00
     -0.796  0.9396E-02  0.9396E-02  0.2147E+00  0.2147E+00
     -0.671  0.3467E-02  0.3467E-02  0.2152E+00  0.2152E+00
     -0.547  0.1345E-01  0.1345E-01  0.2169E+00  0.2169E+00
     -0.422  0.1018E-01  0.1018E-01  0.2181E+00  0.2181E+00
     -0.297  0.4581E-02  0.4581E-02  0.2187E+00  0.2187E+00
     -0.173  0.3029E-02  0.3029E-02  0.2191E+00  0.2191E+00
     -0.048  0.8061E-02  0.8061E-02  0.2201E+00  0.2201E+00
      0.077  0.1211E-01  0.1211E-01  0.2216E+00  0.2216E+00
      0.201  0.1511E-01  0.1511E-01  0.2235E+00  0.2235E+00
      0.326  0.4745E-02  0.4745E-02  0.2241E+00  0.2241E+00
      0.451  0.4136E-02  0.4136E-02  0.2246E+00  0.2246E+00
      0.575  0.4463E-02  0.4463E-02  0.2251E+00  0.2251E+00
      0.700  0.6680E-02  0.6680E-02  0.2260E+00  0.2260E+00
      0.825  0.6748E-02  0.6748E-02  0.2268E+00  0.2268E+00
      0.950  0.7248E-02  0.7248E-02  0.2277E+00  0.2277E+00
      1.074  0.9612E-02  0.9613E-02  0.2289E+00  0.2289E+00
      1.199  0.7675E-02  0.7675E-02  0.2299E+00  0.2299E+00
      1.324  0.7620E-02  0.7620E-02  0.2308E+00  0.2308E+00
      1.448  0.2106E-01  0.2106E-01  0.2334E+00  0.2334E+00
      1.573  0.1773E-01  0.1773E-01  0.2357E+00  0.2357E+00
      1.698  0.8021E-02  0.8021E-02  0.2367E+00  0.2367E+00
      1.822  0.7534E-02  0.7534E-02  0.2376E+00  0.2376E+00
      1.947  0.1187E-01  0.1187E-01  0.2391E+00  0.2391E+00
      2.072  0.2505E-01  0.2505E-01  0.2422E+00  0.2422E+00
      2.196  0.1265E-01  0.1265E-01  0.2438E+00  0.2438E+00
      2.321  0.1379E-01  0.1379E-01  0.2455E+00  0.2455E+00
      2.446  0.2121E-01  0.2121E-01  0.2481E+00  0.2481E+00
      2.570  0.2251E-01  0.2251E-01  0.2509E+00  0.2509E+00
      2.695  0.7970E-02  0.7970E-02  0.2519E+00  0.2519E+00
      2.820  0.2094E-01  0.2094E-01  0.2545E+00  0.2545E+00
      2.944  0.3120E-01  0.3120E-01  0.2584E+00  0.2584E+00
      3.069  0.4584E-01  0.4584E-01  0.2642E+00  0.2642E+00
      3.194  0.1376E-01  0.1376E-01  0.2659E+00  0.2659E+00
      3.318  0.1547E-01  0.1547E-01  0.2678E+00  0.2678E+00
      3.443  0.1682E-01  0.1682E-01  0.2699E+00  0.2699E+00
      3.568  0.2258E-01  0.2258E-01  0.2727E+00  0.2727E+00
      3.692  0.2136E-01  0.2136E-01  0.2754E+00  0.2754E+00
      3.817  0.2023E-01  0.2023E-01  0.2779E+00  0.2779E+00
      3.942  0.3102E-01  0.3102E-01  0.2818E+00  0.2818E+00
      4.066  0.2765E-01  0.2765E-01  0.2852E+00  0.2852E+00
      4.191  0.1808E-01  0.1808E-01  0.2875E+00  0.2875E+00
      4.316  0.1446E-01  0.1446E-01  0.2893E+00  0.2893E+00
      4.440  0.5871E-02  0.5871E-02  0.2900E+00  0.2900E+00
      4.565  0.2972E-04  0.2972E-04  0.2900E+00  0.2900E+00
      4.690  0.8074E-11  0.8071E-11  0.2900E+00  0.2900E+00
      4.814  0.0000E+00  0.0000E+00  0.2900E+00  0.2900E+00
      4.939  0.0000E+00  0.0000E+00  0.2900E+00  0.2900E+00
      5.064  0.0000E+00  0.0000E+00  0.2900E+00  0.2900E+00
      5.189  0.0000E+00  0.0000E+00  0.2900E+00  0.2900E+00
      5.313  0.0000E+00  0.0000E+00  0.2900E+00  0.2900E+00
      5.438  0.0000E+00  0.0000E+00  0.2900E+00  0.2900E+00
      5.563  0.0000E+00  0.0000E+00  0.2900E+00  0.2900E+00
      5.687  0.0000E+00  0.0000E+00  0.2900E+00  0.2900E+00
      5.812  0.0000E+00  0.0000E+00  0.2900E+00  0.2900E+00
      5.937  0.0000E+00  0.0000E+00  0.2900E+00  0.2900E+00
      6.061  0.0000E+00  0.0000E+00  0.2900E+00  0.2900E+00
