       N       E                     dE             d eps       ncg     rms          rms(c)
DAV:   1     0.384980358811E+04    0.38498E+04   -0.16181E+05  5060   0.110E+03
DAV:   2    -0.183888341316E+03   -0.40337E+04   -0.38140E+04  6900   0.275E+02
DAV:   3    -0.872111862321E+03   -0.68822E+03   -0.68490E+03  5720   0.119E+02
DAV:   4    -0.893899795185E+03   -0.21788E+02   -0.21681E+02  5750   0.261E+01
DAV:   5    -0.894550128876E+03   -0.65033E+00   -0.64927E+00  6600   0.383E+00    0.529E+01
DAV:   6    -0.876285274099E+03    0.18265E+02   -0.21322E+01  5700   0.108E+01    0.341E+01
DAV:   7    -0.855581385082E+03    0.20704E+02   -0.38149E+01  5550   0.102E+01    0.208E+01
DAV:   8    -0.850708560994E+03    0.48728E+01   -0.19587E+01  5610   0.682E+00    0.913E+00
DAV:   9    -0.850927773565E+03   -0.21921E+00   -0.12495E+00  5630   0.214E+00    0.427E+00
DAV:  10    -0.850719410637E+03    0.20836E+00   -0.66306E-01  5390   0.141E+00    0.125E+00
DAV:  11    -0.850703775313E+03    0.15635E-01   -0.11300E-01  5350   0.661E-01    0.301E-01
DAV:  12    -0.850703603282E+03    0.17203E-03   -0.13868E-02  5550   0.247E-01    0.134E-01
DAV:  13    -0.850703790620E+03   -0.18734E-03   -0.18316E-03  5650   0.887E-02    0.100E-01
DAV:  14    -0.850703821402E+03   -0.30782E-04   -0.32673E-04  5460   0.366E-02    0.628E-02
DAV:  15    -0.850703883588E+03   -0.62186E-04   -0.21663E-04  5240   0.316E-02    0.247E-02
DAV:  16    -0.850703880562E+03    0.30257E-05   -0.48744E-05  5390   0.182E-02    0.122E-02
DAV:  17    -0.850703881398E+03   -0.83572E-06   -0.11814E-05  5630   0.699E-03    0.796E-03
DAV:  18    -0.850703880470E+03    0.92760E-06   -0.45996E-06  5030   0.777E-03
   1 F= -.85867183E+03 E0= -.85867183E+03  d E =-.858672E+03  mag=     0.0000
       N       E                     dE             d eps       ncg     rms          rms(c)
DAV:   1    -0.850704195527E+03   -0.31413E-03   -0.25989E-02  4940   0.228E-01    0.294E-02
DAV:   2    -0.850704228499E+03   -0.32972E-04   -0.47984E-04  4900   0.290E-02    0.192E-02
DAV:   3    -0.850704226915E+03    0.15842E-05   -0.67840E-06  4680   0.453E-03    0.146E-02
DAV:   4    -0.850704231269E+03   -0.43542E-05   -0.93212E-06  4420   0.549E-03    0.442E-03
DAV:   5    -0.850704232615E+03   -0.13460E-05   -0.30062E-06  3880   0.235E-03    0.272E-03
DAV:   6    -0.850704232729E+03   -0.11424E-06   -0.41420E-07  3190   0.133E-03
   2 F= -.85867213E+03 E0= -.85867213E+03  d E =-.299833E-03  mag=    -0.0000
       N       E                     dE             d eps       ncg     rms          rms(c)
DAV:   1    -0.850704746497E+03   -0.51388E-03   -0.98306E-02  4960   0.444E-01    0.565E-02
DAV:   2    -0.850704874759E+03   -0.12826E-03   -0.17960E-03  4820   0.558E-02    0.362E-02
DAV:   3    -0.850704871561E+03    0.31985E-05   -0.23358E-05  5630   0.833E-03    0.277E-02
DAV:   4    -0.850704886934E+03   -0.15373E-04   -0.35076E-05  4580   0.108E-02    0.720E-03
DAV:   5    -0.850704890454E+03   -0.35210E-05   -0.10746E-05  4770   0.436E-03    0.465E-03
DAV:   6    -0.850704890751E+03   -0.29673E-06   -0.11142E-06  3620   0.225E-03
   3 F= -.85867268E+03 E0= -.85867268E+03  d E =-.552081E-03  mag=     0.0000
       N       E                     dE             d eps       ncg     rms          rms(c)
DAV:   1    -0.850705562620E+03   -0.67217E-03   -0.20651E-01  4960   0.642E-01    0.806E-02
DAV:   2    -0.850705822618E+03   -0.26000E-03   -0.37285E-03  4810   0.800E-02    0.519E-02
DAV:   3    -0.850705817723E+03    0.48954E-05   -0.45257E-05  5560   0.118E-02    0.400E-02
DAV:   4    -0.850705859951E+03   -0.42228E-04   -0.85782E-05  4960   0.169E-02    0.924E-03
DAV:   5    -0.850705864839E+03   -0.48880E-05   -0.21695E-05  5280   0.634E-03    0.696E-03
DAV:   6    -0.850705865465E+03   -0.62549E-06   -0.27425E-06  3880   0.347E-03
   4 F= -.85867350E+03 E0= -.85867350E+03  d E =-.814392E-03  mag=    -0.0000
       N       E                     dE             d eps       ncg     rms          rms(c)
DAV:   1    -0.850706609694E+03   -0.74486E-03   -0.34680E-01  4920   0.824E-01    0.104E-01
DAV:   2    -0.850707046888E+03   -0.43719E-03   -0.62287E-03  4860   0.102E-01    0.674E-02
DAV:   3    -0.850707032315E+03    0.14573E-04   -0.74236E-05  5560   0.152E-02    0.520E-02
DAV:   4    -0.850707109111E+03   -0.76796E-04   -0.15686E-04  5220   0.226E-02    0.121E-02
DAV:   5    -0.850707115817E+03   -0.67061E-05   -0.35944E-05  5300   0.833E-03    0.966E-03
DAV:   6    -0.850707116889E+03   -0.10721E-05   -0.66179E-06  4240   0.497E-03    0.444E-03
DAV:   7    -0.850707117092E+03   -0.20305E-06   -0.90675E-07  3800   0.178E-03
   5 F= -.85867454E+03 E0= -.85867454E+03  d E =-.104041E-02  mag=    -0.0000
       N       E                     dE             d eps       ncg     rms          rms(c)
DAV:   1    -0.850707866505E+03   -0.74962E-03   -0.51139E-01  4820   0.989E-01    0.126E-01
DAV:   2    -0.850708529560E+03   -0.66306E-03   -0.91803E-03  4860   0.122E-01    0.820E-02
DAV:   3    -0.850708498570E+03    0.30990E-04   -0.10906E-04  5550   0.181E-02    0.634E-02
DAV:   4    -0.850708597704E+03   -0.99134E-04   -0.23737E-04  5310   0.271E-02    0.144E-02
DAV:   5    -0.850708607192E+03   -0.94888E-05   -0.53541E-05  5300   0.100E-02    0.116E-02
DAV:   6    -0.850708608668E+03   -0.14758E-05   -0.91976E-06  4340   0.572E-03    0.540E-03
DAV:   7    -0.850708608877E+03   -0.20835E-06   -0.13321E-06  3900   0.215E-03
   6 F= -.85867577E+03 E0= -.85867577E+03  d E =-.123506E-02  mag=    -0.0000
       N       E                     dE             d eps       ncg     rms          rms(c)
DAV:   1    -0.850709280071E+03   -0.67140E-03   -0.69276E-01  4800   0.114E+00    0.148E-01
DAV:   2    -0.850710201406E+03   -0.92134E-03   -0.12495E-02  4850   0.140E-01    0.956E-02
DAV:   3    -0.850710154365E+03    0.47041E-04   -0.14952E-04  5560   0.209E-02    0.738E-02
DAV:   4    -0.850710271884E+03   -0.11752E-03   -0.31239E-04  5480   0.307E-02    0.165E-02
DAV:   5    -0.850710286008E+03   -0.14123E-04   -0.71854E-05  5320   0.114E-02    0.129E-02
DAV:   6    -0.850710287299E+03   -0.12913E-05   -0.10244E-05  4340   0.615E-03    0.632E-03
DAV:   7    -0.850710287579E+03   -0.27950E-06   -0.19873E-06  3960   0.262E-03
   7 F= -.85867716E+03 E0= -.85867716E+03  d E =-.138044E-02  mag=    -0.0000
       N       E                     dE             d eps       ncg     rms          rms(c)
DAV:   1    -0.850710794736E+03   -0.50744E-03   -0.10754E+00  4800   0.140E+00    0.185E-01
DAV:   2    -0.850712270057E+03   -0.14753E-02   -0.19452E-02  4810   0.173E-01    0.119E-01
DAV:   3    -0.850712192724E+03    0.77333E-04   -0.23197E-04  5620   0.258E-02    0.918E-02
DAV:   4    -0.850712339624E+03   -0.14690E-03   -0.47641E-04  5480   0.377E-02    0.204E-02
DAV:   5    -0.850712362559E+03   -0.22935E-04   -0.11064E-04  5320   0.139E-02    0.160E-02
DAV:   6    -0.850712364433E+03   -0.18735E-05   -0.15911E-05  4360   0.757E-03    0.781E-03
DAV:   7    -0.850712365051E+03   -0.61891E-06   -0.32318E-06  4360   0.328E-03
   8 F= -.85867886E+03 E0= -.85867886E+03  d E =-.170099E-02  mag=    -0.0000
       N       E                     dE             d eps       ncg     rms          rms(c)
DAV:   1    -0.850712455732E+03   -0.91299E-04   -0.15868E+00  4800   0.168E+00    0.224E-01
DAV:   2    -0.850714690412E+03   -0.22347E-02   -0.28592E-02  4870   0.205E-01    0.144E-01
DAV:   3    -0.850714566719E+03    0.12369E-03   -0.33042E-04  5580   0.308E-02    0.112E-01
DAV:   4    -0.850714738971E+03   -0.17225E-03   -0.76362E-04  5500   0.471E-02    0.249E-02
DAV:   5    -0.850714767695E+03   -0.28724E-04   -0.16565E-04  5340   0.170E-02    0.212E-02
DAV:   6    -0.850714769215E+03   -0.15201E-05   -0.33958E-05  4420   0.104E-02    0.933E-03
DAV:   7    -0.850714769919E+03   -0.70420E-06   -0.46800E-06  4760   0.379E-03
   9 F= -.85868080E+03 E0= -.85868080E+03  d E =-.194207E-02  mag=    -0.0000
       N       E                     dE             d eps       ncg     rms          rms(c)
DAV:   1    -0.850714023717E+03    0.74550E-03   -0.22877E+00  4800   0.200E+00    0.269E-01
DAV:   2    -0.850717365682E+03   -0.33420E-02   -0.41580E-02  4900   0.243E-01    0.174E-01
DAV:   3    -0.850717176056E+03    0.18963E-03   -0.47543E-04  5600   0.365E-02    0.136E-01
DAV:   4    -0.850717349956E+03   -0.17390E-03   -0.11790E-03  5540   0.573E-02    0.304E-02
DAV:   5    -0.850717391969E+03   -0.42013E-04   -0.24449E-04  5340   0.205E-02    0.266E-02
DAV:   6    -0.850717394606E+03   -0.26372E-05   -0.57732E-05  4570   0.131E-02    0.113E-02
DAV:   7    -0.850717395450E+03   -0.84381E-06   -0.74540E-06  5300   0.467E-03
  10 F= -.85868287E+03 E0= -.85868287E+03  d E =-.207382E-02  mag=     0.0000
       N       E                     dE             d eps       ncg     rms          rms(c)
DAV:   1    -0.850715666066E+03    0.17285E-02   -0.30136E+00  4800   0.229E+00    0.315E-01
DAV:   2    -0.850720169701E+03   -0.45036E-02   -0.55364E-02  4900   0.280E-01    0.200E-01
DAV:   3    -0.850719928471E+03    0.24123E-03   -0.65537E-04  5640   0.429E-02    0.155E-01
DAV:   4    -0.850720091048E+03   -0.16258E-03   -0.13686E-03  5500   0.631E-02    0.350E-02
DAV:   5    -0.850720154630E+03   -0.63581E-04   -0.31305E-04  5320   0.228E-02    0.288E-02
DAV:   6    -0.850720161059E+03   -0.64296E-05   -0.61882E-05  4540   0.145E-02    0.129E-02
DAV:   7    -0.850720162736E+03   -0.16764E-05   -0.10092E-05  5440   0.547E-03    0.859E-03
DAV:   8    -0.850720162066E+03    0.66917E-06   -0.63598E-06  4280   0.547E-03
  11 F= -.85868500E+03 E0= -.85868500E+03  d E =-.212314E-02  mag=    -0.0000
       N       E                     dE             d eps       ncg     rms          rms(c)
DAV:   1    -0.850717145953E+03    0.30168E-02   -0.39909E+00  4800   0.269E+00    0.359E-01
DAV:   2    -0.850723360446E+03   -0.62145E-02   -0.74900E-02  4920   0.335E-01    0.237E-01
DAV:   3    -0.850722992687E+03    0.36776E-03   -0.87272E-04  5680   0.487E-02    0.185E-01
DAV:   4    -0.850723122475E+03   -0.12979E-03   -0.23189E-03  5500   0.800E-02    0.425E-02
DAV:   5    -0.850723183728E+03   -0.61253E-04   -0.46899E-04  5360   0.286E-02    0.383E-02
DAV:   6    -0.850723185705E+03   -0.19765E-05   -0.12574E-04  4580   0.201E-02    0.159E-02
DAV:   7    -0.850723189114E+03   -0.34095E-05   -0.18790E-05  5420   0.753E-03    0.122E-02
DAV:   8    -0.850723188495E+03    0.61949E-06   -0.97116E-06  4420   0.683E-03
  12 F= -.85868727E+03 E0= -.85868727E+03  d E =-.227534E-02  mag=     0.0000
       N       E                     dE             d eps       ncg     rms          rms(c)
DAV:   1    -0.850718313431E+03    0.48757E-02   -0.46712E+00  4800   0.303E+00    0.401E-01
DAV:   2    -0.850725768074E+03   -0.74546E-02   -0.89812E-02  4920   0.382E-01    0.259E-01
DAV:   3    -0.850725373413E+03    0.39466E-03   -0.11298E-03  5700   0.582E-02    0.202E-01
DAV:   4    -0.850725512780E+03   -0.13937E-03   -0.21746E-03  5440   0.831E-02    0.500E-02
DAV:   5    -0.850725606517E+03   -0.93737E-04   -0.51749E-04  5340   0.301E-02    0.397E-02
DAV:   6    -0.850725606321E+03    0.19614E-06   -0.14711E-04  4960   0.217E-02    0.162E-02
DAV:   7    -0.850725609230E+03   -0.29084E-05   -0.17926E-05  5460   0.714E-03    0.121E-02
DAV:   8    -0.850725608221E+03    0.10082E-05   -0.81011E-06  4440   0.623E-03    0.586E-03
DAV:   9    -0.850725609129E+03   -0.90798E-06   -0.33630E-06  3660   0.294E-03
  13 F= -.85868888E+03 E0= -.85868888E+03  d E =-.160885E-02  mag=     0.0000
       N       E                     dE             d eps       ncg     rms          rms(c)
DAV:   1    -0.850726932523E+03   -0.13243E-02   -0.70478E-02  4860   0.408E-01    0.541E-02
DAV:   2    -0.850727071858E+03   -0.13933E-03   -0.18276E-03  5340   0.589E-02    0.506E-02
DAV:   3    -0.850727052704E+03    0.19153E-04   -0.30595E-05  5960   0.970E-03    0.431E-02
DAV:   4    -0.850727026062E+03    0.26642E-04   -0.88068E-05  5010   0.153E-02    0.155E-02
DAV:   5    -0.850727028853E+03   -0.27909E-05   -0.26910E-05  5060   0.681E-03    0.699E-03
DAV:   6    -0.850727029151E+03   -0.29788E-06   -0.21550E-06  3740   0.307E-03
  14 F= -.85869027E+03 E0= -.85869027E+03  d E =-.139525E-02  mag=     0.0000
       N       E                     dE             d eps       ncg     rms          rms(c)
DAV:   1    -0.850726280474E+03    0.74838E-03   -0.10191E-01  4820   0.514E-01    0.636E-02
DAV:   2    -0.850726478183E+03   -0.19771E-03   -0.25516E-03  5380   0.741E-02    0.578E-02
DAV:   3    -0.850726453094E+03    0.25089E-04   -0.42773E-05  5880   0.117E-02    0.486E-02
DAV:   4    -0.850726424676E+03    0.28417E-04   -0.12176E-04  5020   0.183E-02    0.165E-02
DAV:   5    -0.850726429032E+03   -0.43558E-05   -0.32223E-05  5120   0.766E-03    0.809E-03
DAV:   6    -0.850726429542E+03   -0.51039E-06   -0.24244E-06  3720   0.332E-03
  15 F= -.85868963E+03 E0= -.85868963E+03  d E =0.645192E-03  mag=    -0.0000
       N       E                     dE             d eps       ncg     rms          rms(c)
DAV:   1    -0.850726782385E+03   -0.35335E-03   -0.24505E-03  4920   0.786E-02    0.106E-02
DAV:   2    -0.850726787303E+03   -0.49183E-05   -0.67689E-05  5470   0.116E-02    0.104E-02
DAV:   3    -0.850726786475E+03    0.82856E-06   -0.99464E-07  3760   0.185E-03
  16 F= -.85868998E+03 E0= -.85868998E+03  d E =-.355125E-03  mag=    -0.0000
       N       E                     dE             d eps       ncg     rms          rms(c)
DAV:   1    -0.850727212158E+03   -0.42485E-03   -0.76545E-03  4900   0.141E-01    0.204E-02
DAV:   2    -0.850727226353E+03   -0.14195E-04   -0.19724E-04  5440   0.200E-02    0.191E-02
DAV:   3    -0.850727223730E+03    0.26226E-05   -0.37920E-06  4680   0.352E-03    0.161E-02
DAV:   4    -0.850727220880E+03    0.28500E-05   -0.11878E-05  4740   0.583E-03    0.552E-03
DAV:   5    -0.850727221271E+03   -0.39110E-06   -0.31555E-06  3830   0.241E-03
  17 F= -.85869042E+03 E0= -.85869042E+03  d E =-.430626E-03  mag=    -0.0000
       N       E                     dE             d eps       ncg     rms          rms(c)
DAV:   1    -0.850727397418E+03   -0.17654E-03   -0.11757E-02  4900   0.180E-01    0.229E-02
DAV:   2    -0.850727424100E+03   -0.26682E-04   -0.33415E-04  5380   0.266E-02    0.211E-02
DAV:   3    -0.850727420822E+03    0.32786E-05   -0.56791E-06  4940   0.423E-03    0.180E-02
DAV:   4    -0.850727417013E+03    0.38085E-05   -0.14556E-05  4740   0.666E-03    0.670E-03
DAV:   5    -0.850727417493E+03   -0.47983E-06   -0.42251E-06  4110   0.289E-03
  18 F= -.85869060E+03 E0= -.85869060E+03  d E =-.188323E-03  mag=     0.0000
       N       E                     dE             d eps       ncg     rms          rms(c)
DAV:   1    -0.850727322223E+03    0.94790E-04   -0.96601E-03  4820   0.179E-01    0.206E-02
DAV:   2    -0.850727344242E+03   -0.22018E-04   -0.27243E-04  5340   0.264E-02    0.182E-02
DAV:   3    -0.850727341935E+03    0.23067E-05   -0.46280E-06  4960   0.395E-03    0.152E-02
DAV:   4    -0.850727340126E+03    0.18096E-05   -0.10396E-05  4600   0.606E-03    0.558E-03
DAV:   5    -0.850727340552E+03   -0.42604E-06   -0.27831E-06  3880   0.254E-03
  19 F= -.85869051E+03 E0= -.85869051E+03  d E =0.913852E-04  mag=    -0.0000
       N       E                     dE             d eps       ncg     rms          rms(c)
DAV:   1    -0.850727366533E+03   -0.26408E-04   -0.53717E-05  4740   0.118E-02    0.233E-03
DAV:   2    -0.850727366603E+03   -0.69660E-07   -0.13451E-06  3050   0.182E-03
  20 F= -.85869054E+03 E0= -.85869054E+03  d E =-.249364E-04  mag=    -0.0000
       N       E                     dE             d eps       ncg     rms          rms(c)
DAV:   1    -0.850727414188E+03   -0.47654E-04   -0.20789E-04  4820   0.231E-02    0.396E-03
DAV:   2    -0.850727414419E+03   -0.23155E-06   -0.47891E-06  3940   0.333E-03
  21 F= -.85869058E+03 E0= -.85869058E+03  d E =-.455918E-04  mag=    -0.0000
       N       E                     dE             d eps       ncg     rms          rms(c)
DAV:   1    -0.850727475651E+03   -0.61463E-04   -0.43815E-04  4800   0.337E-02    0.638E-03
DAV:   2    -0.850727476037E+03   -0.38684E-06   -0.10097E-05  5200   0.483E-03    0.579E-03
DAV:   3    -0.850727475776E+03    0.26130E-06   -0.33835E-07  2780   0.111E-03
  22 F= -.85869064E+03 E0= -.85869064E+03  d E =-.580227E-04  mag=    -0.0000
       N       E                     dE             d eps       ncg     rms          rms(c)
DAV:   1    -0.850727540730E+03   -0.64693E-04   -0.68270E-04  4840   0.427E-02    0.576E-03
DAV:   2    -0.850727541779E+03   -0.10485E-05   -0.14543E-05  5340   0.584E-03    0.517E-03
DAV:   3    -0.850727541651E+03    0.12757E-06   -0.19978E-07  2700   0.902E-04
  23 F= -.85869070E+03 E0= -.85869070E+03  d E =-.614877E-04  mag=    -0.0000
       N       E                     dE             d eps       ncg     rms          rms(c)
DAV:   1    -0.850727601608E+03   -0.59829E-04   -0.95650E-04  4800   0.512E-02    0.640E-03
DAV:   2    -0.850727603146E+03   -0.15377E-05   -0.20557E-05  5480   0.701E-03    0.566E-03
DAV:   3    -0.850727602984E+03    0.16139E-06   -0.26631E-07  2880   0.104E-03
  24 F= -.85869076E+03 E0= -.85869076E+03  d E =-.558326E-04  mag=    -0.0000
       N       E                     dE             d eps       ncg     rms          rms(c)
DAV:   1    -0.850727651967E+03   -0.48821E-04   -0.11920E-03  4800   0.584E-02    0.711E-03
DAV:   2    -0.850727653832E+03   -0.18651E-05   -0.25142E-05  5440   0.794E-03    0.617E-03
DAV:   3    -0.850727653642E+03    0.18987E-06   -0.32156E-07  3220   0.115E-03
  25 F= -.85869080E+03 E0= -.85869080E+03  d E =-.440159E-04  mag=    -0.0000
       N       E                     dE             d eps       ncg     rms          rms(c)
DAV:   1    -0.850727695146E+03   -0.41314E-04   -0.16547E-03  4780   0.709E-02    0.815E-03
DAV:   2    -0.850727697724E+03   -0.25782E-05   -0.34516E-05  5380   0.963E-03    0.688E-03
DAV:   3    -0.850727697500E+03    0.22387E-06   -0.42388E-07  3440   0.134E-03
  26 F= -.85869084E+03 E0= -.85869084E+03  d E =-.352456E-04  mag=     0.0000
       N       E                     dE             d eps       ncg     rms          rms(c)
DAV:   1    -0.850727735729E+03   -0.38004E-04   -0.21085E-03  4720   0.829E-02    0.900E-03
DAV:   2    -0.850727738966E+03   -0.32372E-05   -0.43140E-05  5260   0.112E-02    0.726E-03
DAV:   3    -0.850727738775E+03    0.19064E-06   -0.49588E-07  3540   0.148E-03
  27 F= -.85869087E+03 E0= -.85869087E+03  d E =-.305063E-04  mag=    -0.0000
       N       E                     dE             d eps       ncg     rms          rms(c)
DAV:   1    -0.850727787363E+03   -0.48398E-04   -0.25808E-03  4720   0.950E-02    0.976E-03
DAV:   2    -0.850727791333E+03   -0.39694E-05   -0.52342E-05  5000   0.128E-02    0.740E-03
DAV:   3    -0.850727791216E+03    0.11639E-06   -0.54677E-07  3660   0.160E-03
  28 F= -.85869091E+03 E0= -.85869091E+03  d E =-.394465E-04  mag=     0.0000
       N       E                     dE             d eps       ncg     rms          rms(c)
DAV:   1    -0.850727865943E+03   -0.74611E-04   -0.32164E-03  4720   0.109E-01    0.108E-02
DAV:   2    -0.850727870929E+03   -0.49851E-05   -0.65364E-05  4680   0.146E-02    0.774E-03
DAV:   3    -0.850727870902E+03    0.26950E-07   -0.64951E-07  3660   0.178E-03
  29 F= -.85869097E+03 E0= -.85869097E+03  d E =-.643742E-04  mag=    -0.0000
       N       E                     dE             d eps       ncg     rms          rms(c)
DAV:   1    -0.850727984054E+03   -0.11313E-03   -0.42892E-03  4720   0.128E-01    0.126E-02
DAV:   2    -0.850727990844E+03   -0.67903E-05   -0.88657E-05  4640   0.172E-02    0.885E-03
DAV:   3    -0.850727990855E+03   -0.10899E-07   -0.90535E-07  3780   0.211E-03
  30 F= -.85869107E+03 E0= -.85869107E+03  d E =-.102056E-03  mag=     0.0000
       N       E                     dE             d eps       ncg     rms          rms(c)
DAV:   1    -0.850728139010E+03   -0.14817E-03   -0.62385E-03  4720   0.155E-01    0.154E-02
DAV:   2    -0.850728149251E+03   -0.10240E-04   -0.13283E-04  4640   0.211E-02    0.109E-02
DAV:   3    -0.850728149193E+03    0.57866E-07   -0.15158E-06  4240   0.265E-03
  31 F= -.85869121E+03 E0= -.85869121E+03  d E =-.137273E-03  mag=     0.0000
       N       E                     dE             d eps       ncg     rms          rms(c)
DAV:   1    -0.850728308830E+03   -0.15958E-03   -0.95989E-03  4720   0.192E-01    0.194E-02
DAV:   2    -0.850728324775E+03   -0.15945E-04   -0.20715E-04  4700   0.263E-02    0.139E-02
DAV:   3    -0.850728324608E+03    0.16670E-06   -0.25773E-06  4700   0.336E-03
  32 F= -.85869136E+03 E0= -.85869136E+03  d E =-.150159E-03  mag=    -0.0000
       N       E                     dE             d eps       ncg     rms          rms(c)
DAV:   1    -0.850728476882E+03   -0.15211E-03   -0.14899E-02  4740   0.239E-01    0.241E-02
DAV:   2    -0.850728500770E+03   -0.23887E-04   -0.31537E-04  4660   0.326E-02    0.173E-02
DAV:   3    -0.850728500775E+03   -0.54861E-08   -0.39797E-06  5140   0.413E-03
  33 F= -.85869151E+03 E0= -.85869151E+03  d E =-.145050E-03  mag=     0.0000
       N       E                     dE             d eps       ncg     rms          rms(c)
DAV:   1    -0.850728674823E+03   -0.17405E-03   -0.22910E-02  4720   0.295E-01    0.295E-02
DAV:   2    -0.850728710278E+03   -0.35455E-04   -0.47240E-04  4640   0.399E-02    0.209E-02
DAV:   3    -0.850728710502E+03   -0.22447E-06   -0.57061E-06  5380   0.499E-03
  34 F= -.85869168E+03 E0= -.85869168E+03  d E =-.171915E-03  mag=    -0.0000
       N       E                     dE             d eps       ncg     rms          rms(c)
DAV:   1    -0.850728940472E+03   -0.23019E-03   -0.36165E-02  4720   0.367E-01    0.365E-02
DAV:   2    -0.850728996633E+03   -0.56161E-04   -0.73869E-04  4640   0.497E-02    0.261E-02
DAV:   3    -0.850728996283E+03    0.35033E-06   -0.88104E-06  5540   0.617E-03
  35 F= -.85869192E+03 E0= -.85869192E+03  d E =-.240830E-03  mag=     0.0000
       N       E                     dE             d eps       ncg     rms          rms(c)
DAV:   1    -0.850729261209E+03   -0.26458E-03   -0.58925E-02  4720   0.466E-01    0.463E-02
DAV:   2    -0.850729353970E+03   -0.92761E-04   -0.12035E-03  4660   0.632E-02    0.337E-02
DAV:   3    -0.850729352296E+03    0.16744E-05   -0.14482E-05  5700   0.788E-03    0.262E-02
DAV:   4    -0.850729366131E+03   -0.13836E-04   -0.25893E-05  4440   0.103E-02    0.585E-03
DAV:   5    -0.850729367646E+03   -0.15147E-05   -0.59410E-06  5120   0.403E-03    0.399E-03
DAV:   6    -0.850729367552E+03    0.93722E-07   -0.89884E-07  3520   0.230E-03
  36 F= -.85869224E+03 E0= -.85869224E+03  d E =-.318685E-03  mag=     0.0000
       N       E                     dE             d eps       ncg     rms          rms(c)
DAV:   1    -0.850729571780E+03   -0.20413E-03   -0.95457E-02  4780   0.599E-01    0.553E-02
DAV:   2    -0.850729739388E+03   -0.16761E-03   -0.20611E-03  4640   0.834E-02    0.393E-02
DAV:   3    -0.850729733294E+03    0.60943E-05   -0.23483E-05  5660   0.102E-02    0.308E-02
DAV:   4    -0.850729746850E+03   -0.13557E-04   -0.44945E-05  4600   0.140E-02    0.730E-03
DAV:   5    -0.850729748942E+03   -0.20916E-05   -0.97423E-06  5380   0.535E-03    0.498E-03
DAV:   6    -0.850729748926E+03    0.15636E-07   -0.14817E-06  3760   0.330E-03
  37 F= -.85869256E+03 E0= -.85869256E+03  d E =-.321134E-03  mag=     0.0000
       N       E                     dE             d eps       ncg     rms          rms(c)
DAV:   1    -0.850729947616E+03   -0.19867E-03   -0.14472E-01  4780   0.751E-01    0.676E-02
DAV:   2    -0.850730205830E+03   -0.25821E-03   -0.31439E-03  4640   0.105E-01    0.469E-02
DAV:   3    -0.850730198475E+03    0.73546E-05   -0.35164E-05  5700   0.126E-02    0.366E-02
DAV:   4    -0.850730221133E+03   -0.22658E-04   -0.53852E-05  4880   0.166E-02    0.874E-03
DAV:   5    -0.850730224044E+03   -0.29110E-05   -0.12578E-05  5400   0.642E-03    0.558E-03
DAV:   6    -0.850730223940E+03    0.10423E-06   -0.23086E-06  3980   0.414E-03
  38 F= -.85869297E+03 E0= -.85869297E+03  d E =-.410349E-03  mag=     0.0000
       N       E                     dE             d eps       ncg     rms          rms(c)
DAV:   1    -0.850730328542E+03   -0.10450E-03   -0.23242E-01  4780   0.959E-01    0.852E-02
DAV:   2    -0.850730749629E+03   -0.42109E-03   -0.50921E-03  4700   0.134E-01    0.586E-02
DAV:   3    -0.850730737688E+03    0.11941E-04   -0.57409E-05  5760   0.161E-02    0.456E-02
DAV:   4    -0.850730773783E+03   -0.36095E-04   -0.77585E-05  5300   0.205E-02    0.112E-02
DAV:   5    -0.850730778112E+03   -0.43284E-05   -0.18698E-05  5320   0.796E-03    0.664E-03
DAV:   6    -0.850730777953E+03    0.15891E-06   -0.36746E-06  4320   0.508E-03
  39 F= -.85869345E+03 E0= -.85869345E+03  d E =-.485099E-03  mag=     0.0000
       N       E                     dE             d eps       ncg     rms          rms(c)
DAV:   1    -0.850730620939E+03    0.15717E-03   -0.39292E-01  4780   0.125E+00    0.110E-01
DAV:   2    -0.850731328427E+03   -0.70749E-03   -0.85696E-03  4740   0.174E-01    0.759E-02
DAV:   3    -0.850731308646E+03    0.19781E-04   -0.97958E-05  5760   0.211E-02    0.590E-02
DAV:   4    -0.850731366770E+03   -0.58124E-04   -0.13338E-04  5440   0.267E-02    0.147E-02
DAV:   5    -0.850731373812E+03   -0.70425E-05   -0.31254E-05  5340   0.103E-02    0.843E-03
DAV:   6    -0.850731373629E+03    0.18373E-06   -0.59623E-06  4400   0.642E-03
  40 F= -.85869397E+03 E0= -.85869397E+03  d E =-.520039E-03  mag=     0.0000
       N       E                     dE             d eps       ncg     rms          rms(c)
DAV:   1    -0.850730821631E+03    0.55218E-03   -0.66316E-01  4780   0.162E+00    0.143E-01
DAV:   2    -0.850732000655E+03   -0.11790E-02   -0.14304E-02  4760   0.226E-01    0.998E-02
DAV:   3    -0.850731959864E+03    0.40791E-04   -0.16874E-04  5820   0.278E-02    0.774E-02
DAV:   4    -0.850732046953E+03   -0.87089E-04   -0.25146E-04  5460   0.357E-02    0.192E-02
DAV:   5    -0.850732058724E+03   -0.11771E-04   -0.56731E-05  5340   0.138E-02    0.112E-02
DAV:   6    -0.850732058640E+03    0.83797E-07   -0.99980E-06  4520   0.826E-03
  41 F= -.85869457E+03 E0= -.85869457E+03  d E =-.596408E-03  mag=    -0.0000
       N       E                     dE             d eps       ncg     rms          rms(c)
DAV:   1    -0.850730839450E+03    0.12193E-02   -0.10814E+00  4780   0.207E+00    0.182E-01
DAV:   2    -0.850732753508E+03   -0.19141E-02   -0.23174E-02  4820   0.288E-01    0.128E-01
DAV:   3    -0.850732678914E+03    0.74594E-04   -0.28152E-04  5820   0.359E-02    0.993E-02
DAV:   4    -0.850732807202E+03   -0.12829E-03   -0.42200E-04  5540   0.462E-02    0.248E-02
DAV:   5    -0.850732826218E+03   -0.19016E-04   -0.95500E-05  5300   0.180E-02    0.142E-02
DAV:   6    -0.850732826399E+03   -0.18063E-06   -0.16396E-05  4600   0.104E-02    0.689E-03
DAV:   7    -0.850732827589E+03   -0.11896E-05   -0.41676E-06  4980   0.392E-03    0.447E-03
DAV:   8    -0.850732827483E+03    0.10531E-06   -0.11803E-06  3790   0.420E-03
  42 F= -.85869524E+03 E0= -.85869524E+03  d E =-.669019E-03  mag=    -0.0000
       N       E                     dE             d eps       ncg     rms          rms(c)
DAV:   1    -0.850731110857E+03    0.17167E-02   -0.14573E+00  4760   0.241E+00    0.211E-01
DAV:   2    -0.850733719288E+03   -0.26084E-02   -0.31282E-02  4880   0.335E-01    0.148E-01
DAV:   3    -0.850733619070E+03    0.10022E-03   -0.38603E-04  5800   0.417E-02    0.114E-01
DAV:   4    -0.850733769283E+03   -0.15021E-03   -0.51877E-04  5560   0.521E-02    0.293E-02
DAV:   5    -0.850733796230E+03   -0.26947E-04   -0.12321E-04  5320   0.204E-02    0.157E-02
DAV:   6    -0.850733796099E+03    0.13046E-06   -0.22072E-05  4680   0.118E-02    0.755E-03
DAV:   7    -0.850733797497E+03   -0.13979E-05   -0.51025E-06  5120   0.432E-03    0.489E-03
DAV:   8    -0.850733797347E+03    0.15050E-06   -0.12453E-06  3820   0.436E-03
  43 F= -.85869610E+03 E0= -.85869610E+03  d E =-.860710E-03  mag=     0.0000
       N       E                     dE             d eps       ncg     rms          rms(c)
DAV:   1    -0.850732024692E+03    0.17728E-02   -0.16659E+00  4760   0.256E+00    0.226E-01
DAV:   2    -0.850735005134E+03   -0.29804E-02   -0.35727E-02  4860   0.356E-01    0.159E-01
DAV:   3    -0.850734896632E+03    0.10850E-03   -0.42766E-04  5800   0.438E-02    0.123E-01
DAV:   4    -0.850735064436E+03   -0.16780E-03   -0.66510E-04  5520   0.571E-02    0.298E-02
DAV:   5    -0.850735092821E+03   -0.28384E-04   -0.14984E-04  5280   0.223E-02    0.175E-02
DAV:   6    -0.850735093174E+03   -0.35305E-06   -0.24386E-05  4640   0.125E-02    0.855E-03
DAV:   7    -0.850735095098E+03   -0.19241E-05   -0.63628E-06  5300   0.482E-03    0.531E-03
DAV:   8    -0.850735095010E+03    0.87784E-07   -0.18082E-06  4160   0.497E-03
  44 F= -.85869724E+03 E0= -.85869724E+03  d E =-.113881E-02  mag=    -0.0000
       N       E                     dE             d eps       ncg     rms          rms(c)
DAV:   1    -0.850735151333E+03   -0.56235E-04   -0.22701E-03  4780   0.934E-02    0.944E-03
DAV:   2    -0.850735155027E+03   -0.36940E-05   -0.50468E-05  5120   0.132E-02    0.715E-03
DAV:   3    -0.850735154778E+03    0.24871E-06   -0.83514E-07  3700   0.213E-03
  45 F= -.85869729E+03 E0= -.85869729E+03  d E =-.499050E-04  mag=    -0.0000
       N       E                     dE             d eps       ncg     rms          rms(c)
DAV:   1    -0.850735236175E+03   -0.81148E-04   -0.84485E-03  4720   0.179E-01    0.186E-02
DAV:   2    -0.850735248698E+03   -0.12523E-04   -0.17667E-04  5120   0.246E-02    0.136E-02
DAV:   3    -0.850735248365E+03    0.33300E-06   -0.29220E-06  4820   0.370E-03
  46 F= -.85869736E+03 E0= -.85869736E+03  d E =-.738895E-04  mag=    -0.0000
       N       E                     dE             d eps       ncg     rms          rms(c)
DAV:   1    -0.850735335367E+03   -0.86669E-04   -0.17406E-02  4720   0.255E-01    0.266E-02
DAV:   2    -0.850735359742E+03   -0.24375E-04   -0.35027E-04  4740   0.344E-02    0.193E-02
DAV:   3    -0.850735359755E+03   -0.12798E-07   -0.55033E-06  5420   0.502E-03
  47 F= -.85869744E+03 E0= -.85869744E+03  d E =-.814325E-04  mag=    -0.0000
       N       E                     dE             d eps       ncg     rms          rms(c)
DAV:   1    -0.850735469035E+03   -0.10929E-03   -0.28664E-02  4720   0.325E-01    0.340E-02
DAV:   2    -0.850735508595E+03   -0.39561E-04   -0.56833E-04  4640   0.435E-02    0.243E-02
DAV:   3    -0.850735508996E+03   -0.40034E-06   -0.84215E-06  5400   0.620E-03
  48 F= -.85869755E+03 E0= -.85869755E+03  d E =-.109490E-03  mag=     0.0000
       N       E                     dE             d eps       ncg     rms          rms(c)
DAV:   1    -0.850735645859E+03   -0.13726E-03   -0.41853E-02  4720   0.391E-01    0.410E-02
DAV:   2    -0.850735704829E+03   -0.58971E-04   -0.83467E-04  4640   0.526E-02    0.293E-02
DAV:   3    -0.850735705328E+03   -0.49877E-06   -0.12199E-05  5520   0.740E-03    0.222E-02
DAV:   4    -0.850735715864E+03   -0.10536E-04   -0.15866E-05  4420   0.892E-03    0.547E-03
DAV:   5    -0.850735716819E+03   -0.95506E-06   -0.52696E-06  4760   0.383E-03
  49 F= -.85869771E+03 E0= -.85869771E+03  d E =-.158390E-03  mag=    -0.0000
       N       E                     dE             d eps       ncg     rms          rms(c)
DAV:   1    -0.850735846156E+03   -0.13029E-03   -0.56705E-02  4800   0.455E-01    0.451E-02
DAV:   2    -0.850735938157E+03   -0.92000E-04   -0.12108E-03  4640   0.632E-02    0.314E-02
DAV:   3    -0.850735935995E+03    0.21618E-05   -0.16954E-05  5620   0.875E-03    0.240E-02
DAV:   4    -0.850735945418E+03   -0.94231E-05   -0.24469E-05  4540   0.109E-02    0.650E-03
DAV:   5    -0.850735946570E+03   -0.11519E-05   -0.69032E-06  5100   0.450E-03    0.399E-03
DAV:   6    -0.850735946624E+03   -0.53718E-07   -0.12391E-06  3580   0.237E-03
  50 F= -.85869788E+03 E0= -.85869788E+03  d E =-.171489E-03  mag=    -0.0000
       N       E                     dE             d eps       ncg     rms          rms(c)
DAV:   1    -0.850736094757E+03   -0.14819E-03   -0.84686E-02  4800   0.554E-01    0.550E-02
DAV:   2    -0.850736233056E+03   -0.13830E-03   -0.18038E-03  4640   0.768E-02    0.380E-02
DAV:   3    -0.850736229057E+03    0.39995E-05   -0.24908E-05  5640   0.106E-02    0.291E-02
DAV:   4    -0.850736242010E+03   -0.12953E-04   -0.36359E-05  4560   0.131E-02    0.781E-03
DAV:   5    -0.850736243614E+03   -0.16047E-05   -0.10098E-05  5260   0.541E-03    0.474E-03
DAV:   6    -0.850736243659E+03   -0.44209E-07   -0.18079E-06  3680   0.281E-03
  51 F= -.85869811E+03 E0= -.85869811E+03  d E =-.221984E-03  mag=    -0.0000
       N       E                     dE             d eps       ncg     rms          rms(c)
DAV:   1    -0.850736440553E+03   -0.19694E-03   -0.11801E-01  4800   0.649E-01    0.655E-02
DAV:   2    -0.850736633335E+03   -0.19278E-03   -0.25104E-03  4640   0.898E-02    0.452E-02
DAV:   3    -0.850736627620E+03    0.57152E-05   -0.34864E-05  5620   0.124E-02    0.346E-02
DAV:   4    -0.850736645808E+03   -0.18189E-04   -0.51862E-05  4920   0.155E-02    0.925E-03
DAV:   5    -0.850736647992E+03   -0.21832E-05   -0.13137E-05  5260   0.624E-03    0.570E-03
DAV:   6    -0.850736648108E+03   -0.11599E-06   -0.27779E-06  3820   0.338E-03
  52 F= -.85869841E+03 E0= -.85869841E+03  d E =-.308825E-03  mag=    -0.0000
       N       E                     dE             d eps       ncg     rms          rms(c)
DAV:   1    -0.850736884331E+03   -0.23634E-03   -0.15502E-01  4800   0.733E-01    0.762E-02
DAV:   2    -0.850737136387E+03   -0.25206E-03   -0.32834E-03  4640   0.101E-01    0.527E-02
DAV:   3    -0.850737128554E+03    0.78336E-05   -0.45762E-05  5620   0.141E-02    0.403E-02
DAV:   4    -0.850737152593E+03   -0.24039E-04   -0.73294E-05  5020   0.181E-02    0.105E-02
DAV:   5    -0.850737155235E+03   -0.26424E-05   -0.17252E-05  5280   0.718E-03    0.677E-03
DAV:   6    -0.850737155411E+03   -0.17551E-06   -0.42454E-06  4180   0.405E-03
  53 F= -.85869880E+03 E0= -.85869880E+03  d E =-.385966E-03  mag=     0.0000
       N       E                     dE             d eps       ncg     rms          rms(c)
DAV:   1    -0.850737433191E+03   -0.27796E-03   -0.19890E-01  4800   0.813E-01    0.874E-02
DAV:   2    -0.850737754413E+03   -0.32122E-03   -0.41989E-03  4660   0.111E-01    0.602E-02
DAV:   3    -0.850737746537E+03    0.78755E-05   -0.57438E-05  5580   0.155E-02    0.461E-02
DAV:   4    -0.850737777623E+03   -0.31085E-04   -0.98441E-05  5080   0.202E-02    0.116E-02
DAV:   5    -0.850737780777E+03   -0.31542E-05   -0.21668E-05  5300   0.800E-03    0.781E-03
DAV:   6    -0.850737780949E+03   -0.17238E-06   -0.58581E-06  4220   0.470E-03
  54 F= -.85869928E+03 E0= -.85869928E+03  d E =-.480177E-03  mag=     0.0000
       N       E                     dE             d eps       ncg     rms          rms(c)
DAV:   1    -0.850738101602E+03   -0.32083E-03   -0.25069E-01  4800   0.898E-01    0.997E-02
DAV:   2    -0.850738508024E+03   -0.40642E-03   -0.52893E-03  4660   0.122E-01    0.681E-02
DAV:   3    -0.850738498182E+03    0.98421E-05   -0.72946E-05  5640   0.171E-02    0.522E-02
DAV:   4    -0.850738536741E+03   -0.38559E-04   -0.12513E-04  5280   0.222E-02    0.128E-02
DAV:   5    -0.850738540694E+03   -0.39527E-05   -0.26510E-05  5300   0.878E-03    0.873E-03
DAV:   6    -0.850738540758E+03   -0.63919E-07   -0.71703E-06  4340   0.520E-03
  55 F= -.85869988E+03 E0= -.85869988E+03  d E =-.596757E-03  mag=     0.0000
       N       E                     dE             d eps       ncg     rms          rms(c)
DAV:   1    -0.850738861612E+03   -0.32092E-03   -0.33032E-01  4800   0.103E+00    0.114E-01
DAV:   2    -0.850739406815E+03   -0.54520E-03   -0.70095E-03  4700   0.141E-01    0.778E-02
DAV:   3    -0.850739395405E+03    0.11410E-04   -0.93099E-05  5660   0.192E-02    0.598E-02
DAV:   4    -0.850739447898E+03   -0.52493E-04   -0.16630E-04  5400   0.255E-02    0.140E-02
DAV:   5    -0.850739452134E+03   -0.42361E-05   -0.33641E-05  5320   0.991E-03    0.988E-03
DAV:   6    -0.850739451869E+03    0.26499E-06   -0.91889E-06  4400   0.590E-03
  56 F= -.85870059E+03 E0= -.85870059E+03  d E =-.715963E-03  mag=     0.0000
       N       E                     dE             d eps       ncg     rms          rms(c)
DAV:   1    -0.850739692629E+03   -0.24050E-03   -0.45366E-01  4800   0.123E+00    0.132E-01
DAV:   2    -0.850740453159E+03   -0.76053E-03   -0.96736E-03  4700   0.168E-01    0.914E-02
DAV:   3    -0.850740436947E+03    0.16212E-04   -0.12672E-04  5580   0.224E-02    0.707E-02
DAV:   4    -0.850740509854E+03   -0.72907E-04   -0.23898E-04  5450   0.305E-02    0.164E-02
DAV:   5    -0.850740515092E+03   -0.52376E-05   -0.45929E-05  5360   0.116E-02    0.120E-02
DAV:   6    -0.850740514461E+03    0.63071E-06   -0.13871E-05  4420   0.729E-03    0.510E-03
DAV:   7    -0.850740514657E+03   -0.19533E-06   -0.18253E-06  4140   0.249E-03
  57 F= -.85870141E+03 E0= -.85870141E+03  d E =-.820723E-03  mag=    -0.0000
       N       E                     dE             d eps       ncg     rms          rms(c)
DAV:   1    -0.850740612395E+03   -0.97934E-04   -0.65135E-01  4800   0.149E+00    0.156E-01
DAV:   2    -0.850741718646E+03   -0.11063E-02   -0.13945E-02  4720   0.204E-01    0.109E-01
DAV:   3    -0.850741686480E+03    0.32166E-04   -0.18199E-04  5620   0.271E-02    0.842E-02
DAV:   4    -0.850741785618E+03   -0.99138E-04   -0.33291E-04  5480   0.365E-02    0.197E-02
DAV:   5    -0.850741795195E+03   -0.95773E-05   -0.67157E-05  5340   0.139E-02    0.140E-02
DAV:   6    -0.850741794255E+03    0.94031E-06   -0.17293E-05  4360   0.834E-03    0.613E-03
DAV:   7    -0.850741794564E+03   -0.30885E-06   -0.26061E-06  4400   0.298E-03
  58 F= -.85870241E+03 E0= -.85870241E+03  d E =-.993585E-03  mag=     0.0000
       N       E                     dE             d eps       ncg     rms          rms(c)
DAV:   1    -0.850741547689E+03    0.24657E-03   -0.95022E-01  4800   0.181E+00    0.188E-01
DAV:   2    -0.850743194748E+03   -0.16471E-02   -0.20561E-02  4800   0.249E-01    0.130E-01
DAV:   3    -0.850743143587E+03    0.51161E-04   -0.26629E-04  5720   0.327E-02    0.100E-01
DAV:   4    -0.850743281063E+03   -0.13748E-03   -0.43493E-04  5500   0.429E-02    0.236E-02
DAV:   5    -0.850743297469E+03   -0.16406E-04   -0.96261E-05  5320   0.166E-02    0.159E-02
DAV:   6    -0.850743296164E+03    0.13051E-05   -0.20025E-05  4540   0.935E-03    0.734E-03
DAV:   7    -0.850743296733E+03   -0.56977E-06   -0.38397E-06  4760   0.363E-03
  59 F= -.85870358E+03 E0= -.85870358E+03  d E =-.117680E-02  mag=    -0.0000
       N       E                     dE             d eps       ncg     rms          rms(c)
DAV:   1    -0.850742368383E+03    0.92778E-03   -0.13748E+00  4800   0.218E+00    0.225E-01
DAV:   2    -0.850744776638E+03   -0.24083E-02   -0.29742E-02  4860   0.299E-01    0.157E-01
DAV:   3    -0.850744680695E+03    0.95943E-04   -0.39456E-04  5800   0.400E-02    0.122E-01
DAV:   4    -0.850744852260E+03   -0.17157E-03   -0.69702E-04  5480   0.529E-02    0.300E-02
DAV:   5    -0.850744877521E+03   -0.25261E-04   -0.14793E-04  5300   0.203E-02    0.209E-02
DAV:   6    -0.850744875862E+03    0.16588E-05   -0.37444E-05  4620   0.120E-02    0.903E-03
DAV:   7    -0.850744876773E+03   -0.91112E-06   -0.55895E-06  5280   0.421E-03
  60 F= -.85870478E+03 E0= -.85870478E+03  d E =-.119576E-02  mag=    -0.0000
       N       E                     dE             d eps       ncg     rms          rms(c)
DAV:   1    -0.850742443991E+03    0.24319E-02   -0.19141E+00  4740   0.262E+00    0.269E-01
DAV:   2    -0.850745871793E+03   -0.34278E-02   -0.42273E-02  4920   0.363E-01    0.189E-01
DAV:   3    -0.850745710230E+03    0.16156E-03   -0.63218E-04  5880   0.504E-02    0.146E-01
DAV:   4    -0.850745884688E+03   -0.17446E-03   -0.90138E-04  5300   0.638E-02    0.392E-02
DAV:   5    -0.850745926632E+03   -0.41944E-04   -0.22620E-04  5260   0.255E-02    0.241E-02
DAV:   6    -0.850745926712E+03   -0.80836E-07   -0.50318E-05  4840   0.138E-02    0.104E-02
DAV:   7    -0.850745927870E+03   -0.11573E-05   -0.69818E-06  5380   0.477E-03    0.725E-03
DAV:   8    -0.850745927847E+03    0.22876E-07   -0.22266E-06  3640   0.375E-03
  61 F= -.85870537E+03 E0= -.85870537E+03  d E =-.591959E-03  mag=     0.0000
       N       E                     dE             d eps       ncg     rms          rms(c)
DAV:   1    -0.850747029442E+03   -0.11016E-02   -0.60894E-02  4720   0.491E-01    0.557E-02
DAV:   2    -0.850747132513E+03   -0.10307E-03   -0.15166E-03  5680   0.715E-02    0.496E-02
DAV:   3    -0.850747104326E+03    0.28187E-04   -0.68327E-05  6100   0.162E-02    0.378E-02
DAV:   4    -0.850747079831E+03    0.24495E-04   -0.50261E-05  5020   0.149E-02    0.169E-02
DAV:   5    -0.850747078772E+03    0.10593E-05   -0.19385E-05  5050   0.803E-03    0.695E-03
DAV:   6    -0.850747078788E+03   -0.16182E-07   -0.21650E-06  3720   0.301E-03
  62 F= -.85870652E+03 E0= -.85870652E+03  d E =-.114315E-02  mag=     0.0000
       N       E                     dE             d eps       ncg     rms          rms(c)
DAV:   1    -0.850746331352E+03    0.74742E-03   -0.64461E-02  4720   0.511E-01    0.550E-02
DAV:   2    -0.850746447756E+03   -0.11640E-03   -0.15919E-03  5680   0.743E-02    0.479E-02
DAV:   3    -0.850746425335E+03    0.22421E-04   -0.60685E-05  6040   0.151E-02    0.373E-02
DAV:   4    -0.850746404787E+03    0.20548E-04   -0.52558E-05  4860   0.153E-02    0.159E-02
DAV:   5    -0.850746405056E+03   -0.26904E-06   -0.18037E-05  5090   0.767E-03    0.733E-03
DAV:   6    -0.850746405061E+03   -0.45184E-08   -0.23455E-06  3740   0.321E-03
  63 F= -.85870582E+03 E0= -.85870582E+03  d E =0.699926E-03  mag=     0.0000
       N       E                     dE             d eps       ncg     rms          rms(c)
DAV:   1    -0.850746788304E+03   -0.38325E-03   -0.28382E-03  4740   0.107E-01    0.123E-02
DAV:   2    -0.850746792776E+03   -0.44722E-05   -0.71926E-05  5720   0.157E-02    0.112E-02
DAV:   3    -0.850746791206E+03    0.15699E-05   -0.33207E-06  4340   0.368E-03    0.858E-03
DAV:   4    -0.850746789753E+03    0.14534E-05   -0.36342E-06  4280   0.386E-03    0.373E-03
DAV:   5    -0.850746789684E+03    0.69020E-07   -0.81460E-07  2880   0.172E-03
  64 F= -.85870620E+03 E0= -.85870620E+03  d E =-.381593E-03  mag=     0.0000
       N       E                     dE             d eps       ncg     rms          rms(c)
DAV:   1    -0.850747205303E+03   -0.41555E-03   -0.87454E-03  4720   0.188E-01    0.213E-02
DAV:   2    -0.850747220853E+03   -0.15550E-04   -0.22260E-04  5710   0.275E-02    0.189E-02
DAV:   3    -0.850747216889E+03    0.39643E-05   -0.10161E-05  6040   0.620E-03    0.145E-02
DAV:   4    -0.850747213472E+03    0.34175E-05   -0.71813E-06  4760   0.570E-03    0.655E-03
DAV:   5    -0.850747213344E+03    0.12791E-06   -0.25341E-06  3760   0.297E-03
  65 F= -.85870661E+03 E0= -.85870661E+03  d E =-.417318E-03  mag=     0.0000
       N       E                     dE             d eps       ncg     rms          rms(c)
DAV:   1    -0.850747304782E+03   -0.91311E-04   -0.12327E-02  4720   0.225E-01    0.252E-02
DAV:   2    -0.850747327280E+03   -0.22497E-04   -0.31539E-04  5680   0.330E-02    0.223E-02
DAV:   3    -0.850747322028E+03    0.52513E-05   -0.13820E-05  6100   0.723E-03    0.171E-02
DAV:   4    -0.850747317438E+03    0.45903E-05   -0.10180E-05  4800   0.681E-03    0.760E-03
DAV:   5    -0.850747317331E+03    0.10707E-06   -0.34859E-06  4100   0.346E-03
  66 F= -.85870671E+03 E0= -.85870671E+03  d E =-.932117E-04  mag=     0.0000
       N       E                     dE             d eps       ncg     rms          rms(c)
DAV:   1    -0.850747325182E+03   -0.77439E-05   -0.15600E-05  4580   0.783E-03    0.203E-03
DAV:   2    -0.850747325183E+03   -0.10186E-08   -0.47422E-07  2640   0.136E-03
  67 F= -.85870671E+03 E0= -.85870671E+03  d E =-.718684E-05  mag=    -0.0000
       N       E                     dE             d eps       ncg     rms          rms(c)
DAV:   1    -0.850747339715E+03   -0.14533E-04   -0.56178E-05  4680   0.148E-02    0.225E-03
DAV:   2    -0.850747339773E+03   -0.58186E-07   -0.12251E-06  3020   0.215E-03
  68 F= -.85870673E+03 E0= -.85870673E+03  d E =-.132847E-04  mag=     0.0000
       N       E                     dE             d eps       ncg     rms          rms(c)
DAV:   1    -0.850747359304E+03   -0.19589E-04   -0.12218E-04  4640   0.219E-02    0.337E-03
DAV:   2    -0.850747359428E+03   -0.12486E-06   -0.27338E-06  3930   0.319E-03
  69 F= -.85870675E+03 E0= -.85870675E+03  d E =-.177486E-04  mag=     0.0000
       N       E                     dE             d eps       ncg     rms          rms(c)
DAV:   1    -0.850747381861E+03   -0.22558E-04   -0.20444E-04  4670   0.285E-02    0.453E-03
DAV:   2    -0.850747382081E+03   -0.21935E-06   -0.46792E-06  4960   0.410E-03
  70 F= -.85870677E+03 E0= -.85870677E+03  d E =-.202053E-04  mag=    -0.0000
       N       E                     dE             d eps       ncg     rms          rms(c)
DAV:   1    -0.850747405699E+03   -0.23838E-04   -0.30093E-04  4700   0.346E-02    0.560E-03
DAV:   2    -0.850747406008E+03   -0.30859E-06   -0.65848E-06  5300   0.487E-03
  71 F= -.85870679E+03 E0= -.85870679E+03  d E =-.210605E-04  mag=     0.0000
       N       E                     dE             d eps       ncg     rms          rms(c)
DAV:   1    -0.850747429654E+03   -0.23955E-04   -0.41449E-04  4720   0.408E-02    0.647E-03
DAV:   2    -0.850747430092E+03   -0.43793E-06   -0.89107E-06  5380   0.570E-03
  72 F= -.85870681E+03 E0= -.85870681E+03  d E =-.209689E-04  mag=     0.0000
       N       E                     dE             d eps       ncg     rms          rms(c)
DAV:   1    -0.850747456023E+03   -0.26369E-04   -0.69984E-04  4720   0.532E-02    0.771E-03
DAV:   2    -0.850747456875E+03   -0.85147E-06   -0.14990E-05  5240   0.743E-03    0.629E-03
DAV:   3    -0.850747456771E+03    0.10358E-06   -0.35520E-07  2860   0.137E-03
  73 F= -.85870683E+03 E0= -.85870683E+03  d E =-.232474E-04  mag=     0.0000
       N       E                     dE             d eps       ncg     rms          rms(c)
DAV:   1    -0.850747486206E+03   -0.29331E-04   -0.12335E-03  4720   0.708E-02    0.668E-03
DAV:   2    -0.850747488335E+03   -0.21287E-05   -0.25907E-05  4740   0.971E-03    0.481E-03
DAV:   3    -0.850747488296E+03    0.38788E-07   -0.26672E-07  3020   0.119E-03
  74 F= -.85870686E+03 E0= -.85870686E+03  d E =-.280110E-04  mag=     0.0000
       N       E                     dE             d eps       ncg     rms          rms(c)
DAV:   1    -0.850747522319E+03   -0.33984E-04   -0.23865E-03  4720   0.984E-02    0.889E-03
DAV:   2    -0.850747526572E+03   -0.42529E-05   -0.50697E-05  4640   0.136E-02    0.626E-03
DAV:   3    -0.850747526452E+03    0.12019E-06   -0.49104E-07  3260   0.163E-03
  75 F= -.85870689E+03 E0= -.85870689E+03  d E =-.349882E-04  mag=    -0.0000
       N       E                     dE             d eps       ncg     rms          rms(c)
DAV:   1    -0.850747566934E+03   -0.40362E-04   -0.48377E-03  4720   0.140E-01    0.125E-02
DAV:   2    -0.850747575432E+03   -0.84979E-05   -0.10191E-04  4640   0.193E-02    0.880E-03
DAV:   3    -0.850747575241E+03    0.19120E-06   -0.10028E-06  3540   0.231E-03
  76 F= -.85870694E+03 E0= -.85870694E+03  d E =-.465077E-04  mag=     0.0000
       N       E                     dE             d eps       ncg     rms          rms(c)
DAV:   1    -0.850747622772E+03   -0.47340E-04   -0.92195E-03  4740   0.193E-01    0.173E-02
DAV:   2    -0.850747638644E+03   -0.15872E-04   -0.19304E-04  4640   0.265E-02    0.122E-02
DAV:   3    -0.850747638319E+03    0.32494E-06   -0.21308E-06  4380   0.321E-03
  77 F= -.85870700E+03 E0= -.85870700E+03  d E =-.617745E-04  mag=     0.0000
       N       E                     dE             d eps       ncg     rms          rms(c)
DAV:   1    -0.850747690357E+03   -0.51713E-04   -0.16715E-02  4720   0.259E-01    0.236E-02
DAV:   2    -0.850747718703E+03   -0.28346E-04   -0.34936E-04  4640   0.356E-02    0.168E-02
DAV:   3    -0.850747718147E+03    0.55623E-06   -0.43026E-06  5200   0.441E-03
  78 F= -.85870708E+03 E0= -.85870708E+03  d E =-.796156E-04  mag=     0.0000
       N       E                     dE             d eps       ncg     rms          rms(c)
DAV:   1    -0.850747757474E+03   -0.38771E-04   -0.28809E-02  4720   0.340E-01    0.313E-02
DAV:   2    -0.850747805403E+03   -0.47929E-04   -0.60003E-04  4640   0.466E-02    0.225E-02
DAV:   3    -0.850747804633E+03    0.77063E-06   -0.76258E-06  5540   0.586E-03
  79 F= -.85870717E+03 E0= -.85870717E+03  d E =-.877648E-04  mag=    -0.0000
       N       E                     dE             d eps       ncg     rms          rms(c)
DAV:   1    -0.850747830110E+03   -0.24706E-04   -0.47396E-02  4720   0.435E-01    0.403E-02
DAV:   2    -0.850747907679E+03   -0.77569E-04   -0.98253E-04  4640   0.597E-02    0.290E-02
DAV:   3    -0.850747906620E+03    0.10584E-05   -0.12472E-05  5600   0.750E-03    0.223E-02
DAV:   4    -0.850747915924E+03   -0.93041E-05   -0.14101E-05  4480   0.897E-03    0.554E-03
DAV:   5    -0.850747916941E+03   -0.10169E-05   -0.46294E-06  4800   0.372E-03    0.306E-03
DAV:   6    -0.850747916863E+03    0.78682E-07   -0.70786E-07  3260   0.201E-03
  80 F= -.85870728E+03 E0= -.85870728E+03  d E =-.114510E-03  mag=    -0.0000
       N       E                     dE             d eps       ncg     rms          rms(c)
DAV:   1    -0.850747919081E+03   -0.21397E-05   -0.76111E-02  4760   0.552E-01    0.475E-02
DAV:   2    -0.850748053891E+03   -0.13481E-03   -0.16445E-03  4640   0.773E-02    0.333E-02
DAV:   3    -0.850748049283E+03    0.46076E-05   -0.20218E-05  5660   0.963E-03    0.258E-02
DAV:   4    -0.850748058688E+03   -0.94047E-05   -0.26340E-05  4620   0.119E-02    0.692E-03
DAV:   5    -0.850748060059E+03   -0.13704E-05   -0.71310E-06  5260   0.479E-03    0.380E-03
DAV:   6    -0.850748060048E+03    0.10848E-07   -0.10689E-06  3360   0.271E-03
  81 F= -.85870743E+03 E0= -.85870743E+03  d E =-.146777E-03  mag=     0.0000
       N       E                     dE             d eps       ncg     rms          rms(c)
DAV:   1    -0.850748030120E+03    0.29938E-04   -0.11629E-01  4760   0.682E-01    0.586E-02
DAV:   2    -0.850748236548E+03   -0.20643E-03   -0.25207E-03  4660   0.955E-02    0.411E-02
DAV:   3    -0.850748229720E+03    0.68281E-05   -0.30327E-05  5680   0.118E-02    0.319E-02
DAV:   4    -0.850748244940E+03   -0.15220E-04   -0.41028E-05  4880   0.148E-02    0.840E-03
DAV:   5    -0.850748246968E+03   -0.20271E-05   -0.10584E-05  5260   0.592E-03    0.462E-03
DAV:   6    -0.850748247031E+03   -0.63206E-07   -0.16560E-06  3660   0.336E-03
  82 F= -.85870762E+03 E0= -.85870762E+03  d E =-.191594E-03  mag=     0.0000
       N       E                     dE             d eps       ncg     rms          rms(c)
DAV:   1    -0.850748123812E+03    0.12316E-03   -0.16837E-01  4760   0.820E-01    0.705E-02
DAV:   2    -0.850748424226E+03   -0.30041E-03   -0.36605E-03  4660   0.115E-01    0.495E-02
DAV:   3    -0.850748413861E+03    0.10365E-04   -0.43581E-05  5720   0.142E-02    0.384E-02
DAV:   4    -0.850748436592E+03   -0.22731E-04   -0.59192E-05  5080   0.179E-02    0.100E-02
DAV:   5    -0.850748439824E+03   -0.32324E-05   -0.15186E-05  5260   0.714E-03    0.550E-03
DAV:   6    -0.850748439891E+03   -0.66742E-07   -0.24382E-06  4060   0.405E-03
  83 F= -.85870782E+03 E0= -.85870782E+03  d E =-.195295E-03  mag=    -0.0000
       N       E                     dE             d eps       ncg     rms          rms(c)
DAV:   1    -0.850748258211E+03    0.18161E-03   -0.22432E-01  4780   0.946E-01    0.816E-02
DAV:   2    -0.850748657647E+03   -0.39944E-03   -0.48646E-03  4660   0.132E-01    0.574E-02
DAV:   3    -0.850748643222E+03    0.14424E-04   -0.57914E-05  5700   0.163E-02    0.445E-02
DAV:   4    -0.850748674119E+03   -0.30897E-04   -0.79624E-05  5340   0.207E-02    0.115E-02
DAV:   5    -0.850748678539E+03   -0.44198E-05   -0.19186E-05  5280   0.813E-03    0.632E-03
DAV:   6    -0.850748678680E+03   -0.14110E-06   -0.33294E-06  4340   0.469E-03
  84 F= -.85870806E+03 E0= -.85870806E+03  d E =-.239989E-03  mag=    -0.0000
       N       E                     dE             d eps       ncg     rms          rms(c)
DAV:   1    -0.850748462975E+03    0.21556E-03   -0.27655E-01  4780   0.105E+00    0.913E-02
DAV:   2    -0.850748957257E+03   -0.49428E-03   -0.60171E-03  4700   0.147E-01    0.641E-02
DAV:   3    -0.850748939839E+03    0.17418E-04   -0.72467E-05  5680   0.181E-02    0.498E-02
DAV:   4    -0.850748977651E+03   -0.37812E-04   -0.95547E-05  5380   0.227E-02    0.130E-02
DAV:   5    -0.850748983810E+03   -0.61591E-05   -0.23212E-05  5300   0.886E-03    0.726E-03
DAV:   6    -0.850748983765E+03    0.45402E-07   -0.43926E-06  4420   0.542E-03
  85 F= -.85870836E+03 E0= -.85870836E+03  d E =-.300967E-03  mag=    -0.0000
       N       E                     dE             d eps       ncg     rms          rms(c)
DAV:   1    -0.850748768378E+03    0.21543E-03   -0.30751E-01  4760   0.111E+00    0.970E-02
DAV:   2    -0.850749319376E+03   -0.55100E-03   -0.66958E-03  4720   0.155E-01    0.676E-02
DAV:   3    -0.850749301672E+03    0.17704E-04   -0.78834E-05  5700   0.189E-02    0.525E-02
DAV:   4    -0.850749345093E+03   -0.43421E-04   -0.10813E-04  5340   0.240E-02    0.133E-02
DAV:   5    -0.850749351355E+03   -0.62616E-05   -0.25608E-05  5380   0.936E-03    0.776E-03
DAV:   6    -0.850749351201E+03    0.15340E-06   -0.49235E-06  4360   0.588E-03
  86 F= -.85870871E+03 E0= -.85870871E+03  d E =-.346478E-03  mag=    -0.0000
       N       E                     dE             d eps       ncg     rms          rms(c)
DAV:   1    -0.850749366712E+03   -0.15358E-04   -0.13189E-04  4800   0.225E-02    0.360E-03
DAV:   2    -0.850749366919E+03   -0.20645E-06   -0.30546E-06  4180   0.346E-03
  87 F= -.85870872E+03 E0= -.85870872E+03  d E =-.126207E-04  mag=     0.0000
       N       E                     dE             d eps       ncg     rms          rms(c)
DAV:   1    -0.850749394781E+03   -0.28069E-04   -0.44944E-04  4720   0.415E-02    0.532E-03
DAV:   2    -0.850749395415E+03   -0.63371E-06   -0.10160E-05  5040   0.587E-03    0.422E-03
DAV:   3    -0.850749395363E+03    0.52591E-07   -0.18747E-07  2840   0.990E-04
  88 F= -.85870874E+03 E0= -.85870874E+03  d E =-.225888E-04  mag=    -0.0000
       N       E                     dE             d eps       ncg     rms          rms(c)
DAV:   1    -0.850749432471E+03   -0.37056E-04   -0.82921E-04  4720   0.560E-02    0.625E-03
DAV:   2    -0.850749433767E+03   -0.12954E-05   -0.17700E-05  5140   0.769E-03    0.466E-03
DAV:   3    -0.850749433732E+03    0.34612E-07   -0.25700E-07  2980   0.115E-03
  89 F= -.85870877E+03 E0= -.85870877E+03  d E =-.302873E-04  mag=    -0.0000
       N       E                     dE             d eps       ncg     rms          rms(c)
DAV:   1    -0.850749478205E+03   -0.44438E-04   -0.11938E-03  4720   0.671E-02    0.736E-03
DAV:   2    -0.850749480095E+03   -0.18900E-05   -0.25235E-05  4960   0.917E-03    0.539E-03
DAV:   3    -0.850749480076E+03    0.19325E-07   -0.32592E-07  3180   0.128E-03
  90 F= -.85870881E+03 E0= -.85870881E+03  d E =-.366020E-04  mag=     0.0000
       N       E                     dE             d eps       ncg     rms          rms(c)
DAV:   1    -0.850749531974E+03   -0.51879E-04   -0.16139E-03  4720   0.785E-02    0.829E-03
DAV:   2    -0.850749534565E+03   -0.25906E-05   -0.33477E-05  4740   0.106E-02    0.597E-03
DAV:   3    -0.850749534537E+03    0.27605E-07   -0.39361E-07  3360   0.142E-03
  91 F= -.85870885E+03 E0= -.85870885E+03  d E =-.440775E-04  mag=     0.0000
       N       E                     dE             d eps       ncg     rms          rms(c)
DAV:   1    -0.850749591929E+03   -0.57365E-04   -0.23479E-03  4720   0.960E-02    0.960E-03
DAV:   2    -0.850749595738E+03   -0.38082E-05   -0.48345E-05  4660   0.130E-02    0.688E-03
DAV:   3    -0.850749595691E+03    0.46915E-07   -0.54341E-07  3440   0.168E-03
  92 F= -.85870890E+03 E0= -.85870890E+03  d E =-.510672E-04  mag=    -0.0000
       N       E                     dE             d eps       ncg     rms          rms(c)
DAV:   1    -0.850749662977E+03   -0.67239E-04   -0.47993E-03  4720   0.139E-01    0.132E-02
DAV:   2    -0.850749670863E+03   -0.78865E-05   -0.99198E-05  4640   0.189E-02    0.945E-03
DAV:   3    -0.850749670732E+03    0.13104E-06   -0.11651E-06  3960   0.242E-03
  93 F= -.85870897E+03 E0= -.85870897E+03  d E =-.647107E-04  mag=     0.0000
       N       E                     dE             d eps       ncg     rms          rms(c)
DAV:   1    -0.850749744838E+03   -0.73974E-04   -0.10609E-02  4740   0.206E-01    0.193E-02
DAV:   2    -0.850749762017E+03   -0.17179E-04   -0.21891E-04  4640   0.283E-02    0.139E-02
DAV:   3    -0.850749761795E+03    0.22213E-06   -0.28575E-06  4780   0.362E-03
  94 F= -.85870905E+03 E0= -.85870905E+03  d E =-.810017E-04  mag=    -0.0000
       N       E                     dE             d eps       ncg     rms          rms(c)
DAV:   1    -0.850749831601E+03   -0.69585E-04   -0.23140E-02  4720   0.304E-01    0.284E-02
DAV:   2    -0.850749868432E+03   -0.36830E-04   -0.47603E-04  4640   0.417E-02    0.206E-02
DAV:   3    -0.850749867846E+03    0.58616E-06   -0.64777E-06  5500   0.539E-03
  95 F= -.85870915E+03 E0= -.85870915E+03  d E =-.965435E-04  mag=    -0.0000
       N       E                     dE             d eps       ncg     rms          rms(c)
DAV:   1    -0.850749914309E+03   -0.45877E-04   -0.47338E-02  4740   0.435E-01    0.407E-02
DAV:   2    -0.850749988881E+03   -0.74573E-04   -0.96884E-04  4640   0.594E-02    0.296E-02
DAV:   3    -0.850749987600E+03    0.12814E-05   -0.13208E-05  5600   0.773E-03    0.227E-02
DAV:   4    -0.850749997048E+03   -0.94482E-05   -0.14992E-05  4460   0.914E-03    0.579E-03
DAV:   5    -0.850749998310E+03   -0.12619E-05   -0.47407E-06  4880   0.375E-03    0.323E-03
DAV:   6    -0.850749998204E+03    0.10611E-06   -0.77288E-07  3300   0.213E-03
  96 F= -.85870927E+03 E0= -.85870927E+03  d E =-.121349E-03  mag=     0.0000
       N       E                     dE             d eps       ncg     rms          rms(c)
DAV:   1    -0.850749978032E+03    0.20278E-04   -0.92158E-02  4780   0.607E-01    0.528E-02
DAV:   2    -0.850750135766E+03   -0.15773E-03   -0.19596E-03  4660   0.846E-02    0.377E-02
DAV:   3    -0.850750129716E+03    0.60499E-05   -0.25756E-05  5700   0.108E-02    0.290E-02
DAV:   4    -0.850750140953E+03   -0.11237E-04   -0.34030E-05  4860   0.134E-02    0.780E-03
DAV:   5    -0.850750142903E+03   -0.19505E-05   -0.87538E-06  5260   0.532E-03    0.429E-03
DAV:   6    -0.850750142954E+03   -0.50575E-07   -0.13916E-06  3480   0.303E-03
  97 F= -.85870940E+03 E0= -.85870940E+03  d E =-.135242E-03  mag=    -0.0000
       N       E                     dE             d eps       ncg     rms          rms(c)
DAV:   1    -0.850750047870E+03    0.95034E-04   -0.15952E-01  4780   0.798E-01    0.693E-02
DAV:   2    -0.850750321561E+03   -0.27369E-03   -0.33956E-03  4680   0.111E-01    0.494E-02
DAV:   3    -0.850750310996E+03    0.10566E-04   -0.44161E-05  5740   0.142E-02    0.380E-02
DAV:   4    -0.850750331158E+03   -0.20162E-04   -0.59449E-05  5320   0.176E-02    0.101E-02
DAV:   5    -0.850750334241E+03   -0.30831E-05   -0.14462E-05  5220   0.697E-03    0.544E-03
DAV:   6    -0.850750334387E+03   -0.14588E-06   -0.24177E-06  4020   0.392E-03
  98 F= -.85870958E+03 E0= -.85870958E+03  d E =-.180063E-03  mag=     0.0000
       N       E                     dE             d eps       ncg     rms          rms(c)
DAV:   1    -0.850750130761E+03    0.20348E-03   -0.25552E-01  4780   0.101E+00    0.875E-02
DAV:   2    -0.850750573288E+03   -0.44253E-03   -0.54646E-03  4680   0.141E-01    0.621E-02
DAV:   3    -0.850750556857E+03    0.16432E-04   -0.69600E-05  5740   0.178E-02    0.478E-02
DAV:   4    -0.850750590199E+03   -0.33342E-04   -0.93188E-05  5460   0.221E-02    0.126E-02
DAV:   5    -0.850750595021E+03   -0.48220E-05   -0.22251E-05  5260   0.868E-03    0.673E-03
DAV:   6    -0.850750595210E+03   -0.18933E-06   -0.38247E-06  4340   0.493E-03
  99 F= -.85870983E+03 E0= -.85870983E+03  d E =-.245094E-03  mag=     0.0000
       N       E                     dE             d eps       ncg     rms          rms(c)
DAV:   1    -0.850750254962E+03    0.34006E-03   -0.36154E-01  4780   0.120E+00    0.104E-01
DAV:   2    -0.850750883826E+03   -0.62886E-03   -0.77410E-03  4700   0.168E-01    0.737E-02
DAV:   3    -0.850750862182E+03    0.21644E-04   -0.98269E-05  5740   0.211E-02    0.569E-02
DAV:   4    -0.850750908110E+03   -0.45928E-04   -0.13029E-04  5480   0.261E-02    0.149E-02
DAV:   5    -0.850750914880E+03   -0.67693E-05   -0.30759E-05  5340   0.102E-02    0.805E-03
DAV:   6    -0.850750915152E+03   -0.27219E-06   -0.55650E-06  4360   0.600E-03
 100 F= -.85871013E+03 E0= -.85871013E+03  d E =-.300237E-03  mag=     0.0000
       N       E                     dE             d eps       ncg     rms          rms(c)
DAV:   1    -0.850750527849E+03    0.38703E-03   -0.44188E-01  4780   0.133E+00    0.116E-01
DAV:   2    -0.850751302503E+03   -0.77465E-03   -0.94847E-03  4720   0.185E-01    0.814E-02
DAV:   3    -0.850751277309E+03    0.25194E-04   -0.11743E-04  5780   0.231E-02    0.629E-02
DAV:   4    -0.850751334932E+03   -0.57623E-04   -0.16307E-04  5480   0.291E-02    0.160E-02
DAV:   5    -0.850751342599E+03   -0.76666E-05   -0.37460E-05  5340   0.114E-02    0.901E-03
DAV:   6    -0.850751342837E+03   -0.23816E-06   -0.69911E-06  4420   0.681E-03
 101 F= -.85871053E+03 E0= -.85871053E+03  d E =-.398075E-03  mag=    -0.0000
       N       E                     dE             d eps       ncg     rms          rms(c)
DAV:   1    -0.850751362399E+03   -0.19800E-04   -0.24179E-04  4760   0.305E-02    0.453E-03
DAV:   2    -0.850751362816E+03   -0.41668E-06   -0.59189E-06  5220   0.466E-03
 102 F= -.85871054E+03 E0= -.85871054E+03  d E =-.169274E-04  mag=    -0.0000
       N       E                     dE             d eps       ncg     rms          rms(c)
DAV:   1    -0.850751397034E+03   -0.34635E-04   -0.86200E-04  4720   0.573E-02    0.720E-03
DAV:   2    -0.850751398379E+03   -0.13454E-05   -0.19873E-05  5280   0.822E-03    0.548E-03
DAV:   3    -0.850751398328E+03    0.50954E-07   -0.32448E-07  3020   0.135E-03
 103 F= -.85871057E+03 E0= -.85871057E+03  d E =-.297150E-04  mag=     0.0000
       N       E                     dE             d eps       ncg     rms          rms(c)
DAV:   1    -0.850751442665E+03   -0.44286E-04   -0.16779E-03  4720   0.795E-02    0.861E-03
DAV:   2    -0.850751445438E+03   -0.27729E-05   -0.36441E-05  5180   0.110E-02    0.611E-03
DAV:   3    -0.850751445422E+03    0.16531E-07   -0.44138E-07  3460   0.153E-03
 104 F= -.85871061E+03 E0= -.85871061E+03  d E =-.391957E-04  mag=     0.0000
       N       E                     dE             d eps       ncg     rms          rms(c)
DAV:   1    -0.850751499695E+03   -0.54257E-04   -0.25631E-03  4720   0.977E-02    0.103E-02
DAV:   2    -0.850751503944E+03   -0.42490E-05   -0.55121E-05  4900   0.134E-02    0.724E-03
DAV:   3    -0.850751503924E+03    0.20089E-07   -0.62562E-07  3800   0.176E-03
 105 F= -.85871066E+03 E0= -.85871066E+03  d E =-.489691E-04  mag=    -0.0000
       N       E                     dE             d eps       ncg     rms          rms(c)
DAV:   1    -0.850751567671E+03   -0.63728E-04   -0.34373E-03  4720   0.113E-01    0.118E-02
DAV:   2    -0.850751573344E+03   -0.56723E-05   -0.73220E-05  4760   0.155E-02    0.818E-03
DAV:   3    -0.850751573348E+03   -0.39145E-08   -0.77707E-07  3800   0.194E-03
 106 F= -.85871072E+03 E0= -.85871072E+03  d E =-.588576E-04  mag=     0.0000
       N       E                     dE             d eps       ncg     rms          rms(c)
DAV:   1    -0.850751643979E+03   -0.70636E-04   -0.44309E-03  4720   0.129E-01    0.131E-02
DAV:   2    -0.850751651360E+03   -0.73806E-05   -0.93983E-05  4680   0.177E-02    0.905E-03
DAV:   3    -0.850751651336E+03    0.23909E-07   -0.97424E-07  3960   0.217E-03
 107 F= -.85871079E+03 E0= -.85871079E+03  d E =-.669725E-04  mag=    -0.0000
       N       E                     dE             d eps       ncg     rms          rms(c)
DAV:   1    -0.850751734307E+03   -0.82947E-04   -0.75042E-03  4720   0.170E-01    0.164E-02
DAV:   2    -0.850751746983E+03   -0.12676E-04   -0.15859E-04  4680   0.233E-02    0.114E-02
DAV:   3    -0.850751746837E+03    0.14602E-06   -0.16939E-06  4280   0.285E-03
 108 F= -.85871087E+03 E0= -.85871087E+03  d E =-.828587E-04  mag=     0.0000
       N       E                     dE             d eps       ncg     rms          rms(c)
DAV:   1    -0.850751834763E+03   -0.87779E-04   -0.14940E-02  4760   0.243E-01    0.225E-02
DAV:   2    -0.850751859923E+03   -0.25161E-04   -0.31276E-04  4640   0.332E-02    0.158E-02
DAV:   3    -0.850751859479E+03    0.44452E-06   -0.35769E-06  5000   0.402E-03
 109 F= -.85871097E+03 E0= -.85871097E+03  d E =-.998183E-04  mag=     0.0000
       N       E                     dE             d eps       ncg     rms          rms(c)
DAV:   1    -0.850751934407E+03   -0.74484E-04   -0.33336E-02  4740   0.365E-01    0.332E-02
DAV:   2    -0.850751989997E+03   -0.55590E-04   -0.69368E-04  4640   0.499E-02    0.236E-02
DAV:   3    -0.850751988704E+03    0.12929E-05   -0.83475E-06  5560   0.611E-03    0.183E-02
DAV:   4    -0.850751995506E+03   -0.68016E-05   -0.10696E-05  4440   0.759E-03    0.446E-03
DAV:   5    -0.850751996177E+03   -0.67110E-06   -0.28999E-06  4520   0.306E-03
 110 F= -.85871109E+03 E0= -.85871109E+03  d E =-.124437E-03  mag=     0.0000
       N       E                     dE             d eps       ncg     rms          rms(c)
DAV:   1    -0.850752001799E+03   -0.62931E-05   -0.78447E-02  4760   0.559E-01    0.487E-02
DAV:   2    -0.850752140321E+03   -0.13852E-03   -0.16916E-03  4640   0.782E-02    0.343E-02
DAV:   3    -0.850752135224E+03    0.50971E-05   -0.20683E-05  5680   0.973E-03    0.266E-02
DAV:   4    -0.850752146292E+03   -0.11067E-04   -0.27551E-05  4540   0.122E-02    0.693E-03
DAV:   5    -0.850752147877E+03   -0.15856E-05   -0.73495E-06  5300   0.491E-03    0.400E-03
DAV:   6    -0.850752147930E+03   -0.52918E-07   -0.11591E-06  3340   0.287E-03
 111 F= -.85871123E+03 E0= -.85871123E+03  d E =-.141423E-03  mag=    -0.0000
       N       E                     dE             d eps       ncg     rms          rms(c)
DAV:   1    -0.850752033631E+03    0.11425E-03   -0.15619E-01  4780   0.788E-01    0.682E-02
DAV:   2    -0.850752305915E+03   -0.27228E-03   -0.33486E-03  4640   0.110E-01    0.483E-02
DAV:   3    -0.850752295254E+03    0.10661E-04   -0.41842E-05  5700   0.138E-02    0.373E-02
DAV:   4    -0.850752316408E+03   -0.21154E-04   -0.56098E-05  5140   0.172E-02    0.982E-03
DAV:   5    -0.850752319465E+03   -0.30567E-05   -0.13900E-05  5240   0.682E-03    0.530E-03
DAV:   6    -0.850752319637E+03   -0.17264E-06   -0.22496E-06  3980   0.379E-03
 112 F= -.85871140E+03 E0= -.85871140E+03  d E =-.162793E-03  mag=    -0.0000
       N       E                     dE             d eps       ncg     rms          rms(c)
DAV:   1    -0.850752033642E+03    0.28582E-03   -0.27447E-01  4780   0.104E+00    0.905E-02
DAV:   2    -0.850752508914E+03   -0.47527E-03   -0.58815E-03  4680   0.145E-01    0.640E-02
DAV:   3    -0.850752491389E+03    0.17525E-04   -0.73602E-05  5760   0.184E-02    0.494E-02
DAV:   4    -0.850752530333E+03   -0.38944E-04   -0.99322E-05  5520   0.228E-02    0.130E-02
DAV:   5    -0.850752535404E+03   -0.50715E-05   -0.23411E-05  5240   0.890E-03    0.691E-03
DAV:   6    -0.850752535673E+03   -0.26912E-06   -0.40066E-06  4400   0.496E-03
 113 F= -.85871160E+03 E0= -.85871160E+03  d E =-.203641E-03  mag=    -0.0000
       N       E                     dE             d eps       ncg     rms          rms(c)
DAV:   1    -0.850752044853E+03    0.49055E-03   -0.41451E-01  4760   0.128E+00    0.112E-01
DAV:   2    -0.850752759488E+03   -0.71464E-03   -0.88266E-03  4720   0.178E-01    0.791E-02
DAV:   3    -0.850752732661E+03    0.26827E-04   -0.11315E-04  5740   0.227E-02    0.609E-02
DAV:   4    -0.850752786746E+03   -0.54085E-04   -0.15263E-04  5560   0.281E-02    0.161E-02
DAV:   5    -0.850752794050E+03   -0.73035E-05   -0.35609E-05  5300   0.109E-02    0.861E-03
DAV:   6    -0.850752794351E+03   -0.30093E-06   -0.63725E-06  4440   0.622E-03
 114 F= -.85871183E+03 E0= -.85871183E+03  d E =-.228815E-03  mag=     0.0000
       N       E                     dE             d eps       ncg     rms          rms(c)
DAV:   1    -0.850752210126E+03    0.58392E-03   -0.55080E-01  4780   0.148E+00    0.129E-01
DAV:   2    -0.850753170338E+03   -0.96021E-03   -0.11763E-02  4740   0.205E-01    0.903E-02
DAV:   3    -0.850753138874E+03    0.31463E-04   -0.14648E-04  5780   0.258E-02    0.696E-02
DAV:   4    -0.850753208094E+03   -0.69220E-04   -0.20239E-04  5560   0.324E-02    0.179E-02
DAV:   5    -0.850753217242E+03   -0.91481E-05   -0.46236E-05  5280   0.126E-02    0.985E-03
DAV:   6    -0.850753217404E+03   -0.16139E-06   -0.85402E-06  4440   0.731E-03
 115 F= -.85871219E+03 E0= -.85871219E+03  d E =-.358706E-03  mag=    -0.0000
       N       E                     dE             d eps       ncg     rms          rms(c)
DAV:   1    -0.850752776857E+03    0.44039E-03   -0.57595E-01  4780   0.151E+00    0.132E-01
DAV:   2    -0.850753799123E+03   -0.10223E-02   -0.12461E-02  4780   0.211E-01    0.915E-02
DAV:   3    -0.850753770443E+03    0.28680E-04   -0.14624E-04  5800   0.258E-02    0.708E-02
DAV:   4    -0.850753851261E+03   -0.80818E-04   -0.20935E-04  5510   0.332E-02    0.174E-02
DAV:   5    -0.850753860621E+03   -0.93606E-05   -0.48513E-05  5300   0.130E-02    0.997E-03
DAV:   6    -0.850753860729E+03   -0.10792E-06   -0.83152E-06  4600   0.727E-03
 116 F= -.85871271E+03 E0= -.85871271E+03  d E =-.525376E-03  mag=     0.0000
       N       E                     dE             d eps       ncg     rms          rms(c)
DAV:   1    -0.850753893727E+03   -0.33105E-04   -0.10182E-03  4760   0.628E-02    0.705E-03
DAV:   2    -0.850753895277E+03   -0.15501E-05   -0.22252E-05  5000   0.892E-03    0.534E-03
DAV:   3    -0.850753895120E+03    0.15716E-06   -0.44959E-07  3180   0.162E-03
 117 F= -.85871274E+03 E0= -.85871274E+03  d E =-.255932E-04  mag=     0.0000
       N       E                     dE             d eps       ncg     rms          rms(c)
DAV:   1    -0.850753948518E+03   -0.53241E-04   -0.36915E-03  4740   0.119E-01    0.123E-02
DAV:   2    -0.850753953918E+03   -0.54004E-05   -0.76829E-05  4720   0.164E-02    0.920E-03
DAV:   3    -0.850753953609E+03    0.30966E-06   -0.11485E-06  4140   0.247E-03
 118 F= -.85871278E+03 E0= -.85871278E+03  d E =-.412280E-04  mag=    -0.0000
       N       E                     dE             d eps       ncg     rms          rms(c)
DAV:   1    -0.850754022320E+03   -0.68402E-04   -0.75436E-03  4720   0.169E-01    0.174E-02
DAV:   2    -0.850754033256E+03   -0.10936E-04   -0.15251E-04  4640   0.230E-02    0.127E-02
DAV:   3    -0.850754032910E+03    0.34617E-06   -0.22037E-06  4360   0.332E-03
 119 F= -.85871283E+03 E0= -.85871283E+03  d E =-.540604E-04  mag=    -0.0000
       N       E                     dE             d eps       ncg     rms          rms(c)
DAV:   1    -0.850754116229E+03   -0.82973E-04   -0.12064E-02  4720   0.213E-01    0.221E-02
DAV:   2    -0.850754133603E+03   -0.17374E-04   -0.24228E-04  4640   0.289E-02    0.159E-02
DAV:   3    -0.850754133218E+03    0.38536E-06   -0.35674E-06  4840   0.408E-03
 120 F= -.85871290E+03 E0= -.85871290E+03  d E =-.674838E-04  mag=    -0.0000
       N       E                     dE             d eps       ncg     rms          rms(c)
DAV:   1    -0.850754235214E+03   -0.10161E-03   -0.16464E-02  4720   0.248E-01    0.261E-02
DAV:   2    -0.850754258675E+03   -0.23462E-04   -0.32916E-04  4640   0.336E-02    0.188E-02
DAV:   3    -0.850754258175E+03    0.50009E-06   -0.50288E-06  5140   0.478E-03
 121 F= -.85871299E+03 E0= -.85871299E+03  d E =-.854718E-04  mag=     0.0000
       N       E                     dE             d eps       ncg     rms          rms(c)
DAV:   1    -0.850754378499E+03   -0.11982E-03   -0.20348E-02  4720   0.275E-01    0.295E-02
DAV:   2    -0.850754407367E+03   -0.28868E-04   -0.40732E-04  4640   0.372E-02    0.213E-02
DAV:   3    -0.850754406830E+03    0.53633E-06   -0.63313E-06  5380   0.531E-03
 122 F= -.85871309E+03 E0= -.85871309E+03  d E =-.103049E-03  mag=     0.0000
       N       E                     dE             d eps       ncg     rms          rms(c)
DAV:   1    -0.850754551739E+03   -0.14437E-03   -0.28647E-02  4720   0.325E-01    0.352E-02
DAV:   2    -0.850754593654E+03   -0.41915E-04   -0.58215E-04  4640   0.441E-02    0.250E-02
DAV:   3    -0.850754592819E+03    0.83516E-06   -0.87788E-06  5600   0.622E-03
 123 F= -.85871322E+03 E0= -.85871322E+03  d E =-.129687E-03  mag=    -0.0000
       N       E                     dE             d eps       ncg     rms          rms(c)
DAV:   1    -0.850754763987E+03   -0.17033E-03   -0.37166E-02  4720   0.369E-01    0.404E-02
DAV:   2    -0.850754819192E+03   -0.55205E-04   -0.76373E-04  4660   0.503E-02    0.285E-02
DAV:   3    -0.850754818585E+03    0.60722E-06   -0.11109E-05  5500   0.695E-03    0.216E-02
DAV:   4    -0.850754829345E+03   -0.10761E-04   -0.13231E-05  4420   0.834E-03    0.544E-03
DAV:   5    -0.850754830538E+03   -0.11928E-05   -0.41567E-06  4580   0.347E-03    0.343E-03
DAV:   6    -0.850754830483E+03    0.55719E-07   -0.88872E-07  3620   0.206E-03
 124 F= -.85871339E+03 E0= -.85871339E+03  d E =-.169456E-03  mag=    -0.0000
       N       E                     dE             d eps       ncg     rms          rms(c)
DAV:   1    -0.850755011998E+03   -0.18146E-03   -0.47327E-02  4800   0.417E-01    0.419E-02
DAV:   2    -0.850755094433E+03   -0.82435E-04   -0.10427E-03  4640   0.586E-02    0.285E-02
DAV:   3    -0.850755091458E+03    0.29747E-05   -0.13824E-05  5640   0.772E-03    0.221E-02
DAV:   4    -0.850755100045E+03   -0.85872E-05   -0.19711E-05  4440   0.981E-03    0.597E-03
DAV:   5    -0.850755101216E+03   -0.11710E-05   -0.49331E-06  4840   0.383E-03    0.410E-03
DAV:   6    -0.850755101168E+03    0.47847E-07   -0.14209E-06  3520   0.272E-03
 125 F= -.85871358E+03 E0= -.85871358E+03  d E =-.191040E-03  mag=    -0.0000
       N       E                     dE             d eps       ncg     rms          rms(c)
DAV:   1    -0.850755288061E+03   -0.18684E-03   -0.63430E-02  4800   0.488E-01    0.481E-02
DAV:   2    -0.850755402621E+03   -0.11456E-03   -0.14207E-03  4640   0.688E-02    0.321E-02
DAV:   3    -0.850755399893E+03    0.27287E-05   -0.17364E-05  5840   0.862E-03    0.249E-02
DAV:   4    -0.850755411401E+03   -0.11508E-04   -0.23928E-05  4480   0.109E-02    0.646E-03
DAV:   5    -0.850755412816E+03   -0.14155E-05   -0.58097E-06  5080   0.425E-03    0.446E-03
DAV:   6    -0.850755412686E+03    0.13019E-06   -0.16538E-06  3680   0.306E-03
 126 F= -.85871381E+03 E0= -.85871381E+03  d E =-.225887E-03  mag=    -0.0000
       N       E                     dE             d eps       ncg     rms          rms(c)
DAV:   1    -0.850755583598E+03   -0.17078E-03   -0.96122E-02  4780   0.608E-01    0.576E-02
DAV:   2    -0.850755759831E+03   -0.17623E-03   -0.21623E-03  4640   0.854E-02    0.381E-02
DAV:   3    -0.850755756591E+03    0.32402E-05   -0.24739E-05  5720   0.103E-02    0.297E-02
DAV:   4    -0.850755774271E+03   -0.17679E-04   -0.31494E-05  4620   0.129E-02    0.756E-03
DAV:   5    -0.850755776418E+03   -0.21470E-05   -0.79521E-06  5300   0.504E-03    0.503E-03
DAV:   6    -0.850755776164E+03    0.25325E-06   -0.20343E-06  3900   0.364E-03
 127 F= -.85871408E+03 E0= -.85871408E+03  d E =-.273815E-03  mag=     0.0000
       N       E                     dE             d eps       ncg     rms          rms(c)
DAV:   1    -0.850755879673E+03   -0.10325E-03   -0.16082E-01  4760   0.792E-01    0.719E-02
DAV:   2    -0.850756177181E+03   -0.29751E-03   -0.36189E-03  4640   0.111E-01    0.477E-02
DAV:   3    -0.850756171599E+03    0.55820E-05   -0.38934E-05  5700   0.131E-02    0.373E-02
DAV:   4    -0.850756201184E+03   -0.29586E-04   -0.51283E-05  4800   0.168E-02    0.927E-03
DAV:   5    -0.850756204746E+03   -0.35612E-05   -0.12615E-05  5320   0.646E-03    0.614E-03
DAV:   6    -0.850756204364E+03    0.38192E-06   -0.30986E-06  4300   0.456E-03
 128 F= -.85871442E+03 E0= -.85871442E+03  d E =-.334667E-03  mag=     0.0000
       N       E                     dE             d eps       ncg     rms          rms(c)
DAV:   1    -0.850756164521E+03    0.40224E-04   -0.27361E-01  4760   0.104E+00    0.920E-02
DAV:   2    -0.850756676089E+03   -0.51157E-03   -0.61439E-03  4700   0.146E-01    0.612E-02
DAV:   3    -0.850756665074E+03    0.11015E-04   -0.64555E-05  5760   0.169E-02    0.479E-02
DAV:   4    -0.850756710850E+03   -0.45776E-04   -0.87693E-05  5360   0.219E-02    0.118E-02
DAV:   5    -0.850756716708E+03   -0.58576E-05   -0.20557E-05  5350   0.836E-03    0.766E-03
DAV:   6    -0.850756716399E+03    0.30865E-06   -0.49318E-06  4510   0.575E-03
 129 F= -.85871483E+03 E0= -.85871483E+03  d E =-.411864E-03  mag=    -0.0000
       N       E                     dE             d eps       ncg     rms          rms(c)
DAV:   1    -0.850756426444E+03    0.29026E-03   -0.44412E-01  4780   0.132E+00    0.117E-01
DAV:   2    -0.850757267139E+03   -0.84069E-03   -0.99988E-03  4860   0.186E-01    0.781E-02
DAV:   3    -0.850757248508E+03    0.18631E-04   -0.10554E-04  5820   0.217E-02    0.611E-02
DAV:   4    -0.850757315720E+03   -0.67212E-04   -0.13663E-04  5380   0.274E-02    0.151E-02
DAV:   5    -0.850757325812E+03   -0.10091E-04   -0.33004E-05  5360   0.105E-02    0.934E-03
DAV:   6    -0.850757325713E+03    0.98080E-07   -0.73524E-06  4560   0.707E-03
 130 F= -.85871532E+03 E0= -.85871532E+03  d E =-.495512E-03  mag=    -0.0000
       N       E                     dE             d eps       ncg     rms          rms(c)
DAV:   1    -0.850756720156E+03    0.60566E-03   -0.67239E-01  4780   0.163E+00    0.144E-01
DAV:   2    -0.850758007109E+03   -0.12870E-02   -0.15175E-02  4900   0.229E-01    0.951E-02
DAV:   3    -0.850757977145E+03    0.29964E-04   -0.15799E-04  5780   0.266E-02    0.744E-02
DAV:   4    -0.850758071649E+03   -0.94504E-04   -0.19895E-04  5420   0.335E-02    0.186E-02
DAV:   5    -0.850758089646E+03   -0.17997E-04   -0.49965E-05  5300   0.129E-02    0.114E-02
DAV:   6    -0.850758089326E+03    0.32037E-06   -0.10929E-05  4640   0.880E-03    0.535E-03
DAV:   7    -0.850758090218E+03   -0.89258E-06   -0.28277E-06  4380   0.324E-03
 131 F= -.85871594E+03 E0= -.85871594E+03  d E =-.612536E-03  mag=    -0.0000
       N       E                     dE             d eps       ncg     rms          rms(c)
DAV:   1    -0.850757045050E+03    0.10443E-02   -0.91871E-01  4780   0.191E+00    0.169E-01
DAV:   2    -0.850758802111E+03   -0.17571E-02   -0.20749E-02  4940   0.269E-01    0.112E-01
DAV:   3    -0.850758757384E+03    0.44727E-04   -0.22470E-04  5740   0.315E-02    0.878E-02
DAV:   4    -0.850758874221E+03   -0.11684E-03   -0.27957E-04  5420   0.392E-02    0.229E-02
DAV:   5    -0.850758901149E+03   -0.26928E-04   -0.72481E-05  5320   0.154E-02    0.140E-02
DAV:   6    -0.850758900702E+03    0.44703E-06   -0.15254E-05  4760   0.103E-02    0.655E-03
[...]
DAV:   1    -0.850774257969E+03   -0.74801E-04   -0.15290E-03  4680   0.780E-02    0.967E-03
DAV:   2    -0.850774260369E+03   -0.24002E-05   -0.37611E-05  5760   0.114E-02    0.855E-03
DAV:   3    -0.850774259599E+03    0.77020E-06   -0.13436E-06  3520   0.250E-03
 220 F= -.85872848E+03 E0= -.85872848E+03  d E =-.765328E-04  mag=    -0.0000
       N       E                     dE             d eps       ncg     rms          rms(c)
DAV:   1    -0.850774291166E+03   -0.30797E-04   -0.24415E-03  4720   0.993E-02    0.123E-02
DAV:   2    -0.850774294989E+03   -0.38230E-05   -0.57367E-05  5680   0.142E-02    0.107E-02
DAV:   3    -0.850774293987E+03    0.10022E-05   -0.21407E-06  4160   0.308E-03    0.818E-03
DAV:   4    -0.850774293373E+03    0.61469E-06   -0.32068E-06  4360   0.368E-03
 221 F= -.85872851E+03 E0= -.85872851E+03  d E =-.327002E-04  mag=    -0.0000
       N       E                     dE             d eps       ncg     rms          rms(c)
DAV:   1    -0.850774281240E+03    0.12748E-04   -0.24558E-03  4720   0.101E-01    0.107E-02
DAV:   2    -0.850774285752E+03   -0.45120E-05   -0.59554E-05  5620   0.147E-02    0.901E-03
DAV:   3    -0.850774285144E+03    0.60762E-06   -0.15222E-06  3800   0.268E-03
 222 F= -.85872850E+03 E0= -.85872850E+03  d E =0.113837E-04  mag=    -0.0000
       N       E                     dE             d eps       ncg     rms          rms(c)
DAV:   1    -0.850774290574E+03   -0.48223E-05   -0.14991E-05  4680   0.789E-03    0.274E-03
DAV:   2    -0.850774290621E+03   -0.46755E-07   -0.95412E-07  2780   0.184E-03
 223 F= -.85872850E+03 E0= -.85872850E+03  d E =-.506033E-05  mag=    -0.0000
       N       E                     dE             d eps       ncg     rms          rms(c)
DAV:   1    -0.850774301200E+03   -0.10626E-04   -0.37495E-05  4760   0.125E-02    0.192E-03
DAV:   2    -0.850774301260E+03   -0.59532E-07   -0.91848E-07  2900   0.189E-03
 224 F= -.85872851E+03 E0= -.85872851E+03  d E =-.983336E-05  mag=     0.0000
       N       E                     dE             d eps       ncg     rms          rms(c)
DAV:   1    -0.850774314899E+03   -0.13699E-04   -0.81596E-05  4700   0.185E-02    0.278E-03
DAV:   2    -0.850774315002E+03   -0.10245E-06   -0.20278E-06  3820   0.277E-03
 225 F= -.85872853E+03 E0= -.85872853E+03  d E =-.125932E-04  mag=    -0.0000
       N       E                     dE             d eps       ncg     rms          rms(c)
DAV:   1    -0.850774329453E+03   -0.14553E-04   -0.13726E-04  4720   0.239E-02    0.391E-03
DAV:   2    -0.850774329572E+03   -0.11894E-06   -0.31956E-06  4600   0.349E-03
 226 F= -.85872854E+03 E0= -.85872854E+03  d E =-.131437E-04  mag=    -0.0000
       N       E                     dE             d eps       ncg     rms          rms(c)
DAV:   1    -0.850774342427E+03   -0.12974E-04   -0.20020E-04  4760   0.289E-02    0.477E-03
DAV:   2    -0.850774342617E+03   -0.19000E-06   -0.46052E-06  5380   0.413E-03
 227 F= -.85872855E+03 E0= -.85872855E+03  d E =-.114659E-04  mag=     0.0000
       N       E                     dE             d eps       ncg     rms          rms(c)
DAV:   1    -0.850774353163E+03   -0.10736E-04   -0.27312E-04  4720   0.336E-02    0.553E-03
DAV:   2    -0.850774353419E+03   -0.25600E-06   -0.60192E-06  5500   0.474E-03
 228 F= -.85872856E+03 E0= -.85872856E+03  d E =-.919909E-05  mag=     0.0000
       N       E                     dE             d eps       ncg     rms          rms(c)
DAV:   1    -0.850774361803E+03   -0.86398E-05   -0.44978E-04  4720   0.429E-02    0.654E-03
DAV:   2    -0.850774362275E+03   -0.47272E-06   -0.95737E-06  5420   0.599E-03
 229 F= -.85872857E+03 E0= -.85872857E+03  d E =-.717176E-05  mag=    -0.0000
       N       E                     dE             d eps       ncg     rms          rms(c)
DAV:   1    -0.850774369073E+03   -0.72700E-05   -0.75371E-04  4720   0.550E-02    0.797E-03
DAV:   2    -0.850774369896E+03   -0.82301E-06   -0.15442E-05  5200   0.760E-03    0.657E-03
DAV:   3    -0.850774369777E+03    0.11893E-06   -0.46006E-07  3000   0.157E-03
 230 F= -.85872857E+03 E0= -.85872857E+03  d E =-.594627E-05  mag=    -0.0000
       N       E                     dE             d eps       ncg     rms          rms(c)
DAV:   1    -0.850774377347E+03   -0.74509E-05   -0.12289E-03  4720   0.697E-02    0.676E-03
DAV:   2    -0.850774379244E+03   -0.18977E-05   -0.24090E-05  4720   0.938E-03    0.515E-03
DAV:   3    -0.850774379191E+03    0.53165E-07   -0.32112E-07  3140   0.130E-03
 231 F= -.85872858E+03 E0= -.85872858E+03  d E =-.815628E-05  mag=    -0.0000
       N       E                     dE             d eps       ncg     rms          rms(c)
DAV:   1    -0.850774392159E+03   -0.12915E-04   -0.20299E-03  4720   0.894E-02    0.842E-03
DAV:   2    -0.850774395325E+03   -0.31659E-05   -0.39837E-05  4680   0.120E-02    0.631E-03
DAV:   3    -0.850774395191E+03    0.13420E-06   -0.51715E-07  3340   0.165E-03
 232 F= -.85872860E+03 E0= -.85872860E+03  d E =-.151362E-04  mag=    -0.0000
       N       E                     dE             d eps       ncg     rms          rms(c)
DAV:   1    -0.850774415131E+03   -0.19806E-04   -0.33254E-03  4720   0.114E-01    0.107E-02
DAV:   2    -0.850774420302E+03   -0.51711E-05   -0.65268E-05  4640   0.154E-02    0.806E-03
DAV:   3    -0.850774420099E+03    0.20299E-06   -0.85651E-07  3660   0.211E-03
 233 F= -.85872862E+03 E0= -.85872862E+03  d E =-.244830E-04  mag=     0.0000
       N       E                     dE             d eps       ncg     rms          rms(c)
DAV:   1    -0.850774445359E+03   -0.25057E-04   -0.53615E-03  4720   0.145E-01    0.136E-02
DAV:   2    -0.850774453682E+03   -0.83225E-05   -0.10559E-04  4660   0.196E-02    0.103E-02
DAV:   3    -0.850774453355E+03    0.32649E-06   -0.14957E-06  4000   0.272E-03
 234 F= -.85872865E+03 E0= -.85872865E+03  d E =-.330918E-04  mag=     0.0000
       N       E                     dE             d eps       ncg     rms          rms(c)
DAV:   1    -0.850774477854E+03   -0.24172E-04   -0.84262E-03  4720   0.182E-01    0.172E-02
DAV:   2    -0.850774490962E+03   -0.13108E-04   -0.16644E-04  4660   0.246E-02    0.130E-02
DAV:   3    -0.850774490467E+03    0.49533E-06   -0.25618E-06  4720   0.343E-03
 235 F= -.85872869E+03 E0= -.85872869E+03  d E =-.367435E-04  mag=    -0.0000
       N       E                     dE             d eps       ncg     rms          rms(c)
DAV:   1    -0.850774515010E+03   -0.24048E-04   -0.12749E-02  4720   0.224E-01    0.212E-02
DAV:   2    -0.850774534705E+03   -0.19695E-04   -0.25106E-04  4640   0.302E-02    0.160E-02
DAV:   3    -0.850774533992E+03    0.71361E-06   -0.38960E-06  5280   0.418E-03
 236 F= -.85872873E+03 E0= -.85872873E+03  d E =-.417498E-04  mag=    -0.0000
       N       E                     dE             d eps       ncg     rms          rms(c)
DAV:   1    -0.850774563613E+03   -0.28908E-04   -0.18385E-02  4720   0.268E-01    0.255E-02
DAV:   2    -0.850774591902E+03   -0.28288E-04   -0.36074E-04  4640   0.361E-02    0.191E-02
DAV:   3    -0.850774591012E+03    0.88949E-06   -0.54750E-06  5400   0.494E-03
 237 F= -.85872878E+03 E0= -.85872878E+03  d E =-.527299E-04  mag=    -0.0000
       N       E                     dE             d eps       ncg     rms          rms(c)
DAV:   1    -0.850774637315E+03   -0.45414E-04   -0.25717E-02  4720   0.318E-01    0.302E-02
DAV:   2    -0.850774676920E+03   -0.39604E-04   -0.50602E-04  4640   0.427E-02    0.225E-02
DAV:   3    -0.850774675724E+03    0.11958E-05   -0.78026E-06  5680   0.584E-03    0.171E-02
DAV:   4    -0.850774679718E+03   -0.39943E-05   -0.79066E-06  4460   0.668E-03    0.449E-03
DAV:   5    -0.850774680309E+03   -0.59083E-06   -0.27293E-06  4040   0.279E-03
 238 F= -.85872887E+03 E0= -.85872887E+03  d E =-.802618E-04  mag=     0.0000
       N       E                     dE             d eps       ncg     rms          rms(c)
DAV:   1    -0.850774718528E+03   -0.38809E-04   -0.36188E-02  4760   0.377E-01    0.334E-02
DAV:   2    -0.850774780138E+03   -0.61610E-04   -0.75504E-04  4640   0.522E-02    0.242E-02
DAV:   3    -0.850774777296E+03    0.28413E-05   -0.11152E-05  5680   0.698E-03    0.185E-02
DAV:   4    -0.850774780443E+03   -0.31469E-05   -0.12623E-05  4440   0.829E-03    0.522E-03
DAV:   5    -0.850774781201E+03   -0.75795E-06   -0.37072E-06  4560   0.333E-03
 239 F= -.85872895E+03 E0= -.85872895E+03  d E =-.860389E-04  mag=    -0.0000
       N       E                     dE             d eps       ncg     rms          rms(c)
DAV:   1    -0.850774815704E+03   -0.35261E-04   -0.46812E-02  4760   0.428E-01    0.380E-02
DAV:   2    -0.850774895184E+03   -0.79480E-04   -0.97394E-04  4640   0.592E-02    0.273E-02
DAV:   3    -0.850774891771E+03    0.34130E-05   -0.13792E-05  5700   0.781E-03    0.209E-02
DAV:   4    -0.850774896335E+03   -0.45640E-05   -0.16655E-05  4620   0.951E-03    0.559E-03
DAV:   5    -0.850774897225E+03   -0.88968E-06   -0.46025E-06  4820   0.382E-03
 240 F= -.85872905E+03 E0= -.85872905E+03  d E =-.950096E-04  mag=    -0.0000
       N       E                     dE             d eps       ncg     rms          rms(c)
DAV:   1    -0.850774934486E+03   -0.38151E-04   -0.57963E-02  4760   0.476E-01    0.423E-02
DAV:   2    -0.850775033827E+03   -0.99341E-04   -0.12175E-03  4640   0.660E-02    0.301E-02
DAV:   3    -0.850775030070E+03    0.37574E-05   -0.16718E-05  5680   0.862E-03    0.231E-02
DAV:   4    -0.850775036220E+03   -0.61507E-05   -0.21089E-05  4660   0.107E-02    0.609E-03
DAV:   5    -0.850775037259E+03   -0.10383E-05   -0.56846E-06  5060   0.431E-03    0.354E-03
DAV:   6    -0.850775037220E+03    0.39210E-07   -0.98955E-07  3300   0.271E-03
 241 F= -.85872916E+03 E0= -.85872916E+03  d E =-.113656E-03  mag=    -0.0000
       N       E                     dE             d eps       ncg     rms          rms(c)
DAV:   1    -0.850775057255E+03   -0.19996E-04   -0.67040E-02  4760   0.512E-01    0.453E-02
DAV:   2    -0.850775173245E+03   -0.11599E-03   -0.14188E-03  4640   0.709E-02    0.316E-02
DAV:   3    -0.850775169246E+03    0.39990E-05   -0.18873E-05  5760   0.915E-03    0.243E-02
DAV:   4    -0.850775176282E+03   -0.70364E-05   -0.24234E-05  4740   0.113E-02    0.639E-03
DAV:   5    -0.850775177517E+03   -0.12352E-05   -0.62360E-06  5140   0.450E-03    0.378E-03
DAV:   6    -0.850775177457E+03    0.60725E-07   -0.11223E-06  3440   0.283E-03
 242 F= -.85872927E+03 E0= -.85872927E+03  d E =-.107646E-03  mag=    -0.0000
       N       E                     dE             d eps       ncg     rms          rms(c)
DAV:   1    -0.850775208344E+03   -0.30826E-04   -0.71599E-02  4760   0.529E-01    0.474E-02
DAV:   2    -0.850775333164E+03   -0.12482E-03   -0.15324E-03  4640   0.734E-02    0.326E-02
DAV:   3    -0.850775329441E+03    0.37226E-05   -0.19733E-05  5740   0.931E-03    0.250E-02
DAV:   4    -0.850775338435E+03   -0.89943E-05   -0.25974E-05  4760   0.117E-02    0.636E-03
DAV:   5    -0.850775339691E+03   -0.12553E-05   -0.64473E-06  5220   0.457E-03    0.396E-03
DAV:   6    -0.850775339633E+03    0.57793E-07   -0.13055E-06  3620   0.293E-03
 243 F= -.85872939E+03 E0= -.85872939E+03  d E =-.119376E-03  mag=    -0.0000
       N       E                     dE             d eps       ncg     rms          rms(c)
DAV:   1    -0.850775383166E+03   -0.43475E-04   -0.78739E-02  4760   0.550E-01    0.509E-02
DAV:   2    -0.850775521176E+03   -0.13801E-03   -0.17045E-03  4640   0.765E-02    0.346E-02
DAV:   3    -0.850775517295E+03    0.38815E-05   -0.21838E-05  5640   0.978E-03    0.266E-02
DAV:   4    -0.850775528690E+03   -0.11395E-04   -0.29494E-05  4620   0.123E-02    0.676E-03
DAV:   5    -0.850775530210E+03   -0.15201E-05   -0.72100E-06  5340   0.473E-03    0.443E-03
DAV:   6    -0.850775530083E+03    0.12670E-06   -0.16698E-06  3780   0.312E-03
 244 F= -.85872952E+03 E0= -.85872952E+03  d E =-.134142E-03  mag=     0.0000
       N       E                     dE             d eps       ncg     rms          rms(c)
DAV:   1    -0.850775595406E+03   -0.65196E-04   -0.90829E-02  4780   0.582E-01    0.566E-02
DAV:   2    -0.850775753638E+03   -0.15823E-03   -0.19840E-03  4640   0.809E-02    0.382E-02
DAV:   3    -0.850775750216E+03    0.34222E-05   -0.25566E-05  5640   0.105E-02    0.294E-02
DAV:   4    -0.850775764485E+03   -0.14270E-04   -0.36725E-05  4580   0.134E-02    0.745E-03
DAV:   5    -0.850775766386E+03   -0.19008E-05   -0.86812E-06  5420   0.513E-03    0.519E-03
DAV:   6    -0.850775766166E+03    0.22002E-06   -0.23271E-06  3920   0.351E-03
 245 F= -.85872968E+03 E0= -.85872968E+03  d E =-.162656E-03  mag=    -0.0000
       N       E                     dE             d eps       ncg     rms          rms(c)
DAV:   1    -0.850775841027E+03   -0.74641E-04   -0.11515E-01  4780   0.642E-01    0.657E-02
DAV:   2    -0.850776038585E+03   -0.19756E-03   -0.25186E-03  4640   0.888E-02    0.438E-02
DAV:   3    -0.850776035589E+03    0.29965E-05   -0.32740E-05  5600   0.118E-02    0.337E-02
DAV:   4    -0.850776055669E+03   -0.20080E-04   -0.49226E-05  4640   0.150E-02    0.865E-03
DAV:   5    -0.850776058043E+03   -0.23736E-05   -0.11186E-05  5380   0.578E-03    0.618E-03
DAV:   6    -0.850776057757E+03    0.28609E-06   -0.33678E-06  3940   0.403E-03
 246 F= -.85872988E+03 E0= -.85872988E+03  d E =-.200581E-03  mag=    -0.0000
       N       E                     dE             d eps       ncg     rms          rms(c)
DAV:   1    -0.850776107088E+03   -0.49045E-04   -0.15662E-01  4780   0.738E-01    0.785E-02
DAV:   2    -0.850776374531E+03   -0.26744E-03   -0.34398E-03  4640   0.102E-01    0.516E-02
DAV:   3    -0.850776371650E+03    0.28814E-05   -0.44968E-05  5580   0.136E-02    0.396E-02
DAV:   4    -0.850776400114E+03   -0.28465E-04   -0.65840E-05  4720   0.172E-02    0.102E-02
DAV:   5    -0.850776403423E+03   -0.33087E-05   -0.14955E-05  5420   0.661E-03    0.720E-03
DAV:   6    -0.850776403034E+03    0.38849E-06   -0.49065E-06  4340   0.482E-03
 247 F= -.85873011E+03 E0= -.85873011E+03  d E =-.222642E-03  mag=     0.0000
       N       E                     dE             d eps       ncg     rms          rms(c)
DAV:   1    -0.850776398338E+03    0.50853E-05   -0.21877E-01  4780   0.865E-01    0.934E-02
DAV:   2    -0.850776771679E+03   -0.37334E-03   -0.48327E-03  4680   0.120E-01    0.621E-02
DAV:   3    -0.850776767335E+03    0.43444E-05   -0.64498E-05  5720   0.162E-02    0.477E-02
DAV:   4    -0.850776807903E+03   -0.40568E-04   -0.95276E-05  5020   0.207E-02    0.124E-02
DAV:   5    -0.850776813332E+03   -0.54290E-05   -0.21963E-05  5440   0.793E-03    0.880E-03
DAV:   6    -0.850776812712E+03    0.61915E-06   -0.72262E-06  4540   0.574E-03
 248 F= -.85873036E+03 E0= -.85873036E+03  d E =-.250524E-03  mag=     0.0000
       N       E                     dE             d eps       ncg     rms          rms(c)
DAV:   1    -0.850776716483E+03    0.96849E-04   -0.28157E-01  4760   0.969E-01    0.108E-01
DAV:   2    -0.850777190765E+03   -0.47428E-03   -0.61708E-03  4720   0.134E-01    0.722E-02
DAV:   3    -0.850777181827E+03    0.89373E-05   -0.86996E-05  5600   0.186E-02    0.553E-02
DAV:   4    -0.850777234590E+03   -0.52763E-04   -0.13050E-04  5120   0.235E-02    0.150E-02
DAV:   5    -0.850777241191E+03   -0.66010E-05   -0.27965E-05  5460   0.889E-03    0.105E-02
DAV:   6    -0.850777240533E+03    0.65815E-06   -0.11805E-05  4460   0.711E-03    0.424E-03
DAV:   7    -0.850777240701E+03   -0.16837E-06   -0.15284E-06  3980   0.229E-03
 249 F= -.85873060E+03 E0= -.85873060E+03  d E =-.244305E-03  mag=    -0.0000
       N       E                     dE             d eps       ncg     rms          rms(c)
DAV:   1    -0.850777021948E+03    0.21859E-03   -0.36333E-01  4720   0.106E+00    0.128E-01
DAV:   2    -0.850777617906E+03   -0.59596E-03   -0.78995E-03  4840   0.146E-01    0.866E-02
DAV:   3    -0.850777595704E+03    0.22202E-04   -0.13259E-04  5740   0.223E-02    0.657E-02
DAV:   4    -0.850777646924E+03   -0.51220E-04   -0.18337E-04  5100   0.275E-02    0.188E-02
DAV:   5    -0.850777656729E+03   -0.98053E-05   -0.42725E-05  5300   0.108E-02    0.121E-02
DAV:   6    -0.850777656224E+03    0.50460E-06   -0.14480E-05  4640   0.770E-03    0.501E-03
DAV:   7    -0.850777656397E+03   -0.17233E-06   -0.18480E-06  4080   0.255E-03
 250 F= -.85873076E+03 E0= -.85873076E+03  d E =-.161000E-03  mag=    -0.0000
       N       E                     dE             d eps       ncg     rms          rms(c)
DAV:   1    -0.850777842756E+03   -0.18653E-03   -0.86971E-03  4720   0.190E-01    0.218E-02
DAV:   2    -0.850777857797E+03   -0.15041E-04   -0.22157E-04  5620   0.276E-02    0.192E-02
DAV:   3    -0.850777853294E+03    0.45031E-05   -0.10994E-05  6020   0.619E-03    0.142E-02
DAV:   4    -0.850777850159E+03    0.31342E-05   -0.76423E-06  4700   0.582E-03    0.650E-03
DAV:   5    -0.850777850025E+03    0.13419E-06   -0.22204E-06  3620   0.279E-03
 251 F= -.85873095E+03 E0= -.85873095E+03  d E =-.188163E-03  mag=    -0.0000
       N       E                     dE             d eps       ncg     rms          rms(c)
DAV:   1    -0.850777757274E+03    0.92886E-04   -0.10872E-02  4680   0.213E-01    0.234E-02
DAV:   2    -0.850777777301E+03   -0.20027E-04   -0.27130E-04  5680   0.310E-02    0.198E-02
DAV:   3    -0.850777773412E+03    0.38891E-05   -0.10922E-05  6160   0.627E-03    0.150E-02
DAV:   4    -0.850777770891E+03    0.25202E-05   -0.86616E-06  4740   0.622E-03    0.667E-03
DAV:   5    -0.850777771007E+03   -0.11542E-06   -0.23578E-06  3680   0.290E-03
 252 F= -.85873086E+03 E0= -.85873086E+03  d E =0.949126E-04  mag=     0.0000
       N       E                     dE             d eps       ncg     rms          rms(c)
DAV:   1    -0.850777829676E+03   -0.58785E-04   -0.39938E-04  4700   0.405E-02    0.502E-03
DAV:   2    -0.850777830263E+03   -0.58670E-06   -0.10429E-05  5640   0.593E-03    0.450E-03
DAV:   3    -0.850777829961E+03    0.30189E-06   -0.50852E-07  2540   0.149E-03
 253 F= -.85873091E+03 E0= -.85873091E+03  d E =-.564299E-04  mag=     0.0000
       N       E                     dE             d eps       ncg     rms          rms(c)
DAV:   1    -0.850777897867E+03   -0.67604E-04   -0.12378E-03  4720   0.715E-02    0.904E-03
DAV:   2    -0.850777899820E+03   -0.19532E-05   -0.29619E-05  5720   0.101E-02    0.790E-03
DAV:   3    -0.850777899043E+03    0.77768E-06   -0.13218E-06  3300   0.241E-03
 254 F= -.85873098E+03 E0= -.85873098E+03  d E =-.641258E-04  mag=    -0.0000
       N       E                     dE             d eps       ncg     rms          rms(c)
DAV:   1    -0.850777924703E+03   -0.24883E-04   -0.18310E-03  4720   0.870E-02    0.111E-02
DAV:   2    -0.850777927656E+03   -0.29532E-05   -0.42067E-05  5700   0.120E-02    0.950E-03
DAV:   3    -0.850777926714E+03    0.94196E-06   -0.19060E-06  3660   0.282E-03
 255 F= -.85873100E+03 E0= -.85873100E+03  d E =-.200192E-04  mag=     0.0000
       N       E                     dE             d eps       ncg     rms          rms(c)
DAV:   1    -0.850777927824E+03   -0.16804E-06   -0.56608E-06  4600   0.489E-03    0.273E-03
DAV:   2    -0.850777927798E+03    0.26143E-07   -0.54183E-07  2560   0.142E-03
 256 F= -.85873100E+03 E0= -.85873100E+03  d E =-.669357E-06  mag=    -0.0000
       N       E                     dE             d eps       ncg     rms          rms(c)
DAV:   1    -0.850777930745E+03   -0.29210E-05   -0.72818E-06  4440   0.537E-03    0.147E-03
DAV:   2    -0.850777930764E+03   -0.18648E-07   -0.19622E-07  2500   0.873E-04
 257 F= -.85873100E+03 E0= -.85873100E+03  d E =-.217355E-05  mag=     0.0000
       N       E                     dE             d eps       ncg     rms          rms(c)
DAV:   1    -0.850777934915E+03   -0.41695E-05   -0.15466E-05  4580   0.795E-03    0.157E-03
DAV:   2    -0.850777934939E+03   -0.24418E-07   -0.36811E-07  2580   0.120E-03
 258 F= -.85873100E+03 E0= -.85873100E+03  d E =-.305774E-05  mag=    -0.0000
