unknown system                          
           1
    17.271038    0.000000    0.000000
    -8.635519   14.957158    0.000000
     0.000000    0.000000   15.000000
   C    F    H    O 
    88     8     2     1
Direct configuration=     1
   0.99790597  0.99859044  0.49499617
   0.99735902  0.14119352  0.49455175
   0.99713445  0.28406917  0.49138470
   0.99717882  0.42713120  0.48808545
   0.99755022  0.57022520  0.48855489
   0.99870715  0.71328680  0.48932269
   0.99890381  0.85634950  0.49224495
   0.14105707  0.99894538  0.50026000
   0.14039919  0.14150752  0.50354772
   0.13963563  0.28370954  0.49867742
   0.13952614  0.42686346  0.49117032
   0.14031324  0.56990011  0.48906433
   0.14094524  0.71294953  0.49616127
   0.14111254  0.85596446  0.49863608
   0.28369931  0.99850819  0.50083475
   0.28361060  0.14106750  0.50445215
   0.28352717  0.28467447  0.50861924
   0.28133760  0.42613177  0.49481360
   0.28325726  0.56966824  0.48351773
   0.28346493  0.71344630  0.49118951
   0.28361625  0.85608603  0.49715445
   0.42666381  0.99895501  0.49500132
   0.42650351  0.14137233  0.50035897
   0.42293686  0.27562061  0.53300082
   0.42138336  0.71763683  0.45646471
   0.42618260  0.85626716  0.48946409
   0.56930041  0.99906586  0.48524151
   0.56952172  0.14160813  0.49227917
   0.57017788  0.28482851  0.49515072
   0.56958258  0.85648758  0.47918801
   0.71233120  0.99892111  0.48112300
   0.71227376  0.14181693  0.48595466
   0.71219653  0.28485115  0.48356140
   0.71190011  0.42718515  0.46401849
   0.72689440  0.57723081  0.42111435
   0.72398062  0.72044406  0.43409429
   0.71276520  0.85597806  0.47499024
   0.85524992  0.99880370  0.48344635
   0.85472974  0.14146675  0.48688060
   0.85465974  0.28436863  0.48554960
   0.85483120  0.42740219  0.47969550
   0.85585325  0.57102712  0.47214478
   0.85859341  0.71494654  0.46872847
   0.85645332  0.85615271  0.47969198
   0.04529104  0.09385872  0.49824240
   0.04443914  0.23615948  0.49506616
   0.04430438  0.37925983  0.49091355
   0.04508609  0.52240270  0.48904423
   0.04572148  0.66542836  0.49221627
   0.04607752  0.80841872  0.49416953
   0.04584614  0.95124543  0.49700892
   0.18833046  0.09388481  0.50230454
   0.18750505  0.23662873  0.50554885
   0.18610378  0.37857169  0.49499598
   0.18737692  0.52186421  0.48637457
   0.18822529  0.66533815  0.49374565
   0.18856412  0.80831999  0.49824157
   0.18860940  0.95111738  0.50041972
   0.33131193  0.09367380  0.50271307
   0.33123185  0.23580259  0.51490018
   0.32593691  0.37661663  0.49478537
   0.32607236  0.52022961  0.49530782
   0.33065646  0.66619149  0.47803409
   0.33111399  0.80853531  0.49279937
   0.33131109  0.95114660  0.49816273
   0.47439923  0.09407103  0.49482175
   0.47451272  0.23635615  0.50943537
   0.47338196  0.80909931  0.47661385
   0.47432323  0.95158007  0.49112522
   0.61698865  0.09412033  0.48760171
   0.61737440  0.23695856  0.49066431
   0.61897636  0.37671054  0.47510773
   0.62042343  0.81386444  0.48800271
   0.61723411  0.95171225  0.47991214
   0.75978646  0.09417429  0.48471770
   0.75972584  0.23693714  0.48509370
   0.75965568  0.37989487  0.47589653
   0.76174280  0.52411064  0.45151455
   0.76802426  0.67007433  0.43921466
   0.76172440  0.80836365  0.46505318
   0.76011770  0.95149752  0.47765677
   0.90225586  0.09359827  0.48840114
   0.90204815  0.23657229  0.48822654
   0.90200669  0.37970521  0.48482481
   0.90248624  0.52289511  0.48147345
   0.90421416  0.66607558  0.47717015
   0.90434143  0.80910307  0.48130809
   0.90295633  0.95100431  0.48749104
   0.46214733  0.35201085  0.58167371
   0.41379701  0.42155785  0.47271151
   0.41410792  0.56299048  0.51641309
   0.64153540  0.68132577  0.39769692
   0.65256890  0.54123418  0.37025629
   0.57086654  0.41803642  0.46522522
   0.57803410  0.72841697  0.51868128
   0.45965030  0.67959660  0.40802046
   0.57572019  0.60947651  0.56969397
   0.55033647  0.51279193  0.54818209
   0.59951518  0.56905228  0.56989750
Direct configuration=     2
   0.99790483  0.99858820  0.49497998
   0.99735626  0.14119392  0.49454220
   0.99713667  0.28407104  0.49136136
   0.99718034  0.42713101  0.48807117
   0.99754921  0.57022193  0.48853683
   0.99870583  0.71328607  0.48931212
   0.99890071  0.85634721  0.49223623
   0.14105606  0.99894279  0.50024372
   0.14039849  0.14150566  0.50352690
   0.13963472  0.28370860  0.49865254
   0.13952906  0.42686414  0.49114760
   0.14031092  0.56989933  0.48904635
   0.14094284  0.71294813  0.49614160
   0.14111114  0.85596421  0.49861896
   0.28369610  0.99850522  0.50082056
   0.28361080  0.14106687  0.50443799
   0.28352588  0.28467721  0.50859998
   0.28134185  0.42613801  0.49479446
   0.28325689  0.56967246  0.48348799
   0.28346528  0.71344711  0.49117115
   0.28361479  0.85608626  0.49714408
   0.42666414  0.99895504  0.49498860
   0.42650031  0.14137242  0.50035446
   0.42293103  0.27561871  0.53299515
   0.42138208  0.71763468  0.45642974
   0.42618001  0.85626617  0.48944014
   0.56930016  0.99906484  0.48522567
   0.56951903  0.14160513  0.49227501
   0.57017690  0.28482921  0.49514834
   0.56958087  0.85648364  0.47916393
   0.71233472  0.99892445  0.48110018
   0.71227628  0.14181872  0.48593843
   0.71219601  0.28485226  0.48354921
   0.71190243  0.42718648  0.46401805
   0.72689486  0.57723120  0.42110828
   0.72398258  0.72044493  0.43408291
   0.71276548  0.85598010  0.47496648
   0.85525164  0.99880441  0.48342351
   0.85473330  0.14147166  0.48686451
   0.85466185  0.28437237  0.48552725
   0.85483275  0.42740286  0.47968900
   0.85585305  0.57102612  0.47213627
   0.85859441  0.71494542  0.46871433
   0.85645312  0.85615098  0.47967480
   0.04528587  0.09385389  0.49822298
   0.04443736  0.23615682  0.49504559
   0.04430639  0.37925941  0.49088809
   0.04508401  0.52240056  0.48903180
   0.04572056  0.66542652  0.49219984
   0.04607573  0.80841912  0.49415376
   0.04584405  0.95124236  0.49699669
   0.18832945  0.09388191  0.50229054
   0.18750216  0.23662498  0.50552334
   0.18610628  0.37856950  0.49496641
   0.18737813  0.52186685  0.48634709
   0.18822471  0.66533931  0.49372981
   0.18856274  0.80832002  0.49822992
   0.18860902  0.95111584  0.50040334
   0.33131153  0.09367009  0.50270392
   0.33122962  0.23580119  0.51488348
   0.32593692  0.37662153  0.49476490
   0.32607762  0.52024164  0.49528105
   0.33065738  0.66619440  0.47800447
   0.33111316  0.80853760  0.49277840
   0.33131120  0.95114666  0.49814955
   0.47439702  0.09407053  0.49481653
   0.47451142  0.23635473  0.50943173
   0.47337951  0.80909614  0.47658811
   0.47432275  0.95158097  0.49110708
   0.61698727  0.09411869  0.48758734
   0.61736968  0.23695356  0.49066068
   0.61897907  0.37670888  0.47511045
   0.62042321  0.81386070  0.48797718
   0.61723483  0.95170984  0.47988484
   0.75978716  0.09417509  0.48469974
   0.75972234  0.23693635  0.48508159
   0.75965438  0.37989227  0.47589003
   0.76174068  0.52411151  0.45151021
   0.76802314  0.67007640  0.43920217
   0.76172474  0.80836494  0.46503246
   0.76012044  0.95149887  0.47763271
   0.90225293  0.09359553  0.48838601
   0.90204688  0.23657176  0.48820827
   0.90200594  0.37970474  0.48481142
   0.90248597  0.52289536  0.48146493
   0.90421189  0.66607549  0.47716254
   0.90433759  0.80910008  0.48129414
   0.90295561  0.95100033  0.48747963
   0.46213189  0.35200266  0.58167235
   0.41379765  0.42155837  0.47269180
   0.41411724  0.56300095  0.51637778
   0.64153762  0.68131892  0.39768751
   0.65256207  0.54123299  0.37026000
   0.57087522  0.41804221  0.46524087
   0.57803367  0.72841544  0.51865701
   0.45965359  0.67959359  0.40798391
   0.57574781  0.60949826  0.56973269
   0.55036237  0.51281808  0.54819102
   0.59950844  0.56903667  0.57013309
Direct configuration=     3
   0.99790097  0.99858446  0.49495713
   0.99735122  0.14119056  0.49452620
   0.99713738  0.28407055  0.49132687
   0.99718120  0.42712965  0.48804903
   0.99754807  0.57021955  0.48851074
   0.99870407  0.71328541  0.48929561
   0.99889527  0.85634395  0.49222202
   0.14105388  0.99893856  0.50021969
   0.14039447  0.14150001  0.50349554
   0.13963265  0.28370602  0.49861505
   0.13953406  0.42686532  0.49111267
   0.14030931  0.56989978  0.48901921
   0.14094212  0.71294775  0.49611404
   0.14110901  0.85596351  0.49859348
   0.28369683  0.99850401  0.50079906
   0.28360995  0.14106366  0.50441672
   0.28352340  0.28467991  0.50857077
   0.28134781  0.42614951  0.49476513
   0.28325755  0.56967989  0.48344342
   0.28346592  0.71344971  0.49114272
   0.28361294  0.85608723  0.49712759
   0.42666532  0.99895534  0.49497081
   0.42649791  0.14137127  0.50034747
   0.42292403  0.27561483  0.53298615
   0.42137945  0.71763266  0.45637947
   0.42617791  0.85626577  0.48940397
   0.56930033  0.99906278  0.48520054
   0.56951500  0.14160058  0.49226815
   0.57017463  0.28482657  0.49514549
   0.56957939  0.85647892  0.47912807
   0.71233861  0.99892669  0.48106563
   0.71227592  0.14181890  0.48591402
   0.71219067  0.28484934  0.48353212
   0.71190321  0.42718647  0.46401674
   0.72689493  0.57723448  0.42110054
   0.72398575  0.72044699  0.43406502
   0.71276536  0.85598229  0.47493169
   0.85525345  0.99880363  0.48339053
   0.85473411  0.14147337  0.48683987
   0.85466162  0.28437352  0.48549539
   0.85483227  0.42740245  0.47967855
   0.85585206  0.57102608  0.47212362
   0.85859469  0.71494457  0.46869417
   0.85645141  0.85614859  0.47964901
   0.04528190  0.09385090  0.49819467
   0.04443576  0.23615608  0.49501612
   0.04431029  0.37926053  0.49085047
   0.04508102  0.52239686  0.48901289
   0.04571766  0.66542324  0.49217456
   0.04607251  0.80841724  0.49413081
   0.04584205  0.95123869  0.49697799
   0.18832849  0.09387986  0.50226921
   0.18749950  0.23662074  0.50548614
   0.18611015  0.37856935  0.49492347
   0.18737814  0.52186885  0.48630752
   0.18822347  0.66533940  0.49370536
   0.18856198  0.80831969  0.49821250
   0.18860697  0.95111334  0.50037859
   0.33130857  0.09366638  0.50269010
   0.33122512  0.23580049  0.51485881
   0.32593789  0.37662643  0.49473599
   0.32608438  0.52025337  0.49524318
   0.33065591  0.66619807  0.47796097
   0.33111097  0.80853889  0.49274740
   0.33130992  0.95114592  0.49812991
   0.47439333  0.09406978  0.49480857
   0.47450784  0.23635469  0.50942726
   0.47337590  0.80909166  0.47654837
   0.47432277  0.95158032  0.49108211
   0.61698714  0.09411715  0.48756610
   0.61736597  0.23695046  0.49065435
   0.61898497  0.37670930  0.47511455
   0.62042250  0.81385697  0.48793832
   0.61723578  0.95170735  0.47984465
   0.75979125  0.09417711  0.48467419
   0.75972218  0.23693816  0.48506314
   0.75965598  0.37989248  0.47587990
   0.76173920  0.52411208  0.45150422
   0.76802418  0.67007845  0.43918538
   0.76172488  0.80836819  0.46500241
   0.76012346  0.95150142  0.47759590
   0.90225111  0.09359546  0.48836322
   0.90204903  0.23657606  0.48818003
   0.90200908  0.37970666  0.48479267
   0.90248525  0.52289488  0.48145221
   0.90420968  0.66607382  0.47715045
   0.90433353  0.80909609  0.48127446
   0.90295463  0.95099575  0.48746131
   0.46210900  0.35199145  0.58167122
   0.41379794  0.42155849  0.47266414
   0.41413003  0.56301090  0.51633232
   0.64153843  0.68130742  0.39767239
   0.65255025  0.54123019  0.37026511
   0.57088742  0.41805191  0.46526533
   0.57803208  0.72840994  0.51862204
   0.45966091  0.67959199  0.40793182
   0.57579245  0.60952861  0.56979054
   0.55042399  0.51288078  0.54821507
   0.59947067  0.56899293  0.57047122
Direct configuration=     4
   0.99789718  0.99857952  0.49492968
   0.99734615  0.14118535  0.49450251
   0.99713753  0.28406964  0.49128156
   0.99718149  0.42712720  0.48802001
   0.99754664  0.57021820  0.48847797
   0.99870180  0.71328373  0.48927258
   0.99888878  0.85633984  0.49220159
   0.14105105  0.99893402  0.50018879
   0.14038828  0.14149225  0.50345448
   0.13963255  0.28370357  0.49856636
   0.13953993  0.42686695  0.49106483
   0.14030725  0.56989954  0.48898439
   0.14094221  0.71294813  0.49607964
   0.14110594  0.85596158  0.49856027
   0.28369631  0.99850138  0.50077157
   0.28360696  0.14105930  0.50438920
   0.28351973  0.28468170  0.50853254
   0.28135460  0.42616365  0.49472651
   0.28326191  0.56969022  0.48339090
   0.28346579  0.71345384  0.49110380
   0.28361096  0.85608838  0.49710435
   0.42666583  0.99895576  0.49494953
   0.42649663  0.14137088  0.50033945
   0.42291500  0.27560977  0.53297515
   0.42137734  0.71762878  0.45631835
   0.42617670  0.85626513  0.48935584
   0.56930294  0.99906123  0.48516628
   0.56951107  0.14159581  0.49225809
   0.57017143  0.28482169  0.49514292
   0.56957943  0.85647601  0.47907964
   0.71233985  0.99892629  0.48101860
   0.71227315  0.14181752  0.48588279
   0.71218307  0.28484417  0.48351098
   0.71190429  0.42718628  0.46401424
   0.72689386  0.57723823  0.42109147
   0.72399039  0.72045016  0.43403957
   0.71276512  0.85598544  0.47488630
   0.85525527  0.99880170  0.48334821
   0.85473334  0.14147326  0.48680652
   0.85466003  0.28437324  0.48545667
   0.85483097  0.42740141  0.47966387
   0.85585033  0.57102650  0.47210740
   0.85859426  0.71494383  0.46866871
   0.85644831  0.85614584  0.47961494
   0.04527889  0.09384914  0.49815865
   0.04443519  0.23615542  0.49497865
   0.04431599  0.37926254  0.49080181
   0.04507891  0.52239427  0.48898811
   0.04571426  0.66542031  0.49214036
   0.04606847  0.80841377  0.49410145
   0.04583944  0.95123491  0.49695276
   0.18832669  0.09387706  0.50224017
   0.18749805  0.23661475  0.50543945
   0.18611466  0.37857244  0.49487073
   0.18737770  0.52187046  0.48625751
   0.18822236  0.66533877  0.49367220
   0.18856086  0.80831893  0.49818865
   0.18860454  0.95111056  0.50034568
   0.33130460  0.09366400  0.50267182
   0.33121929  0.23579972  0.51483006
   0.32593952  0.37663059  0.49470337
   0.32609336  0.52026530  0.49519603
   0.33065394  0.66620178  0.47790397
   0.33110824  0.80853956  0.49270727
   0.33130893  0.95114508  0.49810426
   0.47438948  0.09406851  0.49479805
   0.47450278  0.23635521  0.50942242
   0.47337272  0.80908687  0.47649542
   0.47432368  0.95157829  0.49105009
   0.61698762  0.09411553  0.48753842
   0.61736287  0.23694849  0.49064500
   0.61899187  0.37671088  0.47512132
   0.62042093  0.81385296  0.48788650
   0.61723794  0.95170472  0.47979341
   0.75979637  0.09418000  0.48464146
   0.75972410  0.23694115  0.48503682
   0.75965885  0.37989406  0.47586614
   0.76173907  0.52411382  0.45149753
   0.76802763  0.67008055  0.43916455
   0.76172679  0.80837164  0.46496351
   0.76012470  0.95150614  0.47754703
   0.90225045  0.09359706  0.48833262
   0.90205326  0.23658302  0.48814116
   0.90201410  0.37970968  0.48476778
   0.90248341  0.52289346  0.48143474
   0.90420807  0.66607130  0.47713325
   0.90432956  0.80909194  0.48125165
   0.90295274  0.95099177  0.48743450
   0.46207878  0.35197683  0.58167128
   0.41379872  0.42155868  0.47263065
   0.41414071  0.56301875  0.51627801
   0.64153680  0.68129071  0.39765094
   0.65253572  0.54122213  0.37027212
   0.57089884  0.41806499  0.46529987
   0.57803065  0.72840174  0.51857448
   0.45965777  0.67958957  0.40787269
   0.57585508  0.60956567  0.56986542
   0.55051932  0.51297536  0.54825469
   0.59940468  0.56893054  0.57090956
Direct configuration=     5
   0.99789491  0.99857481  0.49489799
   0.99734401  0.14118239  0.49446985
   0.99713989  0.28407128  0.49122589
   0.99718297  0.42712565  0.48798518
   0.99754513  0.57021802  0.48844116
   0.99870066  0.71328225  0.48924366
   0.99888447  0.85633653  0.49217562
   0.14104811  0.99893017  0.50015193
   0.14038307  0.14148519  0.50340667
   0.13963470  0.28370432  0.49851170
   0.13954471  0.42686918  0.49100383
   0.14030473  0.56989753  0.48894440
   0.14094108  0.71294754  0.49603931
   0.14110026  0.85595680  0.49852155
   0.28369304  0.99849788  0.50073904
   0.28360144  0.14105636  0.50435689
   0.28351788  0.28468421  0.50848998
   0.28135812  0.42617321  0.49468501
   0.28326726  0.56969904  0.48333221
   0.28346322  0.71345693  0.49105525
   0.28360979  0.85608896  0.49707515
   0.42666419  0.99895401  0.49492640
   0.42649446  0.14137100  0.50033114
   0.42290227  0.27560468  0.53296467
   0.42137520  0.71762502  0.45624835
   0.42617482  0.85626061  0.48929699
   0.56930673  0.99905887  0.48512189
   0.56950865  0.14159202  0.49224418
   0.57016805  0.28481822  0.49514146
   0.56957855  0.85647347  0.47901853
   0.71233954  0.99892580  0.48095830
   0.71227234  0.14181694  0.48584456
   0.71218224  0.28484302  0.48348733
   0.71190770  0.42718788  0.46401042
   0.72688981  0.57723695  0.42108261
   0.72399609  0.72045155  0.43400601
   0.71276570  0.85598959  0.47483031
   0.85525529  0.99880064  0.48329848
   0.85473439  0.14147544  0.48676422
   0.85466052  0.28437489  0.48541191
   0.85483133  0.42740059  0.47964463
   0.85584853  0.57102605  0.47208840
   0.85859498  0.71494263  0.46863943
   0.85644495  0.85614404  0.47957446
   0.04527473  0.09384504  0.49811635
   0.04443516  0.23615292  0.49493334
   0.04432322  0.37926353  0.49074632
   0.04507788  0.52239249  0.48895953
   0.04571237  0.66541937  0.49209902
   0.04606405  0.80840987  0.49406643
   0.04583517  0.95123162  0.49692254
   0.18832214  0.09387088  0.50220319
   0.18749507  0.23660761  0.50538675
   0.18611919  0.37857556  0.49481235
   0.18737957  0.52187311  0.48619929
   0.18822169  0.66533830  0.49363047
   0.18855862  0.80831785  0.49815762
   0.18860236  0.95110731  0.50030505
   0.33130158  0.09366248  0.50264958
   0.33121206  0.23579687  0.51479863
   0.32594081  0.37663440  0.49467151
   0.32610141  0.52028024  0.49514448
   0.33065270  0.66620709  0.47783471
   0.33110631  0.80854101  0.49265891
   0.33130932  0.95114454  0.49807341
   0.47438929  0.09406905  0.49478569
   0.47449794  0.23635439  0.50941793
   0.47337113  0.80908300  0.47642897
   0.47432599  0.95157626  0.49101055
   0.61698682  0.09411307  0.48750475
   0.61735836  0.23694434  0.49063261
   0.61899569  0.37671164  0.47513273
   0.62041881  0.81384765  0.48782223
   0.61724044  0.95170231  0.47973147
   0.75979730  0.09418123  0.48459978
   0.75972329  0.23694114  0.48500122
   0.75965915  0.37989272  0.47584894
   0.76173864  0.52411766  0.45149080
   0.76803118  0.67008277  0.43913920
   0.76172633  0.80837308  0.46491560
   0.76012423  0.95150897  0.47748632
   0.90224977  0.09359596  0.48829517
   0.90205601  0.23658841  0.48809250
   0.90201714  0.37970967  0.48473890
   0.90247911  0.52289129  0.48141330
   0.90420655  0.66606929  0.47711010
   0.90432540  0.80908864  0.48122492
   0.90294954  0.95098842  0.48739765
   0.46204311  0.35196075  0.58167631
   0.41380054  0.42155898  0.47259511
   0.41414854  0.56302515  0.51621652
   0.64153228  0.68126828  0.39763102
   0.65252054  0.54121023  0.37027939
   0.57091291  0.41808257  0.46534473
   0.57803113  0.72839319  0.51851535
   0.45964731  0.67958490  0.40780614
   0.57593297  0.60961143  0.56995379
   0.55063210  0.51308038  0.54830435
   0.59933086  0.56887721  0.57144818
Direct configuration=     6
   0.99789211  0.99857185  0.49486497
   0.99734526  0.14118243  0.49442698
   0.99714536  0.28407480  0.49116080
   0.99718717  0.42712561  0.48794443
   0.99754281  0.57021759  0.48840159
   0.99869914  0.71328083  0.48920925
   0.99888209  0.85633393  0.49214356
   0.14104453  0.99892600  0.50010975
   0.14037913  0.14147999  0.50335503
   0.13963834  0.28370663  0.49845238
   0.13954882  0.42687269  0.49093054
   0.14030577  0.56989367  0.48890042
   0.14093725  0.71294328  0.49599652
   0.14109276  0.85595080  0.49848109
   0.28368858  0.99849543  0.50070220
   0.28359420  0.14105483  0.50432102
   0.28351618  0.28468186  0.50844899
   0.28136145  0.42617884  0.49464586
   0.28327272  0.56970657  0.48326974
   0.28346082  0.71345996  0.49100066
   0.28360859  0.85608549  0.49704156
   0.42666354  0.99895084  0.49490095
   0.42649220  0.14136936  0.50032439
   0.42288840  0.27560169  0.53295886
   0.42137171  0.71762451  0.45617160
   0.42617274  0.85625343  0.48922979
   0.56930938  0.99905558  0.48506666
   0.56950869  0.14158976  0.49222575
   0.57016477  0.28481801  0.49514396
   0.56957608  0.85646930  0.47894455
   0.71233867  0.99892563  0.48088510
   0.71227386  0.14181765  0.48579870
   0.71218328  0.28484367  0.48346330
   0.71191132  0.42719074  0.46400589
   0.72688478  0.57723106  0.42107523
   0.72400273  0.72045129  0.43396504
   0.71276571  0.85599217  0.47476181
   0.85525304  0.99880125  0.48324129
   0.85473733  0.14148120  0.48671400
   0.85466332  0.28437746  0.48536299
   0.85482959  0.42739773  0.47962356
   0.85584718  0.57102526  0.47206732
   0.85859779  0.71494168  0.46860756
   0.85644244  0.85614366  0.47952937
   0.04526806  0.09383673  0.49807047
   0.04443597  0.23615074  0.49488306
   0.04433003  0.37926471  0.49068581
   0.04507700  0.52239184  0.48892597
   0.04571289  0.66542052  0.49205113
   0.04605955  0.80840776  0.49402797
   0.04583040  0.95122808  0.49688757
   0.18831480  0.09386216  0.50215834
   0.18749150  0.23660341  0.50532967
   0.18612204  0.37857686  0.49475196
   0.18738362  0.52187669  0.48613668
   0.18822049  0.66533892  0.49358211
   0.18855495  0.80831699  0.49812034
   0.18859902  0.95110266  0.50025756
   0.33129872  0.09366092  0.50262408
   0.33120373  0.23579224  0.51476766
   0.32594459  0.37664141  0.49464304
   0.32610481  0.52029240  0.49509425
   0.33065133  0.66621367  0.47775751
   0.33110526  0.80854252  0.49260467
   0.33131098  0.95114432  0.49803993
   0.47439060  0.09406937  0.49477233
   0.47449343  0.23635264  0.50941568
   0.47337197  0.80907975  0.47635036
   0.47432908  0.95157275  0.49096387
   0.61698512  0.09410978  0.48746520
   0.61735488  0.23693947  0.49061711
   0.61899740  0.37671303  0.47515015
   0.62041666  0.81384133  0.48774572
   0.61724471  0.95170054  0.47966322
   0.75979172  0.09418033  0.48454810
   0.75972016  0.23693802  0.48495560
   0.75965777  0.37988897  0.47582837
   0.76173596  0.52412060  0.45148418
   0.76803313  0.67008429  0.43911034
   0.76172513  0.80837379  0.46485953
   0.76012361  0.95150938  0.47741282
   0.90224847  0.09359245  0.48824999
   0.90205630  0.23658946  0.48803364
   0.90201544  0.37970542  0.48470587
   0.90247461  0.52288924  0.48138752
   0.90420570  0.66607025  0.47708181
   0.90432189  0.80908733  0.48119324
   0.90294580  0.95098629  0.48734999
   0.46200098  0.35194133  0.58168774
   0.41380332  0.42155951  0.47256190
   0.41415634  0.56303189  0.51615504
   0.64152565  0.68124457  0.39761030
   0.65250321  0.54119391  0.37028380
   0.57092914  0.41810360  0.46539836
   0.57803492  0.72838662  0.51844072
   0.45963274  0.67957445  0.40773246
   0.57601839  0.60967741  0.57005191
   0.55075829  0.51318788  0.54836470
   0.59925769  0.56883110  0.57208231
Direct configuration=     7
   0.99788571  0.99856964  0.49482551
   0.99734440  0.14118126  0.49437005
   0.99715323  0.28407475  0.49108261
   0.99718927  0.42712062  0.48789703
   0.99754159  0.57021542  0.48835856
   0.99869877  0.71328321  0.48916331
   0.99888280  0.85633553  0.49210610
   0.14103855  0.99892036  0.50006388
   0.14037502  0.14147534  0.50329596
   0.13963750  0.28370477  0.49838343
   0.13955227  0.42687571  0.49084232
   0.14030981  0.56989379  0.48884784
   0.14093299  0.71293914  0.49594530
   0.14108658  0.85594661  0.49843351
   0.28368579  0.99849256  0.50065802
   0.28358570  0.14105114  0.50427791
   0.28351252  0.28467752  0.50840771
   0.28136603  0.42618379  0.49461002
   0.28327648  0.56971478  0.48319659
   0.28346131  0.71346069  0.49093434
   0.28360726  0.85608070  0.49699896
   0.42667123  0.99895090  0.49487252
   0.42649029  0.14136576  0.50031849
   0.42287378  0.27559770  0.53295927
   0.42136462  0.71763242  0.45608099
   0.42617563  0.85624598  0.48914888
   0.56931311  0.99904867  0.48499578
   0.56951070  0.14158805  0.49219889
   0.57016161  0.28481860  0.49515020
   0.56957474  0.85646296  0.47884510
   0.71233958  0.99892990  0.48079194
   0.71227365  0.14181694  0.48573907
   0.71217490  0.28483882  0.48343626
   0.71190997  0.42719132  0.46400126
   0.72688129  0.57722551  0.42106710
   0.72400986  0.72045046  0.43391040
   0.71276102  0.85598643  0.47467186
   0.85524671  0.99879925  0.48316862
   0.85473687  0.14148262  0.48664914
   0.85466096  0.28437368  0.48530740
   0.85482599  0.42739265  0.47960066
   0.85584616  0.57102636  0.47204146
   0.85860308  0.71494569  0.46857107
   0.85644133  0.85614315  0.47947330
   0.04526251  0.09382840  0.49801890
   0.04443986  0.23615288  0.49481918
   0.04433489  0.37927107  0.49061733
   0.04507671  0.52239189  0.48888129
   0.04571000  0.66542157  0.49199700
   0.04605416  0.80840608  0.49398138
   0.04582947  0.95122454  0.49684492
   0.18830612  0.09385668  0.50210203
   0.18749017  0.23660441  0.50526377
   0.18612432  0.37857777  0.49468648
   0.18738996  0.52188024  0.48606369
   0.18821835  0.66533762  0.49352585
   0.18854947  0.80831326  0.49807146
   0.18859310  0.95110255  0.50020161
   0.33129935  0.09366189  0.50259436
   0.33119287  0.23578561  0.51473582
   0.32595021  0.37664919  0.49462061
   0.32610499  0.52029798  0.49504609
   0.33065038  0.66622110  0.47766782
   0.33110517  0.80854189  0.49253797
   0.33130995  0.95114198  0.49800077
   0.47439050  0.09406657  0.49475690
   0.47448702  0.23635221  0.50941920
   0.47337750  0.80907473  0.47625328
   0.47432151  0.95156176  0.49090791
   0.61698071  0.09410311  0.48741470
   0.61735514  0.23693892  0.49059658
   0.61900210  0.37671960  0.47517700
   0.62041494  0.81383342  0.48764729
   0.61724603  0.95169595  0.47958135
   0.75978478  0.09417930  0.48447991
   0.75972414  0.23693725  0.48490249
   0.75965670  0.37988648  0.47580168
   0.76173056  0.52411822  0.45147787
   0.76803227  0.67007988  0.43907377
   0.76172760  0.80837788  0.46478804
   0.76012205  0.95150434  0.47731942
   0.90224580  0.09359011  0.48818996
   0.90205810  0.23658743  0.48795828
   0.90201344  0.37970233  0.48466279
   0.90247203  0.52288772  0.48135556
   0.90420488  0.66607236  0.47704581
   0.90431986  0.80908754  0.48115265
   0.90294424  0.95098782  0.48728613
   0.46195085  0.35191487  0.58170930
   0.41380801  0.42156135  0.47253348
   0.41416239  0.56304063  0.51608857
   0.64151289  0.68122303  0.39758208
   0.65248872  0.54117388  0.37028768
   0.57094336  0.41812962  0.46547218
   0.57804279  0.72838358  0.51834007
   0.45961551  0.67955243  0.40764246
   0.57611678  0.60978085  0.57016704
   0.55093203  0.51332642  0.54845633
   0.59915369  0.56875691  0.57287520
Direct configuration=     8
   0.99787823  0.99856546  0.49477619
   0.99733535  0.14117506  0.49429890
   0.99715801  0.28407840  0.49099462
   0.99718483  0.42712110  0.48784859
   0.99754427  0.57021467  0.48831106
   0.99869371  0.71328937  0.48910616
   0.99888159  0.85633825  0.49205911
   0.14103480  0.99891896  0.50001142
   0.14037384  0.14147458  0.50323173
   0.13963312  0.28370389  0.49830832
   0.13955801  0.42687823  0.49074069
   0.14031410  0.56989933  0.48878943
   0.14093011  0.71293509  0.49588921
   0.14108579  0.85594883  0.49837491
   0.28368510  0.99848924  0.50060702
   0.28357759  0.14104762  0.50423098
   0.28351043  0.28468202  0.50837004
   0.28136105  0.42618311  0.49459024
   0.28328004  0.56972068  0.48311163
   0.28346330  0.71345841  0.49085245
   0.28360519  0.85607855  0.49694167
   0.42667628  0.99894740  0.49483843
   0.42649114  0.14136379  0.50031342
   0.42285610  0.27558687  0.53296884
   0.42136386  0.71763614  0.45596362
   0.42618177  0.85624166  0.48905360
   0.56930682  0.99903634  0.48491162
   0.56951086  0.14158469  0.49216048
   0.57015941  0.28482023  0.49516233
   0.56958142  0.85645682  0.47871676
   0.71234175  0.99893034  0.48067807
   0.71226691  0.14181156  0.48566239
   0.71216716  0.28483161  0.48340424
   0.71190382  0.42718784  0.46399798
   0.72688193  0.57722135  0.42105768
   0.72401532  0.72044988  0.43384364
   0.71275301  0.85597885  0.47455597
   0.85524029  0.99879353  0.48307335
   0.85472399  0.14146946  0.48656846
   0.85465837  0.28436555  0.48523970
   0.85482287  0.42738886  0.47957097
   0.85584263  0.57102820  0.47201106
   0.85860387  0.71494978  0.46852890
   0.85644766  0.85614720  0.47940526
   0.04526178  0.09383011  0.49796286
   0.04444291  0.23615350  0.49473699
   0.04433568  0.37927301  0.49053777
   0.04507963  0.52238954  0.48882200
   0.04570480  0.66542057  0.49194056
   0.04605205  0.80840514  0.49392716
   0.04582791  0.95122366  0.49679371
   0.18829860  0.09385646  0.50203576
   0.18749037  0.23660571  0.50519027
   0.18612243  0.37857714  0.49461780
   0.18739619  0.52188345  0.48597853
   0.18821319  0.66533287  0.49346250
   0.18854518  0.80830680  0.49800817
   0.18859199  0.95110198  0.50013747
   0.33129715  0.09366011  0.50255974
   0.33117921  0.23577451  0.51470735
   0.32595770  0.37665107  0.49460893
   0.32610649  0.52029977  0.49500276
   0.33064763  0.66622785  0.47756911
   0.33110926  0.80853656  0.49245581
   0.33130731  0.95113741  0.49796047
   0.47439341  0.09406340  0.49473912
   0.47448041  0.23635325  0.50943263
   0.47338830  0.80907672  0.47614072
   0.47431577  0.95154831  0.49084677
   0.61697765  0.09409631  0.48734971
   0.61735265  0.23694092  0.49057123
   0.61900793  0.37673027  0.47521217
   0.62041254  0.81382369  0.48752176
   0.61723923  0.95168403  0.47947728
   0.75978963  0.09418135  0.48438971
   0.75972621  0.23693692  0.48484003
   0.75965370  0.37988327  0.47577194
   0.76172837  0.52410907  0.45147321
   0.76803421  0.67007310  0.43903096
   0.76173404  0.80838307  0.46469605
   0.76011804  0.95149697  0.47720142
   0.90224195  0.09359222  0.48810804
   0.90206589  0.23658495  0.48786301
   0.90201721  0.37970379  0.48460911