  91  91   0   0
  0.4258115E+02  0.1727104E-08  0.1727104E-08  0.1500000E-08  0.0000000E+00
  1.000000000000000E-004
  CAR 
 unknown system                          
      4.46389120    -24.13726328  301     -3.02042879      1.00000000
    -24.137  0.0000E+00  0.0000E+00  0.0000E+00  0.0000E+00
    -24.042  0.0000E+00  0.0000E+00  0.0000E+00  0.0000E+00
    -23.947  0.0000E+00  0.0000E+00  0.0000E+00  0.0000E+00
    -23.851  0.0000E+00  0.0000E+00  0.0000E+00  0.0000E+00
    -23.756  0.0000E+00  0.0000E+00  0.0000E+00  0.0000E+00
    -23.661  0.0000E+00  0.0000E+00  0.0000E+00  0.0000E+00
    -23.565  0.0000E+00  0.0000E+00  0.0000E+00  0.0000E+00
    -23.470  0.0000E+00  0.0000E+00  0.0000E+00  0.0000E+00
    -23.375  0.0000E+00  0.0000E+00  0.0000E+00  0.0000E+00
    -23.279  0.0000E+00  0.0000E+00  0.0000E+00  0.0000E+00
    -23.184  0.0000E+00  0.0000E+00  0.0000E+00  0.0000E+00
    -23.089  0.5379E-14  0.5379E-14  0.5128E-15  0.5128E-15
    -22.993  0.5441E-07  0.5441E-07  0.5187E-08  0.5187E-08
    -22.898  0.6944E-03  0.6944E-03  0.6621E-04  0.6621E-04
    -22.803  0.2565E-01  0.2565E-01  0.2511E-02  0.2511E-02
    -22.707  0.3763E-01  0.3763E-01  0.6099E-02  0.6099E-02
    -22.612  0.2474E-01  0.2474E-01  0.8457E-02  0.8457E-02
    -22.517  0.1691E-01  0.1691E-01  0.1007E-01  0.1007E-01
    -22.421  0.2051E-01  0.2051E-01  0.1202E-01  0.1202E-01
    -22.326  0.1454E-01  0.1454E-01  0.1341E-01  0.1341E-01
    -22.231  0.2073E-01  0.2073E-01  0.1539E-01  0.1539E-01
    -22.135  0.1496E-01  0.1496E-01  0.1681E-01  0.1681E-01
    -22.040  0.1667E-01  0.1667E-01  0.1840E-01  0.1840E-01
    -21.945  0.2198E-01  0.2198E-01  0.2050E-01  0.2050E-01
    -21.849  0.2444E-01  0.2444E-01  0.2283E-01  0.2283E-01
    -21.754  0.2541E-01  0.2541E-01  0.2525E-01  0.2525E-01
    -21.658  0.2157E-01  0.2157E-01  0.2731E-01  0.2731E-01
    -21.563  0.2390E-01  0.2390E-01  0.2959E-01  0.2959E-01
    -21.468  0.2024E-01  0.2024E-01  0.3152E-01  0.3152E-01
    -21.372  0.2265E-01  0.2265E-01  0.3367E-01  0.3367E-01
    -21.277  0.1771E-01  0.1771E-01  0.3536E-01  0.3536E-01
    -21.182  0.5145E-01  0.5145E-01  0.4027E-01  0.4027E-01
    -21.086  0.5227E-01  0.5226E-01  0.4525E-01  0.4525E-01
    -20.991  0.1680E-01  0.1680E-01  0.4685E-01  0.4685E-01
    -20.896  0.2126E-01  0.2126E-01  0.4888E-01  0.4888E-01
    -20.800  0.1768E-01  0.1768E-01  0.5057E-01  0.5057E-01
    -20.705  0.1397E-01  0.1397E-01  0.5190E-01  0.5190E-01
    -20.610  0.1617E-01  0.1617E-01  0.5344E-01  0.5344E-01
    -20.514  0.2551E-01  0.2551E-01  0.5587E-01  0.5587E-01
    -20.419  0.1681E-01  0.1681E-01  0.5747E-01  0.5747E-01
    -20.324  0.2200E-01  0.2200E-01  0.5957E-01  0.5957E-01
    -20.228  0.2811E-01  0.2811E-01  0.6225E-01  0.6225E-01
    -20.133  0.1579E-01  0.1579E-01  0.6376E-01  0.6376E-01
    -20.038  0.1343E-01  0.1343E-01  0.6504E-01  0.6504E-01
    -19.942  0.1915E-01  0.1915E-01  0.6686E-01  0.6686E-01
    -19.847  0.2530E-01  0.2530E-01  0.6927E-01  0.6927E-01
    -19.752  0.3489E-01  0.3489E-01  0.7260E-01  0.7260E-01
    -19.656  0.1842E-01  0.1842E-01  0.7436E-01  0.7436E-01
    -19.561  0.1513E-01  0.1513E-01  0.7580E-01  0.7580E-01
    -19.466  0.2558E-01  0.2558E-01  0.7824E-01  0.7824E-01
    -19.370  0.2242E-01  0.2242E-01  0.8037E-01  0.8037E-01
    -19.275  0.1201E-01  0.1201E-01  0.8152E-01  0.8152E-01
    -19.180  0.2730E-02  0.2730E-02  0.8178E-01  0.8178E-01
    -19.084  0.1440E-01  0.1440E-01  0.8315E-01  0.8315E-01
    -18.989  0.1761E-01  0.1761E-01  0.8483E-01  0.8483E-01
    -18.894  0.5247E-01  0.5247E-01  0.8983E-01  0.8983E-01
    -18.798  0.3441E-01  0.3441E-01  0.9311E-01  0.9311E-01
    -18.703  0.3135E-01  0.3135E-01  0.9610E-01  0.9610E-01
    -18.608  0.3108E-01  0.3108E-01  0.9906E-01  0.9906E-01
    -18.512  0.1725E-01  0.1725E-01  0.1007E+00  0.1007E+00
    -18.417  0.2235E-02  0.2235E-02  0.1009E+00  0.1009E+00
    -18.322  0.2209E-01  0.2209E-01  0.1030E+00  0.1030E+00
    -18.226  0.1860E-01  0.1860E-01  0.1048E+00  0.1048E+00
    -18.131  0.3005E-01  0.3005E-01  0.1077E+00  0.1077E+00
    -18.036  0.1566E-01  0.1566E-01  0.1092E+00  0.1092E+00
    -17.940  0.1898E-01  0.1898E-01  0.1110E+00  0.1110E+00
    -17.845  0.3620E-01  0.3620E-01  0.1144E+00  0.1144E+00
    -17.750  0.5077E-01  0.5077E-01  0.1193E+00  0.1193E+00
    -17.654  0.2099E-01  0.2099E-01  0.1213E+00  0.1213E+00
    -17.559  0.7456E-02  0.7456E-02  0.1220E+00  0.1220E+00
    -17.464  0.2667E-01  0.2667E-01  0.1245E+00  0.1245E+00
    -17.368  0.4416E-01  0.4416E-01  0.1287E+00  0.1287E+00
    -17.273  0.2965E-01  0.2965E-01  0.1316E+00  0.1316E+00
    -17.178  0.2077E-01  0.2077E-01  0.1335E+00  0.1335E+00
    -17.082  0.1583E-01  0.1583E-01  0.1350E+00  0.1350E+00
    -16.987  0.1763E-01  0.1763E-01  0.1367E+00  0.1367E+00
    -16.892  0.2628E-01  0.2628E-01  0.1392E+00  0.1392E+00
    -16.796  0.4877E-01  0.4877E-01  0.1439E+00  0.1439E+00
    -16.701  0.2378E-01  0.2378E-01  0.1461E+00  0.1461E+00
    -16.606  0.1367E-01  0.1367E-01  0.1474E+00  0.1474E+00
    -16.510  0.5598E-03  0.5598E-03  0.1475E+00  0.1475E+00
    -16.415  0.3196E-05  0.3196E-05  0.1475E+00  0.1475E+00
    -16.320  0.2165E-02  0.2165E-02  0.1477E+00  0.1477E+00
    -16.224  0.1335E-01  0.1335E-01  0.1490E+00  0.1490E+00
    -16.129  0.2130E-01  0.2130E-01  0.1510E+00  0.1510E+00
    -16.034  0.2182E-01  0.2182E-01  0.1531E+00  0.1531E+00
    -15.938  0.1330E-01  0.1330E-01  0.1544E+00  0.1544E+00
    -15.843  0.1591E-01  0.1591E-01  0.1559E+00  0.1559E+00
    -15.748  0.1491E-01  0.1491E-01  0.1573E+00  0.1573E+00
    -15.652  0.1988E-01  0.1988E-01  0.1592E+00  0.1592E+00
    -15.557  0.3330E-01  0.3330E-01  0.1624E+00  0.1624E+00
    -15.462  0.4622E-01  0.4622E-01  0.1668E+00  0.1668E+00
    -15.366  0.4123E-01  0.4123E-01  0.1707E+00  0.1707E+00
    -15.271  0.7748E-02  0.7748E-02  0.1714E+00  0.1714E+00
    -15.176  0.2017E-01  0.2017E-01  0.1734E+00  0.1734E+00
    -15.080  0.3445E-01  0.3445E-01  0.1767E+00  0.1767E+00
    -14.985  0.2843E-01  0.2843E-01  0.1794E+00  0.1794E+00
    -14.890  0.2585E-01  0.2585E-01  0.1818E+00  0.1818E+00
    -14.794  0.4445E-01  0.4445E-01  0.1861E+00  0.1861E+00
    -14.699  0.3849E-01  0.3849E-01  0.1897E+00  0.1897E+00
    -14.604  0.2884E-01  0.2884E-01  0.1925E+00  0.1925E+00
    -14.508  0.1916E-01  0.1916E-01  0.1943E+00  0.1943E+00
    -14.413  0.1589E-01  0.1589E-01  0.1958E+00  0.1958E+00
    -14.318  0.7323E-02  0.7323E-02  0.1965E+00  0.1965E+00
    -14.222  0.1390E-01  0.1390E-01  0.1978E+00  0.1978E+00
    -14.127  0.1427E-01  0.1427E-01  0.1992E+00  0.1992E+00
    -14.032  0.3068E-01  0.3068E-01  0.2021E+00  0.2021E+00
    -13.936  0.4471E-01  0.4471E-01  0.2064E+00  0.2064E+00
    -13.841  0.3491E-01  0.3491E-01  0.2097E+00  0.2097E+00
    -13.746  0.2064E-01  0.2064E-01  0.2117E+00  0.2117E+00
    -13.650  0.2223E-01  0.2223E-01  0.2138E+00  0.2138E+00
    -13.555  0.1177E-01  0.1177E-01  0.2149E+00  0.2149E+00
    -13.459  0.3474E-02  0.3474E-02  0.2153E+00  0.2153E+00
    -13.364  0.1909E-01  0.1909E-01  0.2171E+00  0.2171E+00
    -13.269  0.1901E-01  0.1901E-01  0.2189E+00  0.2189E+00
    -13.173  0.1859E-01  0.1859E-01  0.2207E+00  0.2207E+00
    -13.078  0.2422E-01  0.2422E-01  0.2230E+00  0.2230E+00
    -12.983  0.2237E-01  0.2237E-01  0.2251E+00  0.2251E+00
    -12.887  0.5727E-01  0.5727E-01  0.2306E+00  0.2306E+00
    -12.792  0.2732E-01  0.2732E-01  0.2332E+00  0.2332E+00
    -12.697  0.3681E-01  0.3681E-01  0.2367E+00  0.2367E+00
    -12.601  0.2598E-01  0.2598E-01  0.2392E+00  0.2392E+00
    -12.506  0.3611E-01  0.3611E-01  0.2426E+00  0.2426E+00
    -12.411  0.1343E-01  0.1343E-01  0.2439E+00  0.2439E+00
    -12.315  0.1267E-01  0.1267E-01  0.2451E+00  0.2451E+00
    -12.220  0.1257E-01  0.1257E-01  0.2463E+00  0.2463E+00
    -12.125  0.1310E-01  0.1310E-01  0.2475E+00  0.2475E+00
    -12.029  0.2970E-01  0.2970E-01  0.2504E+00  0.2504E+00
    -11.934  0.2720E-01  0.2720E-01  0.2530E+00  0.2530E+00
    -11.839  0.3687E-01  0.3687E-01  0.2565E+00  0.2565E+00
    -11.743  0.4515E-01  0.4515E-01  0.2608E+00  0.2608E+00
    -11.648  0.5740E-01  0.5740E-01  0.2663E+00  0.2663E+00
    -11.553  0.2403E-01  0.2403E-01  0.2685E+00  0.2685E+00
    -11.457  0.3302E-01  0.3302E-01  0.2717E+00  0.2717E+00
    -11.362  0.3749E-01  0.3749E-01  0.2753E+00  0.2753E+00
    -11.267  0.3795E-01  0.3795E-01  0.2789E+00  0.2789E+00
    -11.171  0.3141E-01  0.3141E-01  0.2819E+00  0.2819E+00
    -11.076  0.6918E-02  0.6918E-02  0.2825E+00  0.2825E+00
    -10.981  0.2064E-01  0.2064E-01  0.2845E+00  0.2845E+00
    -10.885  0.2437E-01  0.2437E-01  0.2868E+00  0.2868E+00
    -10.790  0.1099E-01  0.1099E-01  0.2879E+00  0.2879E+00
    -10.695  0.3172E-01  0.3172E-01  0.2909E+00  0.2909E+00
    -10.599  0.5450E-01  0.5450E-01  0.2961E+00  0.2961E+00
    -10.504  0.3478E-01  0.3478E-01  0.2994E+00  0.2994E+00
    -10.409  0.5021E-01  0.5021E-01  0.3042E+00  0.3042E+00
    -10.313  0.4674E-01  0.4674E-01  0.3087E+00  0.3087E+00
    -10.218  0.5078E-01  0.5078E-01  0.3135E+00  0.3135E+00
    -10.123  0.5829E-01  0.5829E-01  0.3191E+00  0.3191E+00
    -10.027  0.4440E-01  0.4440E-01  0.3233E+00  0.3233E+00
     -9.932  0.5780E-01  0.5780E-01  0.3288E+00  0.3288E+00
     -9.837  0.8597E-01  0.8597E-01  0.3370E+00  0.3370E+00
     -9.741  0.5984E-01  0.5984E-01  0.3427E+00  0.3427E+00
     -9.646  0.4748E-01  0.4748E-01  0.3472E+00  0.3472E+00
     -9.551  0.6428E-01  0.6428E-01  0.3534E+00  0.3534E+00
     -9.455  0.3803E-01  0.3803E-01  0.3570E+00  0.3570E+00
     -9.360  0.8200E-01  0.8200E-01  0.3648E+00  0.3648E+00
     -9.265  0.9688E-01  0.9688E-01  0.3740E+00  0.3740E+00
     -9.169  0.8618E-01  0.8618E-01  0.3823E+00  0.3823E+00
     -9.074  0.5208E-01  0.5208E-01  0.3872E+00  0.3872E+00
     -8.979  0.7905E-01  0.7905E-01  0.3948E+00  0.3948E+00
     -8.883  0.6184E-01  0.6184E-01  0.4007E+00  0.4007E+00
     -8.788  0.4036E-01  0.4036E-01  0.4045E+00  0.4045E+00
     -8.693  0.6260E-01  0.6260E-01  0.4105E+00  0.4105E+00
     -8.597  0.6765E-01  0.6765E-01  0.4169E+00  0.4169E+00
     -8.502  0.9212E-01  0.9212E-01  0.4257E+00  0.4257E+00
     -8.407  0.5411E-01  0.5411E-01  0.4309E+00  0.4309E+00
     -8.311  0.4879E-01  0.4879E-01  0.4355E+00  0.4355E+00
     -8.216  0.3013E-01  0.3013E-01  0.4384E+00  0.4384E+00
     -8.121  0.4072E-01  0.4072E-01  0.4423E+00  0.4423E+00
     -8.025  0.3741E-01  0.3741E-01  0.4458E+00  0.4458E+00
     -7.930  0.3375E-01  0.3375E-01  0.4490E+00  0.4490E+00
     -7.835  0.1841E-01  0.1841E-01  0.4508E+00  0.4508E+00
     -7.739  0.4733E-01  0.4733E-01  0.4553E+00  0.4553E+00
     -7.644  0.8487E-01  0.8487E-01  0.4634E+00  0.4634E+00
     -7.549  0.7571E-01  0.7571E-01  0.4706E+00  0.4706E+00
     -7.453  0.4876E-01  0.4876E-01  0.4753E+00  0.4753E+00
     -7.358  0.3478E-01  0.3478E-01  0.4786E+00  0.4786E+00
     -7.263  0.2427E-01  0.2427E-01  0.4809E+00  0.4809E+00
     -7.167  0.2634E-01  0.2634E-01  0.4834E+00  0.4834E+00
     -7.072  0.4059E-01  0.4059E-01  0.4873E+00  0.4873E+00
     -6.977  0.5024E-01  0.5024E-01  0.4921E+00  0.4921E+00
     -6.881  0.2322E-01  0.2322E-01  0.4943E+00  0.4943E+00
     -6.786  0.2618E-01  0.2618E-01  0.4968E+00  0.4968E+00
     -6.691  0.5873E-01  0.5873E-01  0.5024E+00  0.5024E+00
     -6.595  0.5093E-01  0.5093E-01  0.5072E+00  0.5072E+00
     -6.500  0.4324E-01  0.4324E-01  0.5114E+00  0.5114E+00
     -6.405  0.3139E-01  0.3139E-01  0.5144E+00  0.5144E+00
     -6.309  0.5099E-01  0.5099E-01  0.5192E+00  0.5192E+00
     -6.214  0.3643E-01  0.3643E-01  0.5227E+00  0.5227E+00
     -6.119  0.2254E-01  0.2254E-01  0.5248E+00  0.5248E+00
     -6.023  0.1939E-01  0.1939E-01  0.5267E+00  0.5267E+00
     -5.928  0.1503E-01  0.1503E-01  0.5281E+00  0.5281E+00
     -5.833  0.1574E-01  0.1574E-01  0.5296E+00  0.5296E+00
     -5.737  0.1962E-01  0.1962E-01  0.5315E+00  0.5315E+00
     -5.642  0.3592E-01  0.3592E-01  0.5349E+00  0.5349E+00
     -5.547  0.2555E-01  0.2555E-01  0.5374E+00  0.5374E+00
     -5.451  0.5246E-01  0.5246E-01  0.5424E+00  0.5424E+00
     -5.356  0.9665E-01  0.9665E-01  0.5516E+00  0.5516E+00
     -5.261  0.4097E-01  0.4097E-01  0.5555E+00  0.5555E+00
     -5.165  0.5111E-01  0.5111E-01  0.5603E+00  0.5603E+00
     -5.070  0.5124E-02  0.5124E-02  0.5608E+00  0.5608E+00
     -4.974  0.3551E-02  0.3551E-02  0.5612E+00  0.5612E+00
     -4.879  0.1990E-01  0.1990E-01  0.5631E+00  0.5631E+00
     -4.784  0.4432E-01  0.4432E-01  0.5673E+00  0.5673E+00
     -4.688  0.4420E-01  0.4420E-01  0.5715E+00  0.5715E+00
     -4.593  0.5690E-01  0.5690E-01  0.5769E+00  0.5769E+00
     -4.498  0.4984E-01  0.4984E-01  0.5817E+00  0.5817E+00
     -4.402  0.7442E-01  0.7442E-01  0.5888E+00  0.5888E+00
     -4.307  0.4513E-01  0.4513E-01  0.5931E+00  0.5931E+00
     -4.212  0.4242E-01  0.4242E-01  0.5971E+00  0.5971E+00
     -4.116  0.4749E-01  0.4749E-01  0.6017E+00  0.6017E+00
     -4.021  0.3840E-01  0.3840E-01  0.6053E+00  0.6053E+00
     -3.926  0.6959E-02  0.6959E-02  0.6060E+00  0.6060E+00
     -3.830  0.1439E-01  0.1439E-01  0.6074E+00  0.6074E+00
     -3.735  0.1569E-02  0.1569E-02  0.6075E+00  0.6075E+00
     -3.640  0.1233E-02  0.1233E-02  0.6076E+00  0.6076E+00
     -3.544  0.7049E-02  0.7049E-02  0.6083E+00  0.6083E+00
     -3.449  0.4590E-03  0.4590E-03  0.6083E+00  0.6083E+00
     -3.354  0.6759E-03  0.6759E-03  0.6084E+00  0.6084E+00
     -3.258  0.1372E-01  0.1372E-01  0.6097E+00  0.6097E+00
     -3.163  0.7316E-02  0.7322E-02  0.6104E+00  0.6104E+00
     -3.068  0.2848E-01  0.2847E-01  0.6131E+00  0.6131E+00
     -2.972  0.4036E-02  0.4033E-02  0.6135E+00  0.6135E+00
     -2.877  0.1432E-01  0.1432E-01  0.6149E+00  0.6149E+00
     -2.782  0.1387E-02  0.1387E-02  0.6150E+00  0.6150E+00
     -2.686  0.3786E-06  0.3785E-06  0.6150E+00  0.6150E+00
     -2.591  0.1161E-03  0.1161E-03  0.6150E+00  0.6150E+00
     -2.496  0.5942E-02  0.5942E-02  0.6156E+00  0.6156E+00
     -2.400  0.8207E-02  0.8207E-02  0.6164E+00  0.6164E+00
     -2.305  0.6202E-02  0.6202E-02  0.6170E+00  0.6170E+00
     -2.210  0.1302E-01  0.1302E-01  0.6182E+00  0.6182E+00
     -2.114  0.1405E-01  0.1405E-01  0.6195E+00  0.6195E+00
     -2.019  0.4894E-02  0.4894E-02  0.6200E+00  0.6200E+00
     -1.924  0.1625E-02  0.1625E-02  0.6202E+00  0.6202E+00
     -1.828  0.2114E-01  0.2114E-01  0.6222E+00  0.6222E+00
     -1.733  0.2756E-01  0.2756E-01  0.6248E+00  0.6248E+00
     -1.638  0.2122E-02  0.2122E-02  0.6250E+00  0.6250E+00
     -1.542  0.4497E-04  0.4497E-04  0.6250E+00  0.6250E+00
     -1.447  0.6415E-02  0.6415E-02  0.6256E+00  0.6256E+00
     -1.352  0.3332E-01  0.3332E-01  0.6288E+00  0.6288E+00
     -1.256  0.5610E-01  0.5610E-01  0.6341E+00  0.6341E+00
     -1.161  0.2743E-01  0.2743E-01  0.6368E+00  0.6368E+00
     -1.066  0.3526E-01  0.3526E-01  0.6401E+00  0.6401E+00
     -0.970  0.2690E-01  0.2690E-01  0.6427E+00  0.6427E+00
     -0.875  0.2949E-01  0.2949E-01  0.6455E+00  0.6455E+00
     -0.780  0.1858E-01  0.1858E-01  0.6473E+00  0.6473E+00
     -0.684  0.1224E-01  0.1224E-01  0.6484E+00  0.6484E+00
     -0.589  0.3785E-01  0.3785E-01  0.6520E+00  0.6520E+00
     -0.494  0.2682E-01  0.2682E-01  0.6546E+00  0.6546E+00
     -0.398  0.3824E-01  0.3824E-01  0.6582E+00  0.6582E+00
     -0.303  0.3529E-01  0.3529E-01  0.6616E+00  0.6616E+00
     -0.208  0.3634E-01  0.3634E-01  0.6651E+00  0.6651E+00
     -0.112  0.1565E-01  0.1565E-01  0.6666E+00  0.6666E+00
     -0.017  0.1186E-02  0.1186E-02  0.6667E+00  0.6667E+00
      0.078  0.1022E-01  0.1022E-01  0.6677E+00  0.6677E+00
      0.174  0.2342E-01  0.2342E-01  0.6699E+00  0.6699E+00
      0.269  0.2370E-01  0.2370E-01  0.6721E+00  0.6721E+00
      0.364  0.3095E-01  0.3095E-01  0.6751E+00  0.6751E+00
      0.460  0.1287E-01  0.1287E-01  0.6763E+00  0.6763E+00
      0.555  0.1658E-01  0.1658E-01  0.6779E+00  0.6779E+00
      0.650  0.1098E-01  0.1098E-01  0.6789E+00  0.6789E+00
      0.746  0.2269E-01  0.2270E-01  0.6811E+00  0.6811E+00
      0.841  0.2472E-01  0.2472E-01  0.6835E+00  0.6835E+00
      0.936  0.4312E-01  0.4312E-01  0.6876E+00  0.6876E+00
      1.032  0.4122E-01  0.4122E-01  0.6915E+00  0.6915E+00
      1.127  0.2869E-01  0.2869E-01  0.6942E+00  0.6942E+00
      1.222  0.5592E-01  0.5592E-01  0.6996E+00  0.6996E+00
      1.318  0.3414E-01  0.3414E-01  0.7028E+00  0.7028E+00
      1.413  0.3490E-01  0.3490E-01  0.7062E+00  0.7062E+00
      1.508  0.2842E-01  0.2842E-01  0.7089E+00  0.7089E+00
      1.604  0.1467E-01  0.1467E-01  0.7103E+00  0.7103E+00
      1.699  0.2679E-01  0.2679E-01  0.7128E+00  0.7128E+00
      1.794  0.4939E-01  0.4939E-01  0.7175E+00  0.7175E+00
      1.890  0.8485E-01  0.8485E-01  0.7256E+00  0.7256E+00
      1.985  0.5980E-01  0.5980E-01  0.7313E+00  0.7313E+00
      2.080  0.1454E-01  0.1454E-01  0.7327E+00  0.7327E+00
      2.176  0.3740E-01  0.3740E-01  0.7363E+00  0.7363E+00
      2.271  0.5001E-01  0.5001E-01  0.7410E+00  0.7410E+00
      2.366  0.8256E-01  0.8256E-01  0.7489E+00  0.7489E+00
      2.462  0.6736E-01  0.6736E-01  0.7553E+00  0.7553E+00
      2.557  0.4124E-01  0.4124E-01  0.7593E+00  0.7593E+00
      2.652  0.3363E-01  0.3363E-01  0.7625E+00  0.7625E+00
      2.748  0.1162E+00  0.1162E+00  0.7736E+00  0.7736E+00
      2.843  0.1657E+00  0.1657E+00  0.7893E+00  0.7893E+00
      2.938  0.5905E-01  0.5905E-01  0.7950E+00  0.7950E+00
      3.034  0.9355E-02  0.9915E-02  0.7959E+00  0.7959E+00
      3.129  0.2040E-01  0.2630E-01  0.7978E+00  0.7984E+00
      3.225  0.2239E-01  0.1633E-01  0.7999E+00  0.8000E+00
      3.320  0.5379E-03  0.1487E-03  0.8000E+00  0.8000E+00
      3.415  0.4852E-07  0.3066E-08  0.8000E+00  0.8000E+00
      3.511  0.5205E-14  0.6599E-16  0.8000E+00  0.8000E+00
      3.606  0.0000E+00  0.0000E+00  0.8000E+00  0.8000E+00
      3.701  0.0000E+00  0.0000E+00  0.8000E+00  0.8000E+00
      3.797  0.0000E+00  0.0000E+00  0.8000E+00  0.8000E+00
      3.892  0.0000E+00  0.0000E+00  0.8000E+00  0.8000E+00
      3.987  0.0000E+00  0.0000E+00  0.8000E+00  0.8000E+00
      4.083  0.0000E+00  0.0000E+00  0.8000E+00  0.8000E+00
      4.178  0.0000E+00  0.0000E+00  0.8000E+00  0.8000E+00
      4.273  0.0000E+00  0.0000E+00  0.8000E+00  0.8000E+00
      4.369  0.0000E+00  0.0000E+00  0.8000E+00  0.8000E+00
      4.464  0.0000E+00  0.0000E+00  0.8000E+00  0.8000E+00
