       N       E                     dE             d eps       ncg     rms          rms(c)
DAV:   1     0.348222257894E+04    0.34822E+04   -0.13791E+05  4080   0.116E+03
DAV:   2    -0.169157633330E+03   -0.36514E+04   -0.34784E+04  5760   0.278E+02
DAV:   3    -0.841681948318E+03   -0.67252E+03   -0.66956E+03  4640   0.127E+02
DAV:   4    -0.865618000212E+03   -0.23936E+02   -0.23811E+02  4720   0.311E+01
DAV:   5    -0.866341533889E+03   -0.72353E+00   -0.72240E+00  5600   0.449E+00    0.428E+01
DAV:   6    -0.837615659076E+03    0.28726E+02   -0.20125E+01  4440   0.785E+00    0.323E+01
DAV:   7    -0.813877715688E+03    0.23738E+02   -0.79812E+01  4480   0.146E+01    0.175E+01
DAV:   8    -0.813323671557E+03    0.55404E+00   -0.33374E+01  4720   0.436E+00    0.121E+01
DAV:   9    -0.813919890023E+03   -0.59622E+00   -0.53359E+00  4480   0.413E+00    0.678E+00
DAV:  10    -0.813388422593E+03    0.53147E+00   -0.79437E-01  4640   0.191E+00    0.396E+00
DAV:  11    -0.813005708519E+03    0.38271E+00   -0.88565E-01  4600   0.160E+00    0.173E+00
DAV:  12    -0.812947640835E+03    0.58068E-01   -0.74924E-02  4480   0.561E-01    0.149E+00
DAV:  13    -0.812844936760E+03    0.10270E+00   -0.83857E-02  4840   0.561E-01    0.101E+00
DAV:  14    -0.812785660222E+03    0.59277E-01   -0.78779E-02  4920   0.501E-01    0.525E-01
DAV:  15    -0.812769043301E+03    0.16617E-01   -0.74836E-02  4680   0.381E-01    0.232E-01
DAV:  16    -0.812770796782E+03   -0.17535E-02   -0.26065E-02  4240   0.161E-01    0.185E-01
DAV:  17    -0.812769350127E+03    0.14467E-02   -0.91513E-03  4200   0.977E-02    0.825E-02
DAV:  18    -0.812770247679E+03   -0.89755E-03   -0.89889E-03  4260   0.804E-02    0.152E-01
DAV:  19    -0.812769256441E+03    0.99124E-03   -0.30151E-03  4260   0.530E-02    0.298E-02
DAV:  20    -0.812769281300E+03   -0.24859E-04   -0.42104E-04  4900   0.194E-02    0.257E-02
DAV:  21    -0.812769275992E+03    0.53078E-05   -0.43892E-05  3880   0.692E-03    0.909E-03
DAV:  22    -0.812769275720E+03    0.27250E-06   -0.17372E-05  3880   0.517E-03    0.633E-03
DAV:  23    -0.812769275352E+03    0.36777E-06   -0.19603E-06  3240   0.228E-03
   1 F= -.82013644E+03 E0= -.82013598E+03  d E =-.820136E+03  mag=    -0.0000
