 vasp.6.4.2 20Jul23 (build Aug 26 2025 15:10:52) complex                        
  
 executed on             LinuxIFC date 2025.11.27  11:30:10
 running  100 mpi-ranks, on    2 nodes
 each image running on   20 cores
 distrk:  each k-point on   20 cores,    1 groups
 distr:  one band on NCORE=   1 cores,   20 groups


--------------------------------------------------------------------------------------------------------


 INCAR:
   ENCUT = 520
   EDIFF = 1E-6
   NELM = 200
   ALGO = Normal
   ISMEAR = 0
   SIGMA = 0.05
   LASPH = .TRUE.
   ADDGRID = .TRUE.
   LREAL = Auto
   ISYM = 0
   ISPIN = 2
   MAGMOM = 91*0
   IMIX = 4
   AMIX = 0.20
   BMIX = 1E-4
   AMIX_MAG = 0.80
   BMIX_MAG = 1E-4
   IBRION = 3
   POTIM = 0
   ICHAIN = 0
   IMAGES = 5
   SPRING = -5
   LCLIMB = .TRUE.
   IOPT = 1
   ISIF = 2
   EDIFFG = -0.03
   NSW = 300
   IVDW = 12
   ISTART = 0
   ICHARG = 2
   LWAVE = .FALSE.
   LCHARG = .FALSE.

 POTCAR:    PAW_PBE C 08Apr2002                   
 POTCAR:    PAW_PBE N 08Apr2002                   
 POTCAR:    PAW_PBE H 15Jun2001                   
 POTCAR:    PAW_PBE O 08Apr2002                   
 -----------------------------------------------------------------------------
|                                                                             |
|           W    W    AA    RRRRR   N    N  II  N    N   GGGG   !!!           |
|           W    W   A  A   R    R  NN   N  II  NN   N  G    G  !!!           |
|           W    W  A    A  R    R  N N  N  II  N N  N  G       !!!           |
|           W WW W  AAAAAA  RRRRR   N  N N  II  N  N N  G  GGG   !            |
|           WW  WW  A    A  R   R   N   NN  II  N   NN  G    G                |
|           W    W  A    A  R    R  N    N  II  N    N   GGGG   !!!           |
|                                                                             |
|     For optimal performance we recommend to set                             |
|       NCORE = 2 up to number-of-cores-per-socket                            |
|     NCORE specifies how many cores store one orbital (NPAR=cpu/NCORE).      |
|     This setting can greatly improve the performance of VASP for DFT.       |
|     The default, NCORE=1 might be grossly inefficient on modern             |
|     multi-core architectures or massively parallel machines. Do your        |
|     own testing! More info at https://www.vasp.at/wiki/index.php/NCORE      |
|     Unfortunately you need to use the default for GW and RPA                |
|     calculations (for HF NCORE is supported but not extensively tested      |
|     yet).                                                                   |
|                                                                             |
 -----------------------------------------------------------------------------

 POTCAR:    PAW_PBE C 08Apr2002                   
   SHA256 =  253f7b50bb8d59471dbedb8285d89021f4a42ed1a2c5d38a03a736e69125dd95 C/POTCAR              
   COPYR  = (c) Copyright 08Apr2002 Georg Kresse                                                    
   COPYR  = This file is part of the software VASP. Any use, copying, and all other rights are regul
   COPYR  = If you do not have a valid VASP license, you may not use, copy or distribute this file. 
   VRHFIN =C: s2p2                                                                                  
   LEXCH  = PE                                                                                      
   EATOM  =   147.1560 eV,   10.8157 Ry                                                             
                                                                                                    
   TITEL  = PAW_PBE C 08Apr2002                                                                     
   LULTRA =        F    use ultrasoft PP ?                                                          
   IUNSCR =        1    unscreen: 0-lin 1-nonlin 2-no                                               
   RPACOR =    1.200    partial core radius                                                         
   POMASS =   12.011; ZVAL   =    4.000    mass and valenz                                          
   RCORE  =    1.500    outmost cutoff radius                                                       
   RWIGS  =    1.630; RWIGS  =    0.863    wigner-seitz radius (au A)                               
   ENMAX  =  400.000; ENMIN  =  300.000 eV                                                          
   ICORE  =        2    local potential                                                             
   LCOR   =        T    correct aug charges                                                         
   LPAW   =        T    paw PP                                                                      
   EAUG   =  644.873                                                                                
   DEXC   =    0.000                                                                                
   RMAX   =    1.529    core radius for proj-oper                                                   
   RAUG   =    1.300    factor for augmentation sphere                                              
   RDEP   =    1.501    radius for radial grids                                                     
   RDEPT  =    1.300    core radius for aug-charge                                                  
                                                                                                    
   Atomic configuration                                                                             
    4 entries                                                                                       
     n  l   j            E        occ.                                                              
     1  0  0.50      -273.3789   2.0000                                                             
     2  0  0.50       -13.7508   2.0000                                                             
     2  1  0.50        -5.2854   2.0000                                                             
     3  2  1.50        -5.4423   0.0000                                                             
   Description                                                                                      
     l       E           TYP  RCUT    TYP  RCUT                                                     
     0    -13.7508458     23  1.200                                                                 
     0     -8.2022199     23  1.200                                                                 
     1     -5.2854383     23  1.500                                                                 
     1     34.0145650     23  1.500                                                                 
     2     -5.4423304      7  1.500                                                                 
  local pseudopotential read in
  partial core-charges read in
  partial kinetic energy density read in
  atomic valenz-charges read in
  non local Contribution for L=           0  read in
    real space projection operators read in
  non local Contribution for L=           0  read in
    real space projection operators read in
  non local Contribution for L=           1  read in
    real space projection operators read in
  non local Contribution for L=           1  read in
    real space projection operators read in
    PAW grid and wavefunctions read in
 
   number of l-projection  operators is LMAX  =           4
   number of lm-projection operators is LMMAX =           8
 
 POTCAR:    PAW_PBE N 08Apr2002                   
   SHA256 =  e053789ff3a61a86a1b75d8a110fcc91f86041011e7b0817c7c99e4e8a6349d7 N/POTCAR              
   COPYR  = (c) Copyright 08Apr2002 Georg Kresse                                                    
   COPYR  = This file is part of the software VASP. Any use, copying, and all other rights are regul
   COPYR  = If you do not have a valid VASP license, you may not use, copy or distribute this file. 
   VRHFIN =N: s2p3                                                                                  
   LEXCH  = PE                                                                                      
   EATOM  =   264.5486 eV,   19.4438 Ry                                                             
                                                                                                    
   TITEL  = PAW_PBE N 08Apr2002                                                                     
   LULTRA =        F    use ultrasoft PP ?                                                          
   IUNSCR =        1    unscreen: 0-lin 1-nonlin 2-no                                               
   RPACOR =    1.200    partial core radius                                                         
   POMASS =   14.001; ZVAL   =    5.000    mass and valenz                                          
   RCORE  =    1.500    outmost cutoff radius                                                       
   RWIGS  =    1.400; RWIGS  =    0.741    wigner-seitz radius (au A)                               
   ENMAX  =  400.000; ENMIN  =  300.000 eV                                                          
   ICORE  =        2    local potential                                                             
   LCOR   =        T    correct aug charges                                                         
   LPAW   =        T    paw PP                                                                      
   EAUG   =  627.112                                                                                
   DEXC   =    0.000                                                                                
   RMAX   =    1.529    core radius for proj-oper                                                   
   RAUG   =    1.300    factor for augmentation sphere                                              
   RDEP   =    1.514    radius for radial grids                                                     
   RDEPT  =    1.338    core radius for aug-charge                                                  
                                                                                                    
   Atomic configuration                                                                             
    4 entries                                                                                       
     n  l   j            E        occ.                                                              
     1  0  0.50      -384.7179   2.0000                                                             
     2  0  0.50       -18.5828   2.0000                                                             
     2  1  0.50        -7.0898   3.0000                                                             
     3  2  1.50        -6.8029   0.0000                                                             
   Description                                                                                      
     l       E           TYP  RCUT    TYP  RCUT                                                     
     0    -18.5828119     23  1.200                                                                 
     0    -13.5018863     23  1.200                                                                 
     1     -7.0897853     23  1.500                                                                 
     1      9.5240782     23  1.500                                                                 
     2     -6.8029130      7  1.500                                                                 
  local pseudopotential read in
  partial core-charges read in
  partial kinetic energy density read in
  atomic valenz-charges read in
  non local Contribution for L=           0  read in
    real space projection operators read in
  non local Contribution for L=           0  read in
    real space projection operators read in
  non local Contribution for L=           1  read in
    real space projection operators read in
  non local Contribution for L=           1  read in
    real space projection operators read in
    PAW grid and wavefunctions read in
 
   number of l-projection  operators is LMAX  =           4
   number of lm-projection operators is LMMAX =           8
 
 POTCAR:    PAW_PBE H 15Jun2001                   
   SHA256 =  030f79b5d3ab3cf0e668861823c8fb652ff669f3e15e46930bd03bfd63a607b6 H/POTCAR              
   COPYR  = (c) Copyright 15Jun2001 Georg Kresse                                                    
   COPYR  = This file is part of the software VASP. Any use, copying, and all other rights are regul
   COPYR  = If you do not have a valid VASP license, you may not use, copy or distribute this file. 
   VRHFIN =H: ultrasoft test                                                                        
   LEXCH  = PE                                                                                      
   EATOM  =    12.4884 eV,    0.9179 Ry                                                             
                                                                                                    
   TITEL  = PAW_PBE H 15Jun2001                                                                     
   LULTRA =        F    use ultrasoft PP ?                                                          
   IUNSCR =        0    unscreen: 0-lin 1-nonlin 2-no                                               
   RPACOR =    0.000    partial core radius                                                         
   POMASS =    1.000; ZVAL   =    1.000    mass and valenz                                          
   RCORE  =    1.100    outmost cutoff radius                                                       
   RWIGS  =    0.700; RWIGS  =    0.370    wigner-seitz radius (au A)                               
   ENMAX  =  250.000; ENMIN  =  200.000 eV                                                          
   RCLOC  =    0.701    cutoff for local pot                                                        
   LCOR   =        T    correct aug charges                                                         
   LPAW   =        T    paw PP                                                                      
   EAUG   =  400.000                                                                                
   RMAX   =    1.123    core radius for proj-oper                                                   
   RAUG   =    1.200    factor for augmentation sphere                                              
   RDEP   =    1.112    radius for radial grids                                                     
   RDEPT  =    0.926    core radius for aug-charge                                                  
                                                                                                    
   Atomic configuration                                                                             
    2 entries                                                                                       
     n  l   j            E        occ.                                                              
     1  0  0.50        -6.4927   1.0000                                                             
     2  1  0.50        -3.4015   0.0000                                                             
   Description                                                                                      
     l       E           TYP  RCUT    TYP  RCUT                                                     
     0     -6.4927494     23  1.100                                                                 
     0      6.8029130     23  1.100                                                                 
     1     -4.0817478     23  1.100                                                                 
  local pseudopotential read in
  atomic valenz-charges read in
  non local Contribution for L=           0  read in
    real space projection operators read in
  non local Contribution for L=           0  read in
    real space projection operators read in
  non local Contribution for L=           1  read in
    real space projection operators read in
    PAW grid and wavefunctions read in
 
   number of l-projection  operators is LMAX  =           3
   number of lm-projection operators is LMMAX =           5
 
 POTCAR:    PAW_PBE O 08Apr2002                   
   SHA256 =  818f92134a0a090dccd8ba1447fa70422a3b330e708bb4f08108d8ae51209ddf O/POTCAR              
   COPYR  = (c) Copyright 08Apr2002 Georg Kresse                                                    
   COPYR  = This file is part of the software VASP. Any use, copying, and all other rights are regul
   COPYR  = If you do not have a valid VASP license, you may not use, copy or distribute this file. 
   VRHFIN =O: s2p4                                                                                  
   LEXCH  = PE                                                                                      
   EATOM  =   432.3788 eV,   31.7789 Ry                                                             
                                                                                                    
   TITEL  = PAW_PBE O 08Apr2002                                                                     
   LULTRA =        F    use ultrasoft PP ?                                                          
   IUNSCR =        1    unscreen: 0-lin 1-nonlin 2-no                                               
   RPACOR =    1.200    partial core radius                                                         
   POMASS =   16.000; ZVAL   =    6.000    mass and valenz                                          
   RCORE  =    1.520    outmost cutoff radius                                                       
   RWIGS  =    1.550; RWIGS  =    0.820    wigner-seitz radius (au A)                               
   ENMAX  =  400.000; ENMIN  =  300.000 eV                                                          
   ICORE  =        2    local potential                                                             
   LCOR   =        T    correct aug charges                                                         
   LPAW   =        T    paw PP                                                                      
   EAUG   =  605.392                                                                                
   DEXC   =    0.000                                                                                
   RMAX   =    1.553    core radius for proj-oper                                                   
   RAUG   =    1.300    factor for augmentation sphere                                              
   RDEP   =    1.550    radius for radial grids                                                     
   RDEPT  =    1.329    core radius for aug-charge                                                  
                                                                                                    
   Atomic configuration                                                                             
    4 entries                                                                                       
     n  l   j            E        occ.                                                              
     1  0  0.50      -514.6923   2.0000                                                             
     2  0  0.50       -23.9615   2.0000                                                             
     2  1  0.50        -9.0305   4.0000                                                             
     3  2  1.50        -9.5241   0.0000                                                             
   Description                                                                                      
     l       E           TYP  RCUT    TYP  RCUT                                                     
     0    -23.9615318     23  1.200                                                                 
     0     -9.5240782     23  1.200                                                                 
     1     -9.0304911     23  1.520                                                                 
     1      8.1634956     23  1.520                                                                 
     2     -9.5240782      7  1.500                                                                 
  local pseudopotential read in
  partial core-charges read in
  partial kinetic energy density read in
  kinetic energy density of atom read in
  atomic valenz-charges read in
  non local Contribution for L=           0  read in
    real space projection operators read in
  non local Contribution for L=           0  read in
    real space projection operators read in
  non local Contribution for L=           1  read in
    real space projection operators read in
  non local Contribution for L=           1  read in
    real space projection operators read in
    PAW grid and wavefunctions read in
 
   number of l-projection  operators is LMAX  =           4
   number of lm-projection operators is LMMAX =           8
 
 Optimization of the real space projectors (new method)

 maximal supplied QI-value         = 25.13
 optimisation between [QCUT,QGAM] = [ 11.56, 23.12] = [ 37.43,149.72] Ry 
 Optimized for a Real-space Cutoff    1.04 Angstroem

   l    n(q)    QCUT    max X(q) W(low)/X(q) W(high)/X(q)  e(spline) 
   0      7    11.561   115.676    0.20E-03    0.60E-03    0.21E-06
   0      7    11.561    87.132    0.20E-03    0.59E-03    0.21E-06
   1      7    11.561     4.429    0.23E-03    0.35E-03    0.15E-06
   1      7    11.561     2.733    0.18E-03    0.25E-03    0.12E-06
 Optimization of the real space projectors (new method)

 maximal supplied QI-value         = 25.13
 optimisation between [QCUT,QGAM] = [ 11.56, 23.12] = [ 37.43,149.72] Ry 
 Optimized for a Real-space Cutoff    1.25 Angstroem

   l    n(q)    QCUT    max X(q) W(low)/X(q) W(high)/X(q)  e(spline) 
   0      9    11.561    79.467    0.52E-04    0.16E-03    0.37E-06
   0      9    11.561    66.151    0.51E-04    0.16E-03    0.37E-06
   1      8    11.561    18.886    0.46E-03    0.28E-03    0.80E-06
   1      8    11.561    13.488    0.47E-03    0.29E-03    0.82E-06
 Optimization of the real space projectors (new method)

 maximal supplied QI-value         = 34.20
 optimisation between [QCUT,QGAM] = [ 11.63, 23.26] = [ 37.87,151.49] Ry 
 Optimized for a Real-space Cutoff    1.14 Angstroem

   l    n(q)    QCUT    max X(q) W(low)/X(q) W(high)/X(q)  e(spline) 
   0      8    11.629    19.460    0.27E-03    0.65E-03    0.17E-06
   0      8    11.629    12.209    0.25E-03    0.62E-03    0.16E-06
   1      7    11.629     4.655    0.29E-03    0.85E-04    0.19E-06
 Optimization of the real space projectors (new method)

 maximal supplied QI-value         = 24.76
 optimisation between [QCUT,QGAM] = [ 11.64, 23.27] = [ 37.91,151.63] Ry 
 Optimized for a Real-space Cutoff    1.04 Angstroem

   l    n(q)    QCUT    max X(q) W(low)/X(q) W(high)/X(q)  e(spline) 
   0      7    11.635    20.381    0.14E-03    0.49E-03    0.18E-06
   0      7    11.635    15.268    0.16E-03    0.52E-03    0.19E-06
   1      7    11.635     5.964    0.30E-03    0.44E-03    0.22E-06
   1      7    11.635     5.382    0.27E-03    0.34E-03    0.19E-06
  PAW_PBE C 08Apr2002                   :
 energy of atom  1       EATOM= -147.1560
 kinetic energy error for atom=    0.0071 (will be added to EATOM!!)
  PAW_PBE N 08Apr2002                   :
 energy of atom  2       EATOM= -264.5486
 kinetic energy error for atom=    0.0125 (will be added to EATOM!!)
  PAW_PBE H 15Jun2001                   :
 energy of atom  3       EATOM=  -12.4884
 kinetic energy error for atom=    0.0014 (will be added to EATOM!!)
  PAW_PBE O 08Apr2002                   :
 energy of atom  4       EATOM= -432.3788
 kinetic energy error for atom=    0.0208 (will be added to EATOM!!)
 
 
 POSCAR: C    N    H    O
  positions in direct lattice
  velocities in cartesian coordinates
 exchange correlation table for  LEXCH =        8
   RHO(1)=    0.500       N(1)  =     2000
   RHO(2)=  100.500       N(2)  =     4000

 VTST: version 4.1, (05/19/21)

 CHAIN: initializing optimizer
 
 OPT: Using LBFGS optimizer
 OPT: LBFGS, Init
 OPT: LBFGS, MEMORY             20
 OPT: LBFGS, IMAGES              5
 OPT: LBFGS, MAXMOVE      0.200000
 OPT: LBFGS, LGLOBAL      T
 OPT: LBFGS, INVCURV      0.010000
 OPT: LBFGS, LLINEOPT      F
 OPT: LBFGS, FDSTEP       0.005000
 OPT: LBFGS, LAUTOSCALE      T
 OPT: LBFGS, DAMPING      2.000000
 
 CHAIN: Read ICHAIN            0
 CHAIN: Running the NEB
 NEB:          SPRING     -5.000000
 NEB:          LCLIMB      T
 NEB:     LTANGENTOLD      F
 NEB:           LDNEB      F
 NEB:        LDNEBORG      F
 NEB:        LNEBCELL      F
 NEB:          EFIRST      0.000000
 NEB:           ELAST      0.000000
 
 POSCAR: C    N    H    O
  positions in direct lattice
  No initial velocities read in
 
 POSCAR: C    N    H    O
  positions in direct lattice
  No initial velocities read in
 
 POSCAR: C    N    H    O
  positions in direct lattice
  No initial velocities read in
 
 POSCAR: C    N    H    O
  positions in direct lattice
  No initial velocities read in
 


--------------------------------------------------------------------------------------------------------


 ion  position               nearest neighbor table
   1  1.000  0.000  0.501-  47 1.43  41 1.43  80 1.43
   2  0.999  0.143  0.501-  42 1.42  41 1.43  74 1.43
   3  0.999  0.286  0.501-  43 1.43  42 1.43  75 1.43
   4  0.999  0.429  0.501-  43 1.42  44 1.43  76 1.43
   5  1.000  0.572  0.501-  45 1.43  44 1.43  77 1.43
   6  0.001  0.715  0.501-  45 1.42  46 1.43  78 1.43
   7  0.001  0.858  0.501-  47 1.42  46 1.43  79 1.43
   8  0.144  0.002  0.501-  48 1.43  47 1.43  54 1.43
   9  0.143  0.145  0.501-  48 1.43  49 1.43  41 1.43
  10  0.142  0.286  0.502-  50 1.42  49 1.42  42 1.43
  11  0.142  0.428  0.502-  50 1.42  51 1.42  43 1.43
  12  0.144  0.571  0.502-  52 1.43  51 1.43  44 1.43
  13  0.144  0.714  0.501-  52 1.43  45 1.43  53 1.43
  14  0.144  0.858  0.501-  46 1.43  54 1.43  53 1.43
  15  0.287  0.001  0.501-  54 1.42  59 1.43  55 1.44
  16  0.287  0.146  0.502-  55 1.43  48 1.43  56 1.45
  17  0.288  0.294  0.504-  85 1.34  49 1.45  56 1.51
  18  0.285  0.429  0.505-  86 1.37  85 1.38  50 1.44
  19  0.288  0.567  0.505-  86 1.34  51 1.46  57 1.51
  20  0.287  0.713  0.503-  58 1.43  52 1.43  57 1.45
  21  0.287  0.858  0.502-  53 1.42  59 1.43  58 1.44
  22  0.429  0.001  0.502-  59 1.43  63 1.43  60 1.43
  23  0.429  0.146  0.502-  55 1.42  60 1.44  61 1.44
  24  0.429  0.856  0.503-  58 1.42  63 1.44  62 1.44
  25  0.571  1.000  0.503-  63 1.42  64 1.43  66 1.44
  26  0.571  0.144  0.502-  60 1.42  64 1.43  65 1.44
  27  0.573  0.292  0.503-  87 1.35  65 1.44  61 1.48
  28  0.573  0.854  0.504-  88 1.35  66 1.44  62 1.49
  29  0.713  0.998  0.503-  66 1.42  73 1.43  67 1.44
  30  0.714  0.143  0.502-  64 1.43  68 1.43  67 1.43
  31  0.713  0.287  0.501-  65 1.42  69 1.43  68 1.44
  32  0.709  0.428  0.503-  87 1.34  69 1.45  70 1.51
  33  0.709  0.853  0.504-  88 1.34  73 1.45  72 1.51
  34  0.856  0.999  0.502-  80 1.43  74 1.43  73 1.43
  35  0.856  0.142  0.501-  67 1.42  75 1.43  74 1.43
  36  0.856  0.286  0.501-  68 1.42  75 1.43  76 1.43
  37  0.856  0.429  0.501-  77 1.43  76 1.43  69 1.43
  38  0.856  0.573  0.501-  78 1.42  77 1.43  70 1.45
  39  0.859  0.716  0.502-  79 1.42  78 1.42  71 1.43
  40  0.856  0.856  0.502-  79 1.42  80 1.43  72 1.45
  41  0.048  0.096  0.501-   2 1.43   1 1.43   9 1.43
  42  0.046  0.238  0.501-   2 1.42   3 1.43  10 1.43
  43  0.046  0.381  0.501-   4 1.42   3 1.43  11 1.43
  44  0.048  0.524  0.501-   4 1.43   5 1.43  12 1.43
  45  0.049  0.667  0.501-   6 1.42   5 1.43  13 1.43
  46  0.049  0.810  0.501-   6 1.43   7 1.43  14 1.43
  47  0.048  0.954  0.501-   7 1.42   1 1.43   8 1.43
  48  0.192  0.097  0.501-   8 1.43   9 1.43  16 1.43
  49  0.191  0.240  0.502-  10 1.42   9 1.43  17 1.45
  50  0.189  0.381  0.503-  10 1.42  11 1.42  18 1.44
  51  0.191  0.523  0.503-  11 1.42  12 1.43  19 1.46
  52  0.192  0.667  0.502-  13 1.43  12 1.43  20 1.43
  53  0.192  0.810  0.501-  21 1.42  14 1.43  13 1.43
  54  0.192  0.954  0.501-  15 1.42  14 1.43   8 1.43
  55  0.334  0.098  0.502-  23 1.42  16 1.43  15 1.44
  56  0.339  0.243  0.503-  81 1.34  16 1.45  17 1.51
  57  0.339  0.668  0.504-  82 1.34  20 1.45  19 1.51
  58  0.334  0.809  0.503-  24 1.42  20 1.43  21 1.44
  59  0.334  0.953  0.502-  22 1.43  15 1.43  21 1.43
  60  0.476  0.097  0.502-  26 1.42  22 1.43  23 1.44
  61  0.474  0.242  0.502-  81 1.35  23 1.44  27 1.48
  62  0.474  0.804  0.504-  82 1.35  24 1.44  28 1.49
  63  0.476  0.952  0.503-  25 1.42  22 1.43  24 1.44
  64  0.618  0.095  0.502-  30 1.43  25 1.43  26 1.43
  65  0.618  0.240  0.502-  31 1.42  26 1.44  27 1.44
  66  0.618  0.951  0.503-  29 1.42  25 1.44  28 1.44
  67  0.761  0.095  0.502-  35 1.42  30 1.43  29 1.44
  68  0.761  0.239  0.501-  36 1.42  30 1.43  31 1.44
  69  0.760  0.383  0.501-  31 1.43  37 1.43  32 1.45
  70  0.759  0.529  0.503-  83 1.34  38 1.45  32 1.51
  71  0.763  0.668  0.504-  83 1.37  84 1.37  39 1.43
  72  0.759  0.802  0.504-  84 1.34  40 1.45  33 1.51
  73  0.760  0.950  0.503-  29 1.43  34 1.43  33 1.45
  74  0.903  0.094  0.501-  34 1.43   2 1.43  35 1.43
  75  0.903  0.238  0.501-   3 1.43  36 1.43  35 1.43
  76  0.903  0.382  0.501-  37 1.43  36 1.43   4 1.43
  77  0.904  0.525  0.501-  37 1.43  38 1.43   5 1.43
  78  0.906  0.668  0.501-  39 1.42  38 1.42   6 1.43
  79  0.906  0.810  0.502-  39 1.42  40 1.42   7 1.43
  80  0.904  0.951  0.502-  34 1.43  40 1.43   1 1.43
  81  0.428  0.287  0.503-  56 1.34  61 1.35
  82  0.429  0.714  0.505-  57 1.34  62 1.35
  83  0.716  0.576  0.505-  70 1.34  71 1.37
  84  0.716  0.712  0.504-  72 1.34  71 1.37
  85  0.331  0.383  0.507-  17 1.34  18 1.38
  86  0.332  0.520  0.507-  19 1.34  18 1.37
  87  0.619  0.382  0.503-  32 1.34  27 1.35
  88  0.619  0.809  0.504-  33 1.34  28 1.35
  89  0.502  0.458  0.466-  91 0.97
  90  0.566  0.560  0.465-  91 0.97
  91  0.519  0.511  0.430-  90 0.97  89 0.97
 

IMPORTANT INFORMATION: All symmetrisations will be switched off!
NOSYMM: (Re-)initialisation of all symmetry stuff for point group C_1.


----------------------------------------------------------------------------------------

                                     Primitive cell                                     

  volume of cell :    3874.8846

  direct lattice vectors                    reciprocal lattice vectors
    17.271038055  0.000000000  0.000000000     0.057900399  0.033428811  0.000000000
    -8.635519028 14.957157706  0.000000000     0.000000000  0.066857622  0.000000000
     0.000000000  0.000000000 15.000000000     0.000000000  0.000000000  0.066666667

  length of vectors
    17.271038055 17.271038055 15.000000000     0.066857622  0.066857622  0.066666667

  position of ions in fractional coordinates (direct lattice)
     0.999685588  0.000149270  0.501163050
     0.998953657  0.142520650  0.500947450
     0.998755340  0.285532840  0.500823675
     0.999011404  0.428737976  0.500719734
     0.999791815  0.571814214  0.500572969
     0.001304706  0.715167624  0.500551445
     0.001290528  0.858394029  0.500775971
     0.144124500  0.001982764  0.500810649
     0.143407439  0.144522173  0.501104444
     0.141884319  0.285757380  0.501630046
     0.141943074  0.428461456  0.501934029
     0.143563991  0.571213402  0.501751249
     0.144172593  0.714431169  0.501087914
     0.144165452  0.858213539  0.500659263
     0.286714122  0.001483874  0.501230810
     0.287342249  0.146274354  0.501858697
     0.288122799  0.293504487  0.503943099
     0.284804554  0.428540592  0.505466109
     0.288428664  0.566870823  0.504771787
     0.287429360  0.713405369  0.502842599
     0.286744065  0.857562895  0.501677698
     0.429282515  0.000846956  0.502162104
     0.429336349  0.145710376  0.501996659
     0.429352714  0.856067990  0.503258654
     0.571169565  0.999583511  0.502851568
     0.571157306  0.144008607  0.502026828
     0.573431006  0.291705305  0.502517960
     0.573438778  0.854133307  0.504190712
     0.713240873  0.998446410  0.502711939
     0.713563830  0.142980410  0.501711827
     0.713242532  0.287162938  0.501445897
     0.708889187  0.428170062  0.502727485
     0.708845332  0.853075823  0.503712155
     0.855782080  0.998701197  0.502016511
     0.855847099  0.142299735  0.501288469
     0.855873055  0.285882442  0.500796332
     0.855813108  0.429391515  0.500691666
     0.856191050  0.572556860  0.501143997
     0.858823959  0.715565012  0.501821143
     0.856102388  0.855839044  0.502342668
     0.047605354  0.095774795  0.500923651
     0.046223291  0.237682927  0.500949439
     0.046257263  0.380844269  0.501009466
     0.047740679  0.524138976  0.500885530
     0.048514261  0.667233585  0.500618445
     0.048753435  0.810499000  0.500552511
     0.048467753  0.953502948  0.500814284
     0.191656431  0.097367994  0.501213175
     0.191162603  0.240043982  0.501817461
     0.188889993  0.380578623  0.502539668
     0.191347822  0.523446261  0.502651901
     0.191747334  0.666615221  0.501896329
     0.191669361  0.810158144  0.501051512
     0.191633976  0.953759589  0.500813719
     0.334270934  0.097726983  0.501614464
     0.338517487  0.242976247  0.503042913
     0.338752549  0.667954213  0.504319139
     0.334295715  0.808892824  0.502588538
     0.333938796  0.953141812  0.501653730
     0.476340718  0.096618242  0.502034846
     0.474163471  0.242119696  0.502436939
     0.474129910  0.804459393  0.504258514
     0.476347090  0.952153348  0.502791182
     0.618236647  0.095326085  0.502177495
     0.618204870  0.240075910  0.501891072
     0.618202429  0.950537607  0.503289635
     0.760781169  0.094630322  0.501885518
     0.760798253  0.238513683  0.501206113
     0.760127380  0.382644326  0.501375715
     0.759157443  0.529021547  0.503007211
     0.763049292  0.667642403  0.503681032
     0.759015680  0.802297563  0.503507150
     0.760119308  0.949830479  0.502827322
     0.903310298  0.094091163  0.501344464
     0.903355848  0.237833336  0.500829133
     0.903351351  0.381535723  0.500581290
     0.903965723  0.524765690  0.500575769
     0.905653222  0.667584702  0.501035595
     0.905620699  0.810337352  0.501528058
     0.903869278  0.951403174  0.501824875
     0.428433697  0.286962434  0.502955962
     0.428528099  0.714020481  0.505044164
     0.716189761  0.575805765  0.505069210
     0.715971904  0.712477045  0.504300911
     0.331289914  0.383060150  0.507159745
     0.331514207  0.520365217  0.507081486
     0.619023063  0.382161029  0.503437909
     0.619048878  0.809305599  0.504452620
     0.501646024  0.458173003  0.466403537
     0.565677614  0.560141833  0.464820508
     0.519320250  0.511302646  0.430224061

  ion indices of the primitive-cell ions
   primitive index   ion index
                 1           1
                 2           2
                 3           3
                 4           4
                 5           5
                 6           6
                 7           7
                 8           8
                 9           9
                10          10
                11          11
                12          12
                13          13
                14          14
                15          15
                16          16
                17          17
                18          18
                19          19
                20          20
                21          21
                22          22
                23          23
                24          24
                25          25
                26          26
                27          27
                28          28
                29          29
                30          30
                31          31
                32          32
                33          33
                34          34
                35          35
                36          36
                37          37
                38          38
                39          39
                40          40
                41          41
                42          42
                43          43
                44          44
                45          45
                46          46
                47          47
                48          48
                49          49
                50          50
                51          51
                52          52
                53          53
                54          54
                55          55
                56          56
                57          57
                58          58
                59          59
                60          60
                61          61
                62          62
                63          63
                64          64
                65          65
                66          66
                67          67
                68          68
                69          69
                70          70
                71          71
                72          72
                73          73
                74          74
                75          75
                76          76
                77          77
                78          78
                79          79
                80          80
                81          81
                82          82
                83          83
                84          84
                85          85
                86          86
                87          87
                88          88
                89          89
                90          90
                91          91

----------------------------------------------------------------------------------------

 
 
 KPOINTS: Automatic mesh                          

Automatic generation of k-mesh.
 Grid dimensions read from file:
 generate k-points for:    2    2    1

 Generating k-lattice:

  Cartesian coordinates                     Fractional coordinates (reciprocal lattice)
     0.028950200  0.016714406  0.000000000     0.500000000  0.000000000  0.000000000
     0.000000000  0.033428811  0.000000000     0.000000000  0.500000000  0.000000000
     0.000000000  0.000000000  0.066666667     0.000000000  0.000000000  1.000000000

  Length of vectors
     0.033428811  0.033428811  0.066666667

  Shift w.r.t. Gamma in fractional coordinates (k-lattice)
     0.000000000  0.000000000  0.000000000

 
 Subroutine IBZKPT returns following result:
 ===========================================
 
 Found      4 irreducible k-points:
 
 Following reciprocal coordinates:
            Coordinates               Weight
  0.000000  0.000000  0.000000      1.000000
  0.500000  0.000000  0.000000      1.000000
  0.000000  0.500000  0.000000      1.000000
  0.500000  0.500000  0.000000      1.000000
 
 Following cartesian coordinates:
            Coordinates               Weight
  0.000000  0.000000  0.000000      1.000000
  0.028950  0.016714  0.000000      1.000000
  0.000000  0.033429  0.000000      1.000000
  0.028950  0.050143  0.000000      1.000000
 


--------------------------------------------------------------------------------------------------------




 Dimension of arrays:
   k-points           NKPTS =      4   k-points in BZ     NKDIM =      4   number of bands    NBANDS=    240
   number of dos      NEDOS =    301   number of ions     NIONS =     91
   non local maximal  LDIM  =      4   non local SUM 2l+1 LMDIM =      8
   total plane-waves  NPLWV = 774144
   max r-space proj   IRMAX =   1673   max aug-charges    IRDMAX=  20933
   dimension x,y,z NGX =    96 NGY =   96 NGZ =   84
   dimension x,y,z NGXF=   192 NGYF=  192 NGZF=  168
   support grid    NGXF=   384 NGYF=  384 NGZF=  336
   ions per type =              80   8   2   1
   NGX,Y,Z   is equivalent  to a cutoff of   9.24,  9.24,  9.31 a.u.
   NGXF,Y,Z  is equivalent  to a cutoff of  18.48, 18.48, 18.62 a.u.

 SYSTEM =  unknown system                          
 POSCAR =  C    N    H    O                        

 Startparameter for this run:
   NWRITE =      2    write-flag & timer
   PREC   = normal    normal or accurate (medium, high low for compatibility)
   ISTART =      0    job   : 0-new  1-cont  2-samecut
   ICHARG =      2    charge: 1-file 2-atom 10-const
   ISPIN  =      2    spin polarized calculation?
   LNONCOLLINEAR =      F non collinear calculations
   LSORBIT =      F    spin-orbit coupling
   INIWAV =      1    electr: 0-lowe 1-rand  2-diag
   LASPH  =      T    aspherical Exc in radial PAW
 Electronic Relaxation 1
   ENCUT  =  520.0 eV  38.22 Ry    6.18 a.u.  32.11 32.11 27.89*2*pi/ulx,y,z
   ENINI  =  520.0     initial cutoff
   ENAUG  =  644.9 eV  augmentation charge cutoff
   NELM   =    200;   NELMIN=  2; NELMDL= -5     # of ELM steps 
   EDIFF  = 0.1E-05   stopping-criterion for ELM
   LREAL  =      T    real-space projection
   NLSPLINE    = F    spline interpolate recip. space projectors
   LCOMPAT=      F    compatible to vasp.4.4
   GGA_COMPAT  = T    GGA compatible to vasp.4.4-vasp.4.6
   LMAXPAW     = -100 max onsite density
   LMAXMIX     =    2 max onsite mixed and CHGCAR
   VOSKOWN=      0    Vosko Wilk Nusair interpolation
   ROPT   =   -0.00050  -0.00050  -0.00050  -0.00050
 Ionic relaxation
   EDIFFG = -.3E-01   stopping-criterion for IOM
   NSW    =    300    number of steps for IOM
   NBLOCK =      1;   KBLOCK =    300    inner block; outer block 
   IBRION =      3    ionic relax: 0-MD 1-quasi-New 2-CG
   NFREE  =      0    steps in history (QN), initial steepest desc. (CG)
   ISIF   =      2    stress and relaxation
   IWAVPR =     11    prediction:  0-non 1-charg 2-wave 3-comb
   ISYM   =      0    0-nonsym 1-usesym 2-fastsym
   LCORR  =      T    Harris-Foulkes like correction to forces

   POTIM  = 0.0000    time-step for ionic-motion
   TEIN   =    0.0    initial temperature
   TEBEG  =    0.0;   TEEND  =   0.0 temperature during run
   SMASS  =  -3.00    Nose mass-parameter (am)
   estimated Nose-frequenzy (Omega)   =  0.10E-29 period in steps = 0.00E+00 mass=  -0.682E-26a.u.
   SCALEE = 1.0000    scale energy and forces
   NPACO  =    256;   APACO  = 10.0  distance and # of slots for P.C.
   PSTRESS=    0.0 pullay stress

  Mass of Ions in am
   POMASS =  12.01 14.00  1.00 16.00
  Ionic Valenz
   ZVAL   =   4.00  5.00  1.00  6.00
  Atomic Wigner-Seitz radii
   RWIGS  =  -1.00 -1.00 -1.00 -1.00
  virtual crystal weights 
   VCA    =   1.00  1.00  1.00  1.00
   NELECT =     368.0000    total number of electrons
   NUPDOWN=      -1.0000    fix difference up-down

 DOS related values:
   EMIN   =  10.00;   EMAX   =-10.00  energy-range for DOS
   EFERMI =   0.00;   METHOD = LEGACY      
   ISMEAR =     0;   SIGMA  =   0.05  broadening in eV -4-tet -1-fermi 0-gaus

 Electronic relaxation 2 (details)
   IALGO  =     38    algorithm
   LDIAG  =      T    sub-space diagonalisation (order eigenvalues)
   LSUBROT=      F    optimize rotation matrix (better conditioning)
   TURBO    =      0    0=normal 1=particle mesh
   IRESTART =      0    0=no restart 2=restart with 2 vectors
   NREBOOT  =      0    no. of reboots
   NMIN     =      0    reboot dimension
   EREF     =   0.00    reference energy to select bands
   IMIX   =      4    mixing-type and parameters
     AMIX     =   0.20;   BMIX     =  0.00
     AMIX_MAG =   0.80;   BMIX_MAG =  0.00
     AMIN     =   0.10
     WC   =   100.;   INIMIX=   1;  MIXPRE=   1;  MAXMIX= -45

 Intra band minimization:
   WEIMIN = 0.0010     energy-eigenvalue tresh-hold
   EBREAK =  0.10E-08  absolut break condition
   DEPER  =   0.30     relativ break condition  

   TIME   =   0.40     timestep for ELM

  volume/ion in A,a.u.               =      42.58       287.35
  Fermi-wavevector in a.u.,A,eV,Ry     =   0.746915  1.411465  7.590446  0.557882
  Thomas-Fermi vector in A             =   1.842848
 
 Write flags
   LWAVE        =      F    write WAVECAR
   LDOWNSAMPLE  =      F    k-point downsampling of WAVECAR
   LCHARG       =      F    write CHGCAR
   LVTOT        =      F    write LOCPOT, total local potential
   LVHAR        =      F    write LOCPOT, Hartree potential only
   LELF         =      F    write electronic localiz. function (ELF)
   LORBIT       =      0    0 simple, 1 ext, 2 COOP (PROOUT), +10 PAW based schemes


 Dipole corrections
   LMONO  =      F    monopole corrections only (constant potential shift)
   LDIPOL =      F    correct potential (dipole corrections)
   IDIPOL =      0    1-x, 2-y, 3-z, 4-all directions 
   EPSILON=  1.0000000 bulk dielectric constant

 Exchange correlation treatment:
   GGA     =    --    GGA type
   LEXCH   =     8    internal setting for exchange type
   LIBXC   =     F    Libxc                    
   VOSKOWN =     0    Vosko Wilk Nusair interpolation
   LHFCALC =     F    Hartree Fock is set to
   LHFONE  =     F    Hartree Fock one center treatment
   AEXX    =    0.0000 exact exchange contribution

 Linear response parameters
   LEPSILON=     F    determine dielectric tensor
   LRPA    =     F    only Hartree local field effects (RPA)
   LNABLA  =     F    use nabla operator in PAW spheres
   LVEL    =     F    velocity operator in full k-point grid
   CSHIFT  =0.1000    complex shift for real part using Kramers Kronig
   OMEGAMAX=  -1.0    maximum frequency
   DEG_THRESHOLD= 0.2000000E-02 threshold for treating states as degnerate
   RTIME   =   -0.100 relaxation time in fs
  (WPLASMAI=    0.000 imaginary part of plasma frequency in eV, 0.658/RTIME)
   DFIELD  = 0.0000000 0.0000000 0.0000000 field for delta impulse in time
 
  Optional k-point grid parameters
   LKPOINTS_OPT  =     F    use optional k-point grid
   KPOINTS_OPT_MODE=     1    mode for optional k-point grid
 
 Orbital magnetization related:
   ORBITALMAG=     F  switch on orbital magnetization
   LCHIMAG   =     F  perturbation theory with respect to B field
   DQ        =  0.001000  dq finite difference perturbation B field
   LLRAUG    =     F  two centre corrections for induced B field
   LBONE     =     F  B-component reconstruction in AE one-centre
   LVGVCALC  =     T  calculate vGv susceptibility
   LVGVAPPL  =     F  apply vGv susceptibility instead of pGv for G=0

 Random number generation:
   RANDOM_GENERATOR = DEFAULT
   PCG_SEED         = not used


--------------------------------------------------------------------------------------------------------


 quickmin algorithm: (dynamic with friction)
   using selective dynamics as specified on POSCAR
 charge density and potential will be updated during run
 spin polarized calculation
 Variant of blocked Davidson
 Davidson routine will perform the subspace rotation
 perform sub-space diagonalisation
    after iterative eigenvector-optimisation
 modified Broyden-mixing scheme, WC =      100.0
 initial mixing is a Kerker type mixing with AMIX =  0.2000 and BMIX =      0.0001
 Hartree-type preconditioning will be used
 using additional bands           56
 real space projection scheme for non local part
 use partial core corrections
 calculate Harris-corrections to forces 
   (improved forces if not selfconsistent)
 use gradient corrections 
 use of overlap-Matrix (Vanderbilt PP)
 Gauss-broadening in eV      SIGMA  =   0.05


--------------------------------------------------------------------------------------------------------


  energy-cutoff  :      520.00
  volume of cell :     3874.88
      direct lattice vectors                 reciprocal lattice vectors
    17.271038055  0.000000000  0.000000000     0.057900399  0.033428811  0.000000000
    -8.635519028 14.957157706  0.000000000     0.000000000  0.066857622  0.000000000
     0.000000000  0.000000000 15.000000000     0.000000000  0.000000000  0.066666667

  length of vectors
    17.271038055 17.271038055 15.000000000     0.066857622  0.066857622  0.066666667


 
 k-points in units of 2pi/SCALE and weight: Automatic mesh                          
   0.00000000  0.00000000  0.00000000       0.250
   0.02895020  0.01671441  0.00000000       0.250
   0.00000000  0.03342881  0.00000000       0.250
   0.02895020  0.05014322  0.00000000       0.250
 
 k-points in reciprocal lattice and weights: Automatic mesh                          
   0.00000000  0.00000000  0.00000000       0.250
   0.50000000  0.00000000  0.00000000       0.250
   0.00000000  0.50000000  0.00000000       0.250
   0.50000000  0.50000000  0.00000000       0.250
 
 position of ions in fractional coordinates (direct lattice) 
   0.99968559  0.00014927  0.50116305
   0.99895366  0.14252065  0.50094745
   0.99875534  0.28553284  0.50082367
   0.99901140  0.42873798  0.50071973
   0.99979181  0.57181421  0.50057297
   0.00130471  0.71516762  0.50055144
   0.00129053  0.85839403  0.50077597
   0.14412450  0.00198276  0.50081065
   0.14340744  0.14452217  0.50110444
   0.14188432  0.28575738  0.50163005
   0.14194307  0.42846146  0.50193403
   0.14356399  0.57121340  0.50175125
   0.14417259  0.71443117  0.50108791
   0.14416545  0.85821354  0.50065926
   0.28671412  0.00148387  0.50123081
   0.28734225  0.14627435  0.50185870
   0.28812280  0.29350449  0.50394310
   0.28480455  0.42854059  0.50546611
   0.28842866  0.56687082  0.50477179
   0.28742936  0.71340537  0.50284260
   0.28674406  0.85756290  0.50167770
   0.42928251  0.00084696  0.50216210
   0.42933635  0.14571038  0.50199666
   0.42935271  0.85606799  0.50325865
   0.57116956  0.99958351  0.50285157
   0.57115731  0.14400861  0.50202683
   0.57343101  0.29170530  0.50251796
   0.57343878  0.85413331  0.50419071
   0.71324087  0.99844641  0.50271194
   0.71356383  0.14298041  0.50171183
   0.71324253  0.28716294  0.50144590
   0.70888919  0.42817006  0.50272749
   0.70884533  0.85307582  0.50371215
   0.85578208  0.99870120  0.50201651
   0.85584710  0.14229974  0.50128847
   0.85587306  0.28588244  0.50079633
   0.85581311  0.42939151  0.50069167
   0.85619105  0.57255686  0.50114400
   0.85882396  0.71556501  0.50182114
   0.85610239  0.85583904  0.50234267
   0.04760535  0.09577479  0.50092365
   0.04622329  0.23768293  0.50094944
   0.04625726  0.38084427  0.50100947
   0.04774068  0.52413898  0.50088553
   0.04851426  0.66723358  0.50061844
   0.04875344  0.81049900  0.50055251
   0.04846775  0.95350295  0.50081428
   0.19165643  0.09736799  0.50121318
   0.19116260  0.24004398  0.50181746
   0.18888999  0.38057862  0.50253967
   0.19134782  0.52344626  0.50265190
   0.19174733  0.66661522  0.50189633
   0.19166936  0.81015814  0.50105151
   0.19163398  0.95375959  0.50081372
   0.33427093  0.09772698  0.50161446
   0.33851749  0.24297625  0.50304291
   0.33875255  0.66795421  0.50431914
   0.33429572  0.80889282  0.50258854
   0.33393880  0.95314181  0.50165373
   0.47634072  0.09661824  0.50203485
   0.47416347  0.24211970  0.50243694
   0.47412991  0.80445939  0.50425851
   0.47634709  0.95215335  0.50279118
   0.61823665  0.09532609  0.50217750
   0.61820487  0.24007591  0.50189107
   0.61820243  0.95053761  0.50328963
   0.76078117  0.09463032  0.50188552
   0.76079825  0.23851368  0.50120611
   0.76012738  0.38264433  0.50137571
   0.75915744  0.52902155  0.50300721
   0.76304929  0.66764240  0.50368103
   0.75901568  0.80229756  0.50350715
   0.76011931  0.94983048  0.50282732
   0.90331030  0.09409116  0.50134446
   0.90335585  0.23783334  0.50082913
   0.90335135  0.38153572  0.50058129
   0.90396572  0.52476569  0.50057577
   0.90565322  0.66758470  0.50103560
   0.90562070  0.81033735  0.50152806
   0.90386928  0.95140317  0.50182487
   0.42843370  0.28696243  0.50295596
   0.42852810  0.71402048  0.50504416
   0.71618976  0.57580577  0.50506921
   0.71597190  0.71247704  0.50430091
   0.33128991  0.38306015  0.50715975
   0.33151421  0.52036522  0.50708149
   0.61902306  0.38216103  0.50343791
   0.61904888  0.80930560  0.50445262
   0.50164602  0.45817300  0.46640354
   0.56567761  0.56014183  0.46482051
   0.51932025  0.51130265  0.43022406
 
 position of ions in cartesian coordinates  (Angst):
  17.26431880  0.00223266  7.51744576
  16.02222684  2.13170384  7.51421174
  14.78381721  4.27075971  7.51235512
  13.55158903  6.41270153  7.51079601
  12.32952995  8.55271537  7.50859453
  -6.15331000 10.69687493  7.50827167
  -7.39038921 12.83913486  7.51163957
   2.47205752  0.02965652  7.51215973
   1.22877136  2.16164093  7.51656665
  -0.01717383  4.27411820  7.52445069
  -1.24848283  6.40856557  7.52901044
  -2.45322505  8.54372893  7.52626873
  -3.67947361 10.68585967  7.51631871
  -4.92123234 12.83643525  7.50988894
   4.93903650  0.02219454  7.51846215
   3.69954395  2.18784858  7.52788046
   2.44161625  4.38999290  7.55914649
   1.21819984  6.40974922  7.58199163
   0.08623865  8.47877630  7.57157681
  -1.19642223 10.67051661  7.54263898
  -2.45313305 12.82670347  7.52516546
   7.40684075  0.01266805  7.53243156
   6.15679969  2.17941308  7.52994988
   0.02277565 12.80434394  7.54887980
   1.23276886 14.95092821  7.54277351
   8.62089050  2.15395945  7.53040242
   7.38472201  4.36308225  7.53776939
   2.52799853 12.77540658  7.56286068
   3.69630728 14.93392042  7.54067908
  11.08927801  2.13858054  7.52567741
   9.83863790  4.29514135  7.52168845
   8.54578141  6.40420714  7.54091228
   4.87574221 12.75958961  7.55568232
   6.15594168 14.93773131  7.53024767
  13.55253574  2.12839959  7.51932704
  12.31307284  4.27598877  7.51194498
  11.07276216  6.42247660  7.51037499
   9.84298255  8.56382325  7.51715996
   8.65350599 10.70281873  7.52731714
   7.39516258 12.80091955  7.53514002
  -0.00487118  1.43251871  7.51385477
  -1.25419122  3.55506102  7.51424159
  -2.48987699  5.69634780  7.51514200
  -3.70168102  7.83962933  7.51328296
  -4.92401667  9.97991795  7.50927667
  -6.15705710 12.12276136  7.50828767
  -7.39690444 14.26169396  7.51221426
   2.46928234  1.45634845  7.51819763
   1.22867221  3.59037569  7.52726192
  -0.02416769  5.69237449  7.53809503
  -1.21545464  7.82926828  7.53977851
  -2.44489292  9.97066899  7.52844494
  -3.68580724 12.11766313  7.51577268
  -4.92649139 14.26553259  7.51220579
   4.92928281  1.46171789  7.52421697
   3.74832240  3.63423404  7.54564369
   0.08247685  9.99069650  7.56478708
  -1.21157535 12.09873753  7.53882807
  -2.46340459 14.25629240  7.52480596
   7.39255000  1.44513429  7.53052269
   6.09846611  3.62142248  7.53655409
   1.24179133 12.03242600  7.56387770
   0.00467037 14.24150778  7.54186774
   9.85439843  1.42580729  7.53266243
   8.60385975  3.59085325  7.52836608
   2.46861208 14.21734090  7.54934452
  12.32229857  1.41540064  7.52828277
  11.08008614  3.56748677  7.51809169
   9.82385654  5.72327154  7.52063572
   8.54306145  7.91265871  7.54510816
   7.41321469  9.98603272  7.55521547
   6.18073282 12.00009118  7.55260724
   4.92577033 14.20676427  7.54240982
  14.78858050  1.40733636  7.52016696
  13.54807893  3.55731072  7.51243700
  12.30705657  5.70668998  7.50871934
  11.08080231  7.84900318  7.50863653
   9.87663086  9.98516967  7.51553393
   8.64332593 12.12034357  7.52292087
   7.39490049 14.23028731  7.52737312
   4.92142513  4.29214238  7.54433943
   1.23518766 10.67971693  7.57566247
   7.39695898  8.61241764  7.57603815
   6.21296892 10.65663152  7.56451367
   2.41379749  5.72949108  7.60739618
   1.23197076  7.78318461  7.60622229
   7.39101204  5.71604278  7.55156863
   3.70284284 12.10491148  7.56678930
   4.70738589  6.85296586  6.99605306
   4.93272414  8.37812973  6.97230761
   4.55383608  7.64763431  6.45336091
 


--------------------------------------------------------------------------------------------------------


 k-point   1 :   0.0000 0.0000 0.0000  plane waves:  104449
 k-point   2 :   0.5000 0.0000 0.0000  plane waves:  104264
 k-point   3 :   0.0000 0.5000 0.0000  plane waves:  104264
 k-point   4 :   0.5000 0.5000 0.0000  plane waves:  104264

 maximum and minimum number of plane-waves per node :    104449   104264

 maximum number of plane-waves:    104449
 maximum index in each direction: 
   IXMAX=   32   IYMAX=   32   IZMAX=   27
   IXMIN=  -32   IYMIN=  -32   IZMIN=  -27


 serial   3D FFT for wavefunctions
 parallel 3D FFT for charge:
    minimum data exchange during FFTs selected (reduces bandwidth)


 total amount of memory used by VASP MPI-rank0   344404. kBytes
=======================================================================

   base      :      30000. kBytes
   nonlr-proj:       8812. kBytes
   fftplans  :      49947. kBytes
   grid      :      93499. kBytes
   one-center:        559. kBytes
   wavefun   :     161587. kBytes
 
     INWAV:  cpu time      0.0000: real time      0.0000
 Broyden mixing: mesh for mixing (old mesh)
   NGX = 65   NGY = 65   NGZ = 55
  (NGX  =192   NGY  =192   NGZ  =168)
  gives a total of 232375 points

 initial charge density was supplied:
 charge density of overlapping atoms calculated
 number of electron     368.0000000 magnetization       0.0000000
 keeping initial charge density in first step


--------------------------------------------------------------------------------------------------------


 Maximum index for non-local projection operator         1589
 Maximum index for augmentation-charges         1504 (set IRDMAX)


--------------------------------------------------------------------------------------------------------


 First call to EWALD:  gamma=   0.113
 Maximum number of real-space cells 3x 3x 3
 Maximum number of reciprocal cells 3x 3x 3

    FEWALD:  cpu time      0.0031: real time      0.0031


--------------------------------------- Ionic step        1  -------------------------------------------




--------------------------------------- Iteration      1(   1)  ---------------------------------------


    POTLOK:  cpu time      0.4985: real time      0.5255
    SETDIJ:  cpu time      1.1070: real time      1.1115
     EDDAV:  cpu time     28.5478: real time     28.7221
       DOS:  cpu time      0.0007: real time      0.0138
    --------------------------------------------
      LOOP:  cpu time     30.1541: real time     30.3730

 eigenvalue-minimisations  :  4080
 total energy-change (2. order) : 0.3482223E+04  (-0.1379100E+05)
 number of electron     368.0000000 magnetization       0.0000000
 augmentation part      368.0000000 magnetization       0.0000000

 Free energy of the ion-electron system (eV)
  ---------------------------------------------------
  alpha Z        PSCENC =       175.06488379
  Ewald energy   TEWEN  =     36390.26848594
  -Hartree energ DENC   =    -47214.62960205
  -exchange      EXHF   =         0.00000000
  -V(xc)+E(xc)   XCENC  =      1240.41650840
  PAW double counting   =     10672.04303313   -10728.93979680
  entropy T*S    EENTRO =        -0.04394476
  eigenvalues    EBANDS =     -1397.48894497
  atomic energy  EATOM  =     14345.53195627
  Solvation  Ediel_sol  =         0.00000000
  ---------------------------------------------------
  free energy    TOTEN  =      3482.22257894 eV

  energy without entropy =     3482.26652370  energy(sigma->0) =     3482.24455132


--------------------------------------------------------------------------------------------------------




--------------------------------------- Iteration      1(   2)  ---------------------------------------


     EDDAV:  cpu time     37.5526: real time     37.8111
       DOS:  cpu time      0.0006: real time      0.0139
    --------------------------------------------
      LOOP:  cpu time     37.5532: real time     37.8250

 eigenvalue-minimisations  :  5760
 total energy-change (2. order) :-0.3651380E+04  (-0.3478426E+04)
 number of electron     368.0000000 magnetization       0.0000000
 augmentation part      368.0000000 magnetization       0.0000000

 Free energy of the ion-electron system (eV)
  ---------------------------------------------------
  alpha Z        PSCENC =       175.06488379
  Ewald energy   TEWEN  =     36390.26848594
  -Hartree energ DENC   =    -47214.62960205
  -exchange      EXHF   =         0.00000000
  -V(xc)+E(xc)   XCENC  =      1240.41650840
  PAW double counting   =     10672.04303313   -10728.93979680
  entropy T*S    EENTRO =        -0.00003301
  eigenvalues    EBANDS =     -5048.91306900
  atomic energy  EATOM  =     14345.53195627
  Solvation  Ediel_sol  =         0.00000000
  ---------------------------------------------------
  free energy    TOTEN  =      -169.15763333 eV

  energy without entropy =     -169.15760032  energy(sigma->0) =     -169.15761683


--------------------------------------------------------------------------------------------------------




--------------------------------------- Iteration      1(   3)  ---------------------------------------


     EDDAV:  cpu time     31.5239: real time     31.7512
       DOS:  cpu time      0.0005: real time      0.0005
    --------------------------------------------
      LOOP:  cpu time     31.5244: real time     31.7517

 eigenvalue-minimisations  :  4640
 total energy-change (2. order) :-0.6725243E+03  (-0.6695594E+03)
 number of electron     368.0000000 magnetization       0.0000000
 augmentation part      368.0000000 magnetization       0.0000000

 Free energy of the ion-electron system (eV)
  ---------------------------------------------------
  alpha Z        PSCENC =       175.06488379
  Ewald energy   TEWEN  =     36390.26848594
  -Hartree energ DENC   =    -47214.62960205
  -exchange      EXHF   =         0.00000000
  -V(xc)+E(xc)   XCENC  =      1240.41650840
  PAW double counting   =     10672.04303313   -10728.93979680
  entropy T*S    EENTRO =        -0.00000025
  eigenvalues    EBANDS =     -5721.43741674
  atomic energy  EATOM  =     14345.53195627
  Solvation  Ediel_sol  =         0.00000000
  ---------------------------------------------------
  free energy    TOTEN  =      -841.68194832 eV

  energy without entropy =     -841.68194807  energy(sigma->0) =     -841.68194819


--------------------------------------------------------------------------------------------------------




--------------------------------------- Iteration      1(   4)  ---------------------------------------


     EDDAV:  cpu time     31.9233: real time     32.1616
       DOS:  cpu time      0.0005: real time      0.0005
    --------------------------------------------
      LOOP:  cpu time     31.9238: real time     32.1622

 eigenvalue-minimisations  :  4720
 total energy-change (2. order) :-0.2393605E+02  (-0.2381081E+02)
 number of electron     368.0000000 magnetization       0.0000000
 augmentation part      368.0000000 magnetization       0.0000000

 Free energy of the ion-electron system (eV)
  ---------------------------------------------------
  alpha Z        PSCENC =       175.06488379
  Ewald energy   TEWEN  =     36390.26848594
  -Hartree energ DENC   =    -47214.62960205
  -exchange      EXHF   =         0.00000000
  -V(xc)+E(xc)   XCENC  =      1240.41650840
  PAW double counting   =     10672.04303313   -10728.93979680
  entropy T*S    EENTRO =        -0.00000036
  eigenvalues    EBANDS =     -5745.37346853
  atomic energy  EATOM  =     14345.53195627
  Solvation  Ediel_sol  =         0.00000000
  ---------------------------------------------------
  free energy    TOTEN  =      -865.61800021 eV

  energy without entropy =     -865.61799985  energy(sigma->0) =     -865.61800003


--------------------------------------------------------------------------------------------------------




--------------------------------------- Iteration      1(   5)  ---------------------------------------


     EDDAV:  cpu time     36.5949: real time     36.8422
       DOS:  cpu time      0.0006: real time      0.0138
    CHARGE:  cpu time      2.4420: real time      2.4553
    MIXING:  cpu time      0.0109: real time      0.0110
    --------------------------------------------
      LOOP:  cpu time     39.0484: real time     39.3224

 eigenvalue-minimisations  :  5600
 total energy-change (2. order) :-0.7235337E+00  (-0.7224039E+00)
 number of electron     368.0000002 magnetization      -0.0000000
 augmentation part       11.1370385 magnetization      -0.0003815

 Broyden mixing:
  rms(total) = 0.42769E+01    rms(broyden)= 0.42761E+01
  rms(prec ) = 0.47778E+01
  weight for this iteration     100.00

 Free energy of the ion-electron system (eV)
  ---------------------------------------------------
  alpha Z        PSCENC =       175.06488379
  Ewald energy   TEWEN  =     36390.26848594
  -Hartree energ DENC   =    -47214.62960205
  -exchange      EXHF   =         0.00000000
  -V(xc)+E(xc)   XCENC  =      1240.41650840
  PAW double counting   =     10672.04303313   -10728.93979680
  entropy T*S    EENTRO =        -0.00000037
  eigenvalues    EBANDS =     -5746.09700219
  atomic energy  EATOM  =     14345.53195627
  Solvation  Ediel_sol  =         0.00000000
  ---------------------------------------------------
  free energy    TOTEN  =      -866.34153389 eV

  energy without entropy =     -866.34153351  energy(sigma->0) =     -866.34153370


--------------------------------------------------------------------------------------------------------




--------------------------------------- Iteration      1(   6)  ---------------------------------------


    POTLOK:  cpu time      0.4937: real time      0.5202
    SETDIJ:  cpu time      1.2135: real time      1.2176
     EDDAV:  cpu time     30.2999: real time     30.4842
       DOS:  cpu time      0.0005: real time      0.0146
    CHARGE:  cpu time      2.4298: real time      2.4429
    MIXING:  cpu time      0.0118: real time      0.0119
    --------------------------------------------
      LOOP:  cpu time     34.4493: real time     34.6915

 eigenvalue-minimisations  :  4440
 total energy-change (2. order) : 0.2872587E+02  (-0.2012531E+01)
 number of electron     368.0000002 magnetization       0.0000000
 augmentation part       10.6802191 magnetization      -0.0003188

 Broyden mixing:
  rms(total) = 0.32324E+01    rms(broyden)= 0.32324E+01
  rms(prec ) = 0.35496E+01
  weight for this iteration     100.00

 eigenvalues of (default mixing * dielectric matrix)
  average eigenvalue GAMMA=   3.1333
  3.1333

 Free energy of the ion-electron system (eV)
  ---------------------------------------------------
  alpha Z        PSCENC =       175.06488379
  Ewald energy   TEWEN  =     36390.26848594
  -Hartree energ DENC   =    -47635.71979414
  -exchange      EXHF   =         0.00000000
  -V(xc)+E(xc)   XCENC  =      1255.78386822
  PAW double counting   =     14349.11836734   -14409.47147553
  entropy T*S    EENTRO =        -0.00000007
  eigenvalues    EBANDS =     -5308.19195091
  atomic energy  EATOM  =     14345.53195627
  Solvation  Ediel_sol  =         0.00000000
  ---------------------------------------------------
  free energy    TOTEN  =      -837.61565908 eV

  energy without entropy =     -837.61565900  energy(sigma->0) =     -837.61565904


--------------------------------------------------------------------------------------------------------




--------------------------------------- Iteration      1(   7)  ---------------------------------------


    POTLOK:  cpu time      0.4929: real time      0.5190
    SETDIJ:  cpu time      1.2103: real time      1.2142
     EDDAV:  cpu time     30.6901: real time     30.8796
       DOS:  cpu time      0.0006: real time      0.0124
    CHARGE:  cpu time      2.3505: real time      2.3634
    MIXING:  cpu time      0.0114: real time      0.0114
    --------------------------------------------
      LOOP:  cpu time     34.7557: real time     34.9999

 eigenvalue-minimisations  :  4480
 total energy-change (2. order) : 0.2373794E+02  (-0.7981156E+01)
 number of electron     368.0000002 magnetization      -0.0056982
 augmentation part        9.7441911 magnetization       0.0042032

 Broyden mixing:
  rms(total) = 0.17455E+01    rms(broyden)= 0.17445E+01
  rms(prec ) = 0.19488E+01
  weight for this iteration     100.00

 eigenvalues of (default mixing * dielectric matrix)
  average eigenvalue GAMMA=   1.9479
  0.7832  3.1126

 Free energy of the ion-electron system (eV)
  ---------------------------------------------------
  alpha Z        PSCENC =       175.06488379
  Ewald energy   TEWEN  =     36390.26848594
  -Hartree energ DENC   =    -48555.36854907
  -exchange      EXHF   =         0.00000000
  -V(xc)+E(xc)   XCENC  =      1290.19174896
  PAW double counting   =     26170.77213821   -26238.18066678
  entropy T*S    EENTRO =        -0.02658658
  eigenvalues    EBANDS =     -4392.13112644
  atomic energy  EATOM  =     14345.53195627
  Solvation  Ediel_sol  =         0.00000000
  ---------------------------------------------------
  free energy    TOTEN  =      -813.87771569 eV

  energy without entropy =     -813.85112911  energy(sigma->0) =     -813.86442240


--------------------------------------------------------------------------------------------------------




--------------------------------------- Iteration      1(   8)  ---------------------------------------


    POTLOK:  cpu time      0.4816: real time      0.5065
    SETDIJ:  cpu time      1.2154: real time      1.2195
     EDDAV:  cpu time     31.8599: real time     32.0600
       DOS:  cpu time      0.0006: real time      0.0142
    CHARGE:  cpu time      2.4444: real time      2.4588
    MIXING:  cpu time      0.0125: real time      0.0166
    --------------------------------------------
      LOOP:  cpu time     36.0144: real time     36.2757

 eigenvalue-minimisations  :  4720
 total energy-change (2. order) : 0.5540441E+00  (-0.3337418E+01)
 number of electron     368.0000001 magnetization      -0.0050698
 augmentation part        9.9502764 magnetization      -0.0051776

 Broyden mixing:
  rms(total) = 0.12059E+01    rms(broyden)= 0.12052E+01
  rms(prec ) = 0.12440E+01
  weight for this iteration     100.00

 eigenvalues of (default mixing * dielectric matrix)
  average eigenvalue GAMMA=   2.1275
  4.1670  1.8202  0.3953

 Free energy of the ion-electron system (eV)
  ---------------------------------------------------
  alpha Z        PSCENC =       175.06488379
  Ewald energy   TEWEN  =     36390.26848594
  -Hartree energ DENC   =    -48563.42647094
  -exchange      EXHF   =         0.00000000
  -V(xc)+E(xc)   XCENC  =      1289.95860029
  PAW double counting   =     27299.74587337   -27367.02846454
  entropy T*S    EENTRO =        -0.00000023
  eigenvalues    EBANDS =     -4383.43853552
  atomic energy  EATOM  =     14345.53195627
  Solvation  Ediel_sol  =         0.00000000
  ---------------------------------------------------
  free energy    TOTEN  =      -813.32367156 eV

  energy without entropy =     -813.32367133  energy(sigma->0) =     -813.32367144


--------------------------------------------------------------------------------------------------------




--------------------------------------- Iteration      1(   9)  ---------------------------------------


    POTLOK:  cpu time      0.4926: real time      0.5357
    SETDIJ:  cpu time      1.1865: real time      1.1926
     EDDAV:  cpu time     30.4778: real time     30.6931
       DOS:  cpu time      0.0006: real time      0.0028
    CHARGE:  cpu time      2.4402: real time      2.4532
    MIXING:  cpu time      0.0144: real time      0.0145
    --------------------------------------------
      LOOP:  cpu time     34.6120: real time     34.8918

 eigenvalue-minimisations  :  4480
 total energy-change (2. order) :-0.5962185E+00  (-0.5335852E+00)
 number of electron     368.0000001 magnetization      -0.0032137
 augmentation part        9.9513605 magnetization      -0.0031260

 Broyden mixing:
  rms(total) = 0.67835E+00    rms(broyden)= 0.67822E+00
  rms(prec ) = 0.75636E+00
  weight for this iteration     100.00

 eigenvalues of (default mixing * dielectric matrix)
  average eigenvalue GAMMA=   2.0979
  4.4442  2.1163  1.3898  0.4414

 Free energy of the ion-electron system (eV)
  ---------------------------------------------------
  alpha Z        PSCENC =       175.06488379
  Ewald energy   TEWEN  =     36390.26848594
  -Hartree energ DENC   =    -48698.10467082
  -exchange      EXHF   =         0.00000000
  -V(xc)+E(xc)   XCENC  =      1295.19997516
  PAW double counting   =     33330.46112630   -33398.63978011
  entropy T*S    EENTRO =        -0.00000021
  eigenvalues    EBANDS =     -4253.70186634
  atomic energy  EATOM  =     14345.53195627
  Solvation  Ediel_sol  =         0.00000000
  ---------------------------------------------------
  free energy    TOTEN  =      -813.91989002 eV

  energy without entropy =     -813.91988982  energy(sigma->0) =     -813.91988992


--------------------------------------------------------------------------------------------------------




--------------------------------------- Iteration      1(  10)  ---------------------------------------


    POTLOK:  cpu time      0.4853: real time      0.5176
    SETDIJ:  cpu time      1.2143: real time      1.2181
     EDDAV:  cpu time     31.3858: real time     31.5793
       DOS:  cpu time      0.0005: real time      0.0096
    CHARGE:  cpu time      2.4285: real time      2.4428
    MIXING:  cpu time      0.0141: real time      0.0142
    --------------------------------------------
      LOOP:  cpu time     35.5285: real time     35.7816

 eigenvalue-minimisations  :  4640
 total energy-change (2. order) : 0.5314674E+00  (-0.7943681E-01)
 number of electron     368.0000001 magnetization      -0.0020274
 augmentation part        9.9193747 magnetization      -0.0019573

 Broyden mixing:
  rms(total) = 0.39631E+00    rms(broyden)= 0.39630E+00
  rms(prec ) = 0.46252E+00
  weight for this iteration     100.00

 eigenvalues of (default mixing * dielectric matrix)
  average eigenvalue GAMMA=   2.2012
  4.8430  3.1518  1.2908  1.2908  0.4294

 Free energy of the ion-electron system (eV)
  ---------------------------------------------------
  alpha Z        PSCENC =       175.06488379
  Ewald energy   TEWEN  =     36390.26848594
  -Hartree energ DENC   =    -48663.81022395
  -exchange      EXHF   =         0.00000000
  -V(xc)+E(xc)   XCENC  =      1294.55741550
  PAW double counting   =     35465.95054381   -35533.93439902
  entropy T*S    EENTRO =        -0.00000011
  eigenvalues    EBANDS =     -4287.01708482
  atomic energy  EATOM  =     14345.53195627
  Solvation  Ediel_sol  =         0.00000000
  ---------------------------------------------------
  free energy    TOTEN  =      -813.38842259 eV

  energy without entropy =     -813.38842248  energy(sigma->0) =     -813.38842254


--------------------------------------------------------------------------------------------------------




--------------------------------------- Iteration      1(  11)  ---------------------------------------


    POTLOK:  cpu time      0.4966: real time      0.5105
    SETDIJ:  cpu time      1.2243: real time      1.2319
     EDDAV:  cpu time     31.5361: real time     31.7322
       DOS:  cpu time      0.0005: real time      0.0134
    CHARGE:  cpu time      2.4948: real time      2.5091
    MIXING:  cpu time      0.0142: real time      0.0143
    --------------------------------------------
      LOOP:  cpu time     35.7665: real time     36.0114

 eigenvalue-minimisations  :  4600
 total energy-change (2. order) : 0.3827141E+00  (-0.8856487E-01)
 number of electron     368.0000001 magnetization      -0.0017159
 augmentation part        9.9228454 magnetization      -0.0015936

 Broyden mixing:
  rms(total) = 0.17275E+00    rms(broyden)= 0.17271E+00
  rms(prec ) = 0.22149E+00
  weight for this iteration     100.00

 eigenvalues of (default mixing * dielectric matrix)
  average eigenvalue GAMMA=   2.0661
  4.7436  2.9923  1.6004  1.6004  0.4314  1.0281

 Free energy of the ion-electron system (eV)
  ---------------------------------------------------
  alpha Z        PSCENC =       175.06488379
  Ewald energy   TEWEN  =     36390.26848594
  -Hartree energ DENC   =    -48602.60369678
  -exchange      EXHF   =         0.00000000
  -V(xc)+E(xc)   XCENC  =      1292.83474199
  PAW double counting   =     37055.75165555   -37123.29156623
  entropy T*S    EENTRO =        -0.00000010
  eigenvalues    EBANDS =     -4346.56216896
  atomic energy  EATOM  =     14345.53195627
  Solvation  Ediel_sol  =         0.00000000
  ---------------------------------------------------
  free energy    TOTEN  =      -813.00570852 eV

  energy without entropy =     -813.00570842  energy(sigma->0) =     -813.00570847


--------------------------------------------------------------------------------------------------------




--------------------------------------- Iteration      1(  12)  ---------------------------------------


    POTLOK:  cpu time      0.4854: real time      0.5326
    SETDIJ:  cpu time      1.2135: real time      1.2192
     EDDAV:  cpu time     30.9009: real time     31.0958
       DOS:  cpu time      0.0005: real time      0.0130
    CHARGE:  cpu time      2.5004: real time      2.5152
    MIXING:  cpu time      0.0153: real time      0.0154
    --------------------------------------------
      LOOP:  cpu time     35.1159: real time     35.3911

 eigenvalue-minimisations  :  4480
 total energy-change (2. order) : 0.5806768E-01  (-0.7492408E-02)
 number of electron     368.0000001 magnetization      -0.0011113
 augmentation part        9.9234405 magnetization      -0.0010500

 Broyden mixing:
  rms(total) = 0.14917E+00    rms(broyden)= 0.14917E+00
  rms(prec ) = 0.19192E+00
  weight for this iteration     100.00

 eigenvalues of (default mixing * dielectric matrix)
  average eigenvalue GAMMA=   2.1735
  4.6159  3.1811  3.1811  1.6713  0.4308  1.0119  1.1221

 Free energy of the ion-electron system (eV)
  ---------------------------------------------------
  alpha Z        PSCENC =       175.06488379
  Ewald energy   TEWEN  =     36390.26848594
  -Hartree energ DENC   =    -48604.11411628
  -exchange      EXHF   =         0.00000000
  -V(xc)+E(xc)   XCENC  =      1292.92182068
  PAW double counting   =     36989.90341712   -37057.44183774
  entropy T*S    EENTRO =        -0.00000009
  eigenvalues    EBANDS =     -4345.08225052
  atomic energy  EATOM  =     14345.53195627
  Solvation  Ediel_sol  =         0.00000000
  ---------------------------------------------------
  free energy    TOTEN  =      -812.94764084 eV

  energy without entropy =     -812.94764074  energy(sigma->0) =     -812.94764079


--------------------------------------------------------------------------------------------------------




--------------------------------------- Iteration      1(  13)  ---------------------------------------


    POTLOK:  cpu time      0.5001: real time      0.5233
    SETDIJ:  cpu time      1.2176: real time      1.2218
     EDDAV:  cpu time     32.8542: real time     33.0534
       DOS:  cpu time      0.0005: real time      0.0137
    CHARGE:  cpu time      2.4965: real time      2.5099
    MIXING:  cpu time      0.0164: real time      0.0165
    --------------------------------------------
      LOOP:  cpu time     37.0853: real time     37.3386

 eigenvalue-minimisations  :  4840
 total energy-change (2. order) : 0.1027041E+00  (-0.8385674E-02)
 number of electron     368.0000001 magnetization      -0.0005982
 augmentation part        9.9156033 magnetization      -0.0005852

 Broyden mixing:
  rms(total) = 0.10111E+00    rms(broyden)= 0.10111E+00
  rms(prec ) = 0.12987E+00
  weight for this iteration     100.00

 eigenvalues of (default mixing * dielectric matrix)
  average eigenvalue GAMMA=   2.2070
  4.3832  4.3832  3.6584  1.6147  0.4310  1.1164  1.0346  1.0346

[...]
   -.317E+02 -.189E+02 -.120E+01   0.322E+02 0.196E+02 0.119E+01   -.579E+00 -.631E+00 0.120E-01   -.587E-03 0.260E-03 0.208E-03
   -.201E+02 0.313E+01 -.122E+00   0.202E+02 -.314E+01 0.131E+00   -.950E-01 0.150E-01 -.798E-02   -.214E-03 -.250E-03 0.788E-04
   -.432E+01 0.363E+01 0.182E+01   0.435E+01 -.365E+01 -.182E+01   -.270E-01 0.186E-01 -.173E-03   0.673E-04 -.144E-03 0.508E-04
   0.924E+00 -.391E+01 0.205E+01   -.929E+00 0.392E+01 -.205E+01   0.154E-02 -.184E-01 -.853E-03   -.653E-04 -.217E-04 0.721E-04
   0.761E+00 -.123E+02 0.650E-01   -.801E+00 0.124E+02 -.714E-01   0.381E-01 -.110E+00 0.104E-01   -.115E-03 -.310E-03 0.168E-03
   0.248E+02 -.576E+02 -.752E+01   -.273E+02 0.568E+02 0.760E+01   0.254E+01 0.708E+00 -.797E-01   -.186E-03 -.126E-02 0.341E-03
   -.471E+02 0.520E+02 -.617E+01   0.453E+02 -.538E+02 0.616E+01   0.178E+01 0.182E+01 0.811E-02   -.853E-03 0.438E-03 0.191E-03
   -.137E+02 0.915E+01 -.101E+01   0.138E+02 -.928E+01 0.101E+01   -.118E+00 0.123E+00 -.231E-03   -.303E-03 -.662E-04 0.715E-04
   -.439E+01 -.908E+00 0.521E+00   0.441E+01 0.907E+00 -.521E+00   -.234E-01 0.151E-02 0.417E-02   -.924E-04 -.188E-03 0.652E-04
   0.688E+01 -.958E+01 -.648E+00   -.686E+01 0.959E+01 0.646E+00   -.201E-01 -.200E-02 0.724E-02   0.146E-03 -.328E-03 0.132E-03
   -.151E+02 -.529E+02 -.453E+01   0.175E+02 0.522E+02 0.452E+01   -.241E+01 0.718E+00 0.183E-01   0.112E-03 -.970E-03 0.334E-03
   -.601E+02 0.204E+02 -.548E+01   0.606E+02 -.181E+02 0.546E+01   -.570E+00 -.232E+01 0.298E-01   -.556E-03 0.267E-03 0.159E-03
   -.717E+01 0.141E+02 -.181E+01   0.719E+01 -.141E+02 0.181E+01   -.247E-01 0.324E-01 0.569E-02   -.119E-03 0.187E-03 0.580E-04
   0.386E+01 0.414E+01 -.653E+00   -.399E+01 -.422E+01 0.646E+00   0.132E+00 0.870E-01 0.111E-01   0.128E-03 -.271E-04 0.696E-04
   0.231E+02 -.869E+01 -.833E+00   -.238E+02 0.877E+01 0.804E+00   0.709E+00 -.829E-01 0.353E-01   0.440E-03 -.321E-03 0.193E-03
   0.291E+01 0.294E+02 -.298E+01   -.319E+01 -.301E+02 0.298E+01   0.280E+00 0.711E+00 0.951E-02   0.299E-04 0.181E-03 0.735E-04
   0.339E+01 0.129E+02 -.104E+00   -.341E+01 -.129E+02 0.999E-01   0.271E-01 0.931E-02 0.718E-02   -.191E-05 0.199E-03 0.484E-04
   0.110E+02 -.208E+01 0.127E+01   -.110E+02 0.206E+01 -.128E+01   0.113E-01 0.180E-01 0.123E-01   0.332E-03 -.156E-03 0.901E-04
   0.239E+02 -.169E+02 0.337E+00   -.243E+02 0.175E+02 -.371E+00   0.478E+00 -.603E+00 0.404E-01   0.696E-03 0.465E-04 0.178E-03
   0.439E+02 0.404E+02 -.743E+01   -.422E+02 -.419E+02 0.737E+01   -.166E+01 0.155E+01 0.724E-01   0.146E-02 0.220E-03 0.208E-03
   0.678E+02 0.333E+02 -.105E+02   -.654E+02 -.320E+02 0.105E+02   -.237E+01 -.137E+01 0.929E-01   0.966E-03 0.121E-02 0.344E-03
   0.647E+02 0.217E+02 -.613E+01   -.653E+02 -.195E+02 0.609E+01   0.555E+00 -.222E+01 0.410E-01   0.654E-03 0.638E-03 0.243E-03
   -.100E+01 0.333E+02 -.232E+01   0.128E+01 -.340E+02 0.232E+01   -.272E+00 0.730E+00 0.103E-01   0.253E-03 0.345E-03 0.989E-04
   0.109E+01 0.770E+01 0.108E+01   -.105E+01 -.786E+01 -.109E+01   -.377E-01 0.160E+00 0.987E-02   0.177E-03 -.269E-04 0.531E-04
   0.333E+00 0.688E+00 0.229E+01   -.310E+00 -.674E+00 -.231E+01   -.233E-01 -.154E-01 0.137E-01   0.133E-03 0.122E-03 0.592E-04
   0.541E+01 -.301E+01 0.260E+01   -.552E+01 0.312E+01 -.261E+01   0.112E+00 -.119E+00 0.125E-01   0.149E-03 0.173E-03 0.114E-03
   0.164E+02 0.516E+00 0.279E+01   -.165E+02 -.505E+00 -.282E+01   0.829E-01 -.130E-01 0.275E-01   0.285E-03 -.211E-03 0.219E-03
   0.164E+02 0.853E+01 0.144E+01   -.164E+02 -.871E+01 -.142E+01   0.123E-01 0.178E+00 -.899E-02   0.320E-03 0.160E-03 0.243E-03
   0.179E+02 0.927E+01 0.363E+00   -.180E+02 -.919E+01 -.368E+00   0.154E+00 -.739E-01 0.986E-02   0.129E-03 0.156E-03 0.187E-03
   0.109E+02 0.156E+02 -.557E+00   -.110E+02 -.157E+02 0.555E+00   0.446E-01 0.773E-01 0.648E-02   -.180E-03 0.213E-03 0.980E-04
   0.239E+01 -.217E+03 -.141E+02   -.199E+01 0.251E+03 0.143E+02   -.408E+00 -.341E+02 -.183E+00   0.234E-03 -.231E-02 0.732E-03
   -.205E+03 0.121E+03 -.129E+02   0.236E+03 -.138E+03 0.134E+02   -.306E+02 0.172E+02 -.493E+00   -.106E-02 0.881E-03 0.369E-03
   0.213E+03 0.862E+02 -.312E+02   -.243E+03 -.102E+03 0.325E+02   0.306E+02 0.154E+02 -.126E+01   0.318E-02 0.939E-03 0.716E-03
   0.201E+03 0.140E+03 -.190E+02   -.230E+03 -.158E+03 0.195E+02   0.284E+02 0.187E+02 -.525E+00   0.127E-02 0.223E-02 0.656E-03
   -.178E+03 -.143E+03 -.397E+02   0.207E+03 0.162E+03 0.414E+02   -.288E+02 -.191E+02 -.171E+01   -.255E-02 -.270E-02 0.876E-03
   -.223E+03 -.104E+03 -.301E+02   0.255E+03 0.120E+03 0.313E+02   -.315E+02 -.158E+02 -.118E+01   -.313E-02 0.678E-04 0.851E-03
   0.187E+03 -.113E+03 -.178E+02   -.217E+03 0.130E+03 0.184E+02   0.302E+02 -.170E+02 -.578E+00   0.189E-02 -.105E-02 0.575E-03
   -.198E+01 0.238E+03 -.110E+02   0.150E+01 -.273E+03 0.113E+02   0.487E+00 0.350E+02 -.311E+00   -.547E-04 0.118E-02 0.328E-03
   -.102E+02 0.489E+02 -.255E+02   0.114E+02 -.559E+02 0.300E+02   -.118E+01 0.693E+01 -.447E+01   0.464E-03 -.259E-02 0.159E-02
   -.143E+02 -.598E+02 -.241E+02   0.176E+02 0.662E+02 0.284E+02   -.319E+01 -.642E+01 -.429E+01   0.120E-02 0.235E-02 0.155E-02
   0.441E+02 -.497E+02 0.256E+03   -.656E+02 0.520E+02 -.297E+03   0.215E+02 -.225E+01 0.408E+02   -.514E-03 -.589E-03 -.248E-02
 -----------------------------------------------------------------------------------------------
   -.147E+02 0.141E+01 -.270E+02   -.412E-12 0.199E-12 0.000E+00   0.147E+02 -.147E+01 0.272E+02   0.679E-03 -.503E-02 0.175E-01
 
 
 POSITION                                       TOTAL-FORCE (eV/Angst)
 -----------------------------------------------------------------------------------
     17.26432      0.00223      7.51745         0.000696     -0.000957      0.002881
     16.02223      2.13170      7.51421        -0.000983      0.002301      0.001984
     14.78382      4.27076      7.51236        -0.000731      0.003122     -0.000106
     13.55159      6.41270      7.51080        -0.001270      0.003942     -0.000600
     12.32953      8.55272      7.50859        -0.000230      0.002130     -0.000525
     -6.15331     10.69687      7.50827         0.007140     -0.005701      0.001171
     -7.39039     12.83913      7.51164         0.003769     -0.003300      0.002887
      2.47206      0.02966      7.51216         0.002326     -0.000262      0.002315
      1.22877      2.16164      7.51657         0.001697      0.000811      0.002628
     -0.01717      4.27412      7.52445        -0.000166      0.007523      0.001228
     -1.24848      6.40857      7.52901        -0.001013      0.002678     -0.000808
     -2.45323      8.54373      7.52627        -0.002646      0.001397     -0.001620
     -3.67947     10.68586      7.51632        -0.000861     -0.000561     -0.000966
     -4.92123     12.83644      7.50989         0.002602     -0.002053      0.000714
      4.93904      0.02219      7.51846         0.000843     -0.001018      0.001567
      3.69954      2.18785      7.52788         0.001522      0.000484      0.003023
      2.44162      4.38999      7.55915         0.001359      0.002983      0.000873
      1.21820      6.40975      7.58199        -0.000513      0.001042      0.000463
      0.08624      8.47878      7.57158        -0.001009      0.000176     -0.000230
     -1.19642     10.67052      7.54264        -0.003639      0.000153     -0.000474
     -2.45313     12.82670      7.52517        -0.002925     -0.001491      0.000112
      7.40684      0.01267      7.53243        -0.001016     -0.002016      0.001515
      6.15680      2.17941      7.52995        -0.001440     -0.001261      0.004100
      0.02278     12.80434      7.54888        -0.001150      0.000673      0.000484
      1.23277     14.95093      7.54277        -0.002693     -0.005826      0.001674
      8.62089      2.15396      7.53040        -0.004966     -0.004876      0.003070
      7.38472      4.36308      7.53777        -0.002151     -0.000271      0.007147
      2.52800     12.77541      7.56286        -0.003145      0.000544      0.001960
      3.69631     14.93392      7.54068        -0.010954     -0.005275      0.000940
     11.08928      2.13858      7.52568        -0.006010     -0.006768      0.001173
      9.83864      4.29514      7.52169        -0.004249      0.001716      0.004243
      8.54578      6.40421      7.54091        -0.000670      0.000465      0.007723
      4.87574     12.75959      7.55568        -0.004030     -0.001869      0.002113
      6.15594     14.93773      7.53025        -0.003154     -0.002033      0.001644
     13.55254      2.12840      7.51933        -0.003731     -0.001241      0.000448
     12.31307      4.27599      7.51194        -0.002437      0.002345      0.000346
     11.07276      6.42248      7.51037        -0.000847      0.003474      0.001808
      9.84298      8.56382      7.51716         0.001270     -0.000192      0.003152
      8.65351     10.70282      7.52732         0.001937     -0.003654      0.003333
      7.39516     12.80092      7.53514        -0.000520     -0.002212      0.002659
     -0.00487      1.43252      7.51385        -0.001973     -0.000673      0.002440
     -1.25419      3.55506      7.51424        -0.001703     -0.003837      0.000496
     -2.48988      5.69635      7.51514         0.000524     -0.003390     -0.001003
     -3.70168      7.83963      7.51328         0.001794     -0.003553     -0.001645
     -4.92402      9.97992      7.50928        -0.004356      0.001602     -0.000509
     -6.15706     12.12276      7.50829        -0.005485      0.004368      0.001175
     -7.39690     14.26169      7.51221        -0.003778      0.001698      0.002624
      2.46928      1.45635      7.51820        -0.005468     -0.000447      0.003217
      1.22867      3.59038      7.52726        -0.002276     -0.004168      0.000691
     -0.02417      5.69237      7.53810        -0.001693     -0.005844      0.000292
     -1.21545      7.82927      7.53978        -0.000113     -0.001668     -0.001307
     -2.44489      9.97067      7.52844         0.001762     -0.000465     -0.001490
     -3.68581     12.11766      7.51577        -0.001323      0.002534     -0.000335
     -4.92649     14.26553      7.51221        -0.003666      0.001675      0.001557
      4.92928      1.46172      7.52422        -0.001339      0.001580      0.001876
      3.74832      3.63423      7.54564        -0.002324      0.000111      0.001968
      0.08248      9.99070      7.56479         0.000072     -0.000227     -0.000188
     -1.21158     12.09874      7.53883         0.000619     -0.000163     -0.000534
     -2.46340     14.25629      7.52481        -0.001124      0.001460      0.001941
      7.39255      1.44513      7.53052         0.001315      0.003700      0.003269
      6.09847      3.62142      7.53655         0.000123      0.001158      0.005760
      1.24179     12.03243      7.56388        -0.000385     -0.001346      0.001068
      0.00467     14.24151      7.54187        -0.000289      0.001678      0.000893
      9.85440      1.42581      7.53266         0.003112      0.006554      0.001630
      8.60386      3.59085      7.52837         0.001713      0.002120      0.004683
      2.46861     14.21734      7.54934         0.005076      0.004259      0.000853
     12.32230      1.41540      7.52828         0.003547      0.004528      0.000720
     11.08009      3.56749      7.51809         0.001863      0.001770      0.001547
      9.82386      5.72327      7.52064        -0.000173     -0.002668      0.004138
      8.54306      7.91266      7.54511        -0.000914     -0.000526      0.007005
      7.41321      9.98603      7.55522         0.000364      0.001258      0.004907
      6.18073     12.00009      7.55261        -0.000080      0.002374      0.001545
      4.92577     14.20676      7.54241         0.004877      0.001320      0.002290
     14.78858      1.40734      7.52017        -0.000211      0.000223      0.001075
     13.54808      3.55731      7.51244        -0.000489     -0.001508      0.000106
     12.30706      5.70669      7.50872        -0.000695     -0.004480      0.000065
     11.08080      7.84900      7.50864        -0.002408     -0.003733      0.001469
      9.87663      9.98517      7.51553        -0.004559      0.001821      0.002479
      8.64333     12.12034      7.52292        -0.001973      0.003260      0.002938
      7.39490     14.23029      7.52737        -0.000417      0.001393      0.002408
      4.92143      4.29214      7.54434        -0.001558      0.000341      0.004949
      1.23519     10.67972      7.57566        -0.000578      0.001193      0.000944
      7.39696      8.61242      7.57604         0.000147      0.000504      0.007765
      6.21297     10.65663      7.56451        -0.000274     -0.001628      0.003529
      2.41380      5.72949      7.60740        -0.000824     -0.001796      0.000807
      1.23197      7.78318      7.60622        -0.000804      0.000432      0.001109
      7.39101      5.71604      7.55157        -0.000500     -0.000271      0.009298
      3.70284     12.10491      7.56679         0.003261      0.000316      0.002227
      4.70739      6.85297      6.99605        -0.019123     -0.011028      0.038300
      4.93272      8.37813      6.97231         0.070116      0.010441      0.039926
      4.55384      7.64763      6.45336         0.016573      0.002627     -0.237017
 -----------------------------------------------------------------------------------
    total drift:                               -0.003935     -0.059353      0.214783


--------------------------------------------------------------------------------------------------------



  FREE ENERGIE OF THE ION-ELECTRON SYSTEM (eV)
  ---------------------------------------------------
  free  energy   TOTEN  =      -820.13644263 eV

  energy  without entropy=     -820.13550972  energy(sigma->0) =     -820.13597618
 


--------------------------------------------------------------------------------------------------------


    POTLOK:  cpu time      1.7072: real time      1.7761


--------------------------------------------------------------------------------------------------------


 NEB: the previous image is higher in energy: F
 NEB: the next image is higher in energy    : F
 NEB: image is at an extrema
 NEB: diff energy (min, max):     0.041976  820.136443

 NEB: Tangent
 ----------------------------------------------
      0.00319      0.00122     -0.02297
      0.00449      0.00226     -0.01120
      0.00409      0.00086     -0.00196
      0.00355      0.00056     -0.00389
      0.00206      0.00036     -0.00908
      0.00189      0.00083     -0.01430
      0.00225     -0.00032     -0.02006
      0.00358     -0.00039     -0.01624
      0.00501      0.00154     -0.01624
      0.00497      0.00136     -0.00504
      0.00432      0.00089      0.00481
      0.00318      0.00093      0.00444
      0.00210      0.00105     -0.00194
      0.00254      0.00014     -0.00914
      0.00221      0.00005     -0.00994
      0.00377      0.00042     -0.01675
      0.00572      0.00282     -0.01356
      0.00413      0.00071     -0.00742
      0.00305      0.00238     -0.00057
      0.00185      0.00070      0.00566
      0.00179      0.00011     -0.00101
      0.00156     -0.00027     -0.00791
      0.00187     -0.00010     -0.01940
      0.00154     -0.00001     -0.00248
      0.00230     -0.00016     -0.01028
      0.00167      0.00039     -0.01535
      0.00185      0.00071     -0.03085
      0.00203      0.00021     -0.00955
      0.00250     -0.00019     -0.00955
      0.00217      0.00024     -0.01186
      0.00159      0.00104     -0.01878
      0.00142      0.00144     -0.02761
      0.00203      0.00036     -0.00945
      0.00229      0.00129     -0.01322
      0.00351      0.00098     -0.00708
      0.00303      0.00074     -0.01119
      0.00183      0.00034     -0.01400
      0.00093      0.00137     -0.01772
     -0.00127     -0.00071     -0.02182
      0.00204      0.00092     -0.02149
      0.00443      0.00208     -0.01686
      0.00456      0.00156     -0.00523
      0.00396      0.00087      0.00094
      0.00298      0.00068     -0.00236
      0.00226      0.00064     -0.00821
      0.00288      0.00077     -0.01433
      0.00288      0.00008     -0.02050
      0.00375     -0.00019     -0.01681
      0.00499      0.00210     -0.01199
      0.00455      0.00144      0.00062
      0.00357      0.00077      0.00656
      0.00206      0.00101      0.00355
      0.00200      0.00022     -0.00328
      0.00268      0.00006     -0.01125
      0.00256     -0.00071     -0.01502
      0.00461      0.00109     -0.01793
      0.00190      0.00107      0.00215
      0.00150      0.00061      0.00251
      0.00179     -0.00009     -0.00567
      0.00159     -0.00012     -0.01427
      0.00217      0.00005     -0.02598
      0.00203      0.00078     -0.00440
      0.00183     -0.00024     -0.00656
      0.00162     -0.00003     -0.01227
      0.00129      0.00068     -0.02104
      0.00209     -0.00035     -0.01022
      0.00295      0.00042     -0.00870
      0.00236      0.00050     -0.01480
      0.00122      0.00103     -0.01836
      0.00023      0.00231     -0.02286
     -0.00327     -0.00127     -0.01659
      0.00247      0.00055     -0.01204
      0.00246      0.00014     -0.01004
      0.00422      0.00135     -0.01025
      0.00367      0.00113     -0.00614
      0.00263      0.00132     -0.01126
      0.00104      0.00054     -0.01349
      0.00055      0.00096     -0.01900
      0.00118      0.00025     -0.02275
      0.00238      0.00116     -0.02036
      0.00390      0.00061     -0.02225
      0.00265      0.00057     -0.00322
     -0.00123     -0.00224     -0.02017
     -0.00086      0.00204     -0.00429
      0.00526      0.00411     -0.01571
      0.00510      0.00226     -0.01258
      0.00136      0.00128     -0.04055
      0.00216     -0.00007     -0.00858
      0.17577      0.23468     -0.32707
     -0.70771     -0.01257     -0.35042
     -0.03852      0.08807     -0.39378

 NEB: forces: par spring, perp REAL, dneb     0.011063    0.058971    0.000000
 NEB: distance to prev, next image, angle between     1.326772    1.328985  129.455907
 NEB: projections on to tangent (spring, REAL)     0.011063   -0.086047

 stress matrix after NEB project (eV)
    -30.39334     10.02603     -0.03341
     10.02603    -41.73222      0.02501
     -0.03341      0.02501     -0.48102
  FORCES: max atom, RMS     0.017019    0.004847
  FORCE total and by dimension    0.046234    0.012832
  Stress total and by dimension   53.540741   41.732225
 OPT: skip step - force has converged


--------------------------------------------------------------------------------------------------------


  
 reached required accuracy - stopping structural energy minimisation
     LOOP+:  cpu time   1679.6360: real time   1689.2523
    4ORBIT:  cpu time      0.0000: real time      0.0000

 total amount of memory used by VASP MPI-rank0   344404. kBytes
=======================================================================

   base      :      30000. kBytes
   nonlr-proj:       8812. kBytes
   fftplans  :      49947. kBytes
   grid      :      93499. kBytes
   one-center:        559. kBytes
   wavefun   :     161587. kBytes
 
  
  
 General timing and accounting informations for this job:
 ========================================================
  
                  Total CPU time used (sec):     1698.139
                            User time (sec):     1650.064
                          System time (sec):       48.076
                         Elapsed time (sec):     1709.922
  
                   Maximum memory used (kb):      636572.
                   Average memory used (kb):          N/A
  
                          Minor page faults:        57125
                          Major page faults:            2
                 Voluntary context switches:         2070
