unknown system                          
           1
    17.271038    0.000000    0.000000
    -8.635519   14.957158    0.000000
     0.000000    0.000000   15.000000
   C    N    H    O 
    80     8     2     1
Direct configuration=     1
   0.99968559  0.00014927  0.50116305
   0.99895366  0.14252065  0.50094745
   0.99875534  0.28553284  0.50082367
   0.99901140  0.42873798  0.50071973
   0.99979181  0.57181421  0.50057297
   0.00130471  0.71516762  0.50055144
   0.00129053  0.85839403  0.50077597
   0.14412450  0.00198276  0.50081065
   0.14340744  0.14452217  0.50110444
   0.14188432  0.28575738  0.50163005
   0.14194307  0.42846146  0.50193403
   0.14356399  0.57121340  0.50175125
   0.14417259  0.71443117  0.50108791
   0.14416545  0.85821354  0.50065926
   0.28671412  0.00148387  0.50123081
   0.28734225  0.14627435  0.50185870
   0.28812280  0.29350449  0.50394310
   0.28480455  0.42854059  0.50546611
   0.28842866  0.56687082  0.50477179
   0.28742936  0.71340537  0.50284260
   0.28674406  0.85756290  0.50167770
   0.42928251  0.00084696  0.50216210
   0.42933635  0.14571038  0.50199666
   0.42935271  0.85606799  0.50325865
   0.57116956  0.99958351  0.50285157
   0.57115731  0.14400861  0.50202683
   0.57343101  0.29170530  0.50251796
   0.57343878  0.85413331  0.50419071
   0.71324087  0.99844641  0.50271194
   0.71356383  0.14298041  0.50171183
   0.71324253  0.28716294  0.50144590
   0.70888919  0.42817006  0.50272749
   0.70884533  0.85307582  0.50371215
   0.85578208  0.99870120  0.50201651
   0.85584710  0.14229974  0.50128847
   0.85587306  0.28588244  0.50079633
   0.85581311  0.42939151  0.50069167
   0.85619105  0.57255686  0.50114400
   0.85882396  0.71556501  0.50182114
   0.85610239  0.85583904  0.50234267
   0.04760535  0.09577479  0.50092365
   0.04622329  0.23768293  0.50094944
   0.04625726  0.38084427  0.50100947
   0.04774068  0.52413898  0.50088553
   0.04851426  0.66723358  0.50061844
   0.04875344  0.81049900  0.50055251
   0.04846775  0.95350295  0.50081428
   0.19165643  0.09736799  0.50121318
   0.19116260  0.24004398  0.50181746
   0.18888999  0.38057862  0.50253967
   0.19134782  0.52344626  0.50265190
   0.19174733  0.66661522  0.50189633
   0.19166936  0.81015814  0.50105151
   0.19163398  0.95375959  0.50081372
   0.33427093  0.09772698  0.50161446
   0.33851749  0.24297625  0.50304291
   0.33875255  0.66795421  0.50431914
   0.33429572  0.80889282  0.50258854
   0.33393880  0.95314181  0.50165373
   0.47634072  0.09661824  0.50203485
   0.47416347  0.24211970  0.50243694
   0.47412991  0.80445939  0.50425851
   0.47634709  0.95215335  0.50279118
   0.61823665  0.09532609  0.50217750
   0.61820487  0.24007591  0.50189107
   0.61820243  0.95053761  0.50328963
   0.76078117  0.09463032  0.50188552
   0.76079825  0.23851368  0.50120611
   0.76012738  0.38264433  0.50137571
   0.75915744  0.52902155  0.50300721
   0.76304929  0.66764240  0.50368103
   0.75901568  0.80229756  0.50350715
   0.76011931  0.94983048  0.50282732
   0.90331030  0.09409116  0.50134446
   0.90335585  0.23783334  0.50082913
   0.90335135  0.38153572  0.50058129
   0.90396572  0.52476569  0.50057577
   0.90565322  0.66758470  0.50103560
   0.90562070  0.81033735  0.50152806
   0.90386928  0.95140317  0.50182487
   0.42843370  0.28696243  0.50295596
   0.42852810  0.71402048  0.50504416
   0.71618976  0.57580577  0.50506921
   0.71597190  0.71247704  0.50430091
   0.33128991  0.38306015  0.50715975
   0.33151421  0.52036522  0.50708149
   0.61902306  0.38216103  0.50343791
   0.61904888  0.80930560  0.50445262
   0.50164602  0.45817300  0.46640354
   0.56567761  0.56014183  0.46482051
   0.51932025  0.51130265  0.43022406
