  95  95   0   0
  0.4078826E+02  0.1727104E-08  0.1727104E-08  0.1500000E-08  0.0000000E+00
  1.000000000000000E-004
  CAR 
 unknown system                          
      5.96358644    -30.93832873  301     -2.69062431      1.00000000
    -30.938  0.0000E+00  0.0000E+00  0.0000E+00  0.0000E+00
    -30.815  0.0000E+00  0.0000E+00  0.0000E+00  0.0000E+00
    -30.692  0.0000E+00  0.0000E+00  0.0000E+00  0.0000E+00
    -30.569  0.0000E+00  0.0000E+00  0.0000E+00  0.0000E+00
    -30.446  0.0000E+00  0.0000E+00  0.0000E+00  0.0000E+00
    -30.323  0.0000E+00  0.0000E+00  0.0000E+00  0.0000E+00
    -30.200  0.0000E+00  0.0000E+00  0.0000E+00  0.0000E+00
    -30.077  0.0000E+00  0.0000E+00  0.0000E+00  0.0000E+00
    -29.954  0.0000E+00  0.0000E+00  0.0000E+00  0.0000E+00
    -29.831  0.0000E+00  0.0000E+00  0.0000E+00  0.0000E+00
    -29.708  0.0000E+00  0.0000E+00  0.0000E+00  0.0000E+00
    -29.585  0.0000E+00  0.0000E+00  0.0000E+00  0.0000E+00
    -29.462  0.5278E-10  0.5278E-10  0.6492E-11  0.6492E-11
    -29.339  0.1452E-03  0.1452E-03  0.1785E-04  0.1785E-04
    -29.216  0.1912E-01  0.1912E-01  0.2370E-02  0.2370E-02
    -29.093  0.1187E-01  0.1187E-01  0.3830E-02  0.3830E-02
    -28.970  0.1384E-02  0.1384E-02  0.4000E-02  0.4000E-02
    -28.847  0.3782E-07  0.3782E-07  0.4000E-02  0.4000E-02
    -28.724  0.0000E+00  0.0000E+00  0.4000E-02  0.4000E-02
    -28.601  0.0000E+00  0.0000E+00  0.4000E-02  0.4000E-02
    -28.478  0.0000E+00  0.0000E+00  0.4000E-02  0.4000E-02
    -28.355  0.0000E+00  0.0000E+00  0.4000E-02  0.4000E-02
    -28.232  0.0000E+00  0.0000E+00  0.4000E-02  0.4000E-02
    -28.109  0.0000E+00  0.0000E+00  0.4000E-02  0.4000E-02
    -27.986  0.0000E+00  0.0000E+00  0.4000E-02  0.4000E-02
    -27.863  0.0000E+00  0.0000E+00  0.4000E-02  0.4000E-02
    -27.740  0.0000E+00  0.0000E+00  0.4000E-02  0.4000E-02
    -27.617  0.0000E+00  0.0000E+00  0.4000E-02  0.4000E-02
    -27.494  0.0000E+00  0.0000E+00  0.4000E-02  0.4000E-02
    -27.371  0.0000E+00  0.0000E+00  0.4000E-02  0.4000E-02
    -27.248  0.0000E+00  0.0000E+00  0.4000E-02  0.4000E-02
    -27.125  0.0000E+00  0.0000E+00  0.4000E-02  0.4000E-02
    -27.002  0.0000E+00  0.0000E+00  0.4000E-02  0.4000E-02
    -26.879  0.0000E+00  0.0000E+00  0.4000E-02  0.4000E-02
    -26.756  0.0000E+00  0.0000E+00  0.4000E-02  0.4000E-02
    -26.633  0.0000E+00  0.0000E+00  0.4000E-02  0.4000E-02
    -26.510  0.0000E+00  0.0000E+00  0.4000E-02  0.4000E-02
    -26.387  0.0000E+00  0.0000E+00  0.4000E-02  0.4000E-02
    -26.264  0.0000E+00  0.0000E+00  0.4000E-02  0.4000E-02
    -26.141  0.0000E+00  0.0000E+00  0.4000E-02  0.4000E-02
    -26.018  0.0000E+00  0.0000E+00  0.4000E-02  0.4000E-02
    -25.895  0.0000E+00  0.0000E+00  0.4000E-02  0.4000E-02
    -25.772  0.0000E+00  0.0000E+00  0.4000E-02  0.4000E-02
    -25.649  0.0000E+00  0.0000E+00  0.4000E-02  0.4000E-02
    -25.526  0.0000E+00  0.0000E+00  0.4000E-02  0.4000E-02
    -25.403  0.0000E+00  0.0000E+00  0.4000E-02  0.4000E-02
    -25.280  0.0000E+00  0.0000E+00  0.4000E-02  0.4000E-02
    -25.157  0.0000E+00  0.0000E+00  0.4000E-02  0.4000E-02
    -25.034  0.0000E+00  0.0000E+00  0.4000E-02  0.4000E-02
    -24.911  0.0000E+00  0.0000E+00  0.4000E-02  0.4000E-02
    -24.788  0.0000E+00  0.0000E+00  0.4000E-02  0.4000E-02
    -24.665  0.0000E+00  0.0000E+00  0.4000E-02  0.4000E-02
    -24.542  0.0000E+00  0.0000E+00  0.4000E-02  0.4000E-02
    -24.419  0.0000E+00  0.0000E+00  0.4000E-02  0.4000E-02
    -24.296  0.0000E+00  0.0000E+00  0.4000E-02  0.4000E-02
    -24.173  0.0000E+00  0.0000E+00  0.4000E-02  0.4000E-02
    -24.050  0.0000E+00  0.0000E+00  0.4000E-02  0.4000E-02
    -23.927  0.0000E+00  0.0000E+00  0.4000E-02  0.4000E-02
    -23.804  0.0000E+00  0.0000E+00  0.4000E-02  0.4000E-02
    -23.681  0.0000E+00  0.0000E+00  0.4000E-02  0.4000E-02
    -23.558  0.0000E+00  0.0000E+00  0.4000E-02  0.4000E-02
    -23.435  0.0000E+00  0.0000E+00  0.4000E-02  0.4000E-02
    -23.312  0.0000E+00  0.0000E+00  0.4000E-02  0.4000E-02
    -23.189  0.0000E+00  0.0000E+00  0.4000E-02  0.4000E-02
    -23.066  0.0000E+00  0.0000E+00  0.4000E-02  0.4000E-02
    -22.943  0.0000E+00  0.0000E+00  0.4000E-02  0.4000E-02
    -22.820  0.0000E+00  0.0000E+00  0.4000E-02  0.4000E-02
    -22.697  0.1692E-17  0.1692E-17  0.4000E-02  0.4000E-02
    -22.574  0.8499E-08  0.8499E-08  0.4000E-02  0.4000E-02
    -22.451  0.6639E-03  0.6639E-03  0.4082E-02  0.4082E-02
    -22.328  0.1908E-01  0.1908E-01  0.6429E-02  0.6429E-02
    -22.205  0.1269E-01  0.1269E-01  0.7991E-02  0.7991E-02
    -22.082  0.7676E-04  0.7676E-04  0.8000E-02  0.8000E-02
    -21.959  0.6776E-03  0.6776E-03  0.8083E-02  0.8083E-02
    -21.836  0.7310E-02  0.7310E-02  0.8982E-02  0.8982E-02
    -21.713  0.5367E-02  0.5367E-02  0.9643E-02  0.9643E-02
    -21.590  0.1050E-01  0.1050E-01  0.1093E-01  0.1093E-01
    -21.467  0.5024E-02  0.5024E-02  0.1155E-01  0.1155E-01
    -21.344  0.3380E-02  0.3380E-02  0.1197E-01  0.1197E-01
    -21.221  0.4947E-02  0.4947E-02  0.1258E-01  0.1258E-01
    -21.098  0.6888E-02  0.6888E-02  0.1342E-01  0.1342E-01
    -20.975  0.5555E-02  0.5555E-02  0.1411E-01  0.1411E-01
    -20.852  0.6370E-02  0.6370E-02  0.1489E-01  0.1489E-01
    -20.729  0.8523E-02  0.8523E-02  0.1594E-01  0.1594E-01
    -20.606  0.4946E-02  0.4946E-02  0.1655E-01  0.1655E-01
    -20.483  0.7297E-02  0.7297E-02  0.1745E-01  0.1745E-01
    -20.360  0.8349E-02  0.8349E-02  0.1847E-01  0.1847E-01
    -20.237  0.6726E-02  0.6726E-02  0.1930E-01  0.1930E-01
    -20.114  0.1634E-02  0.1634E-02  0.1950E-01  0.1950E-01
    -19.991  0.6500E-02  0.6500E-02  0.2030E-01  0.2030E-01
    -19.868  0.7639E-02  0.7639E-02  0.2124E-01  0.2124E-01
    -19.745  0.5144E-02  0.5144E-02  0.2187E-01  0.2187E-01
    -19.622  0.1167E-01  0.1167E-01  0.2331E-01  0.2331E-01
    -19.499  0.9488E-02  0.9488E-02  0.2448E-01  0.2448E-01
    -19.376  0.6340E-02  0.6340E-02  0.2525E-01  0.2525E-01
    -19.253  0.2526E-02  0.2526E-02  0.2557E-01  0.2557E-01
    -19.130  0.7002E-02  0.7002E-02  0.2643E-01  0.2643E-01
    -19.007  0.3576E-02  0.3576E-02  0.2687E-01  0.2687E-01
    -18.884  0.3073E-02  0.3073E-02  0.2724E-01  0.2724E-01
    -18.761  0.1525E-01  0.1525E-01  0.2912E-01  0.2912E-01
    -18.638  0.1264E-01  0.1264E-01  0.3068E-01  0.3068E-01
    -18.515  0.2671E-02  0.2671E-02  0.3100E-01  0.3100E-01
    -18.392  0.7551E-02  0.7551E-02  0.3193E-01  0.3193E-01
    -18.269  0.7734E-02  0.7734E-02  0.3288E-01  0.3288E-01
    -18.146  0.3222E-02  0.3222E-02  0.3328E-01  0.3328E-01
    -18.023  0.5591E-02  0.5591E-02  0.3397E-01  0.3397E-01
    -17.900  0.7240E-02  0.7240E-02  0.3486E-01  0.3486E-01
    -17.777  0.6469E-02  0.6469E-02  0.3565E-01  0.3565E-01
    -17.654  0.1175E-01  0.1175E-01  0.3710E-01  0.3710E-01
    -17.531  0.1294E-01  0.1294E-01  0.3869E-01  0.3869E-01
    -17.408  0.1026E-01  0.1026E-01  0.3995E-01  0.3995E-01
    -17.285  0.6443E-02  0.6443E-02  0.4075E-01  0.4075E-01
    -17.162  0.6256E-02  0.6256E-02  0.4152E-01  0.4152E-01
    -17.039  0.5644E-02  0.5644E-02  0.4221E-01  0.4221E-01
    -16.916  0.5038E-02  0.5038E-02  0.4283E-01  0.4283E-01
    -16.793  0.5923E-02  0.5923E-02  0.4356E-01  0.4356E-01
    -16.670  0.9366E-02  0.9366E-02  0.4471E-01  0.4471E-01
    -16.547  0.1939E-01  0.1939E-01  0.4710E-01  0.4710E-01
    -16.424  0.5123E-02  0.5123E-02  0.4773E-01  0.4773E-01
    -16.301  0.2229E-02  0.2229E-02  0.4800E-01  0.4800E-01
    -16.178  0.1946E-05  0.1946E-05  0.4800E-01  0.4800E-01
    -16.055  0.2589E-03  0.2589E-03  0.4803E-01  0.4803E-01
    -15.932  0.3257E-02  0.3257E-02  0.4843E-01  0.4843E-01
    -15.809  0.6434E-02  0.6434E-02  0.4922E-01  0.4922E-01
    -15.686  0.4089E-02  0.4089E-02  0.4973E-01  0.4973E-01
    -15.563  0.8120E-02  0.8120E-02  0.5073E-01  0.5073E-01
    -15.440  0.5880E-02  0.5880E-02  0.5145E-01  0.5145E-01
    -15.317  0.9476E-02  0.9476E-02  0.5261E-01  0.5261E-01
    -15.194  0.1351E-01  0.1351E-01  0.5428E-01  0.5428E-01
    -15.071  0.5769E-02  0.5769E-02  0.5499E-01  0.5499E-01
    -14.947  0.5665E-02  0.5665E-02  0.5568E-01  0.5568E-01
    -14.824  0.1121E-01  0.1121E-01  0.5706E-01  0.5706E-01
    -14.701  0.7902E-02  0.7902E-02  0.5803E-01  0.5803E-01
    -14.578  0.1048E-01  0.1048E-01  0.5932E-01  0.5932E-01
    -14.455  0.1454E-01  0.1454E-01  0.6111E-01  0.6111E-01
    -14.332  0.5097E-02  0.5097E-02  0.6174E-01  0.6174E-01
    -14.209  0.6194E-02  0.6194E-02  0.6250E-01  0.6250E-01
    -14.086  0.2731E-02  0.2731E-02  0.6284E-01  0.6284E-01
    -13.963  0.5090E-02  0.5090E-02  0.6346E-01  0.6346E-01
    -13.840  0.8356E-02  0.8356E-02  0.6449E-01  0.6449E-01
    -13.717  0.1183E-01  0.1183E-01  0.6595E-01  0.6595E-01
    -13.594  0.9180E-02  0.9180E-02  0.6708E-01  0.6708E-01
    -13.471  0.7129E-02  0.7129E-02  0.6795E-01  0.6795E-01
    -13.348  0.4172E-02  0.4172E-02  0.6847E-01  0.6847E-01
    -13.225  0.2780E-02  0.2780E-02  0.6881E-01  0.6881E-01
    -13.102  0.5622E-02  0.5622E-02  0.6950E-01  0.6950E-01
    -12.979  0.6234E-02  0.6234E-02  0.7027E-01  0.7027E-01
    -12.856  0.9291E-02  0.9291E-02  0.7141E-01  0.7141E-01
    -12.733  0.1903E-01  0.1903E-01  0.7375E-01  0.7375E-01
    -12.610  0.6581E-02  0.6581E-02  0.7456E-01  0.7456E-01
    -12.487  0.9319E-02  0.9319E-02  0.7571E-01  0.7571E-01
    -12.364  0.8809E-02  0.8809E-02  0.7679E-01  0.7679E-01
    -12.241  0.7698E-02  0.7698E-02  0.7774E-01  0.7774E-01
    -12.118  0.2902E-02  0.2902E-02  0.7809E-01  0.7809E-01
    -11.995  0.1009E-01  0.1009E-01  0.7934E-01  0.7934E-01
    -11.872  0.9583E-02  0.9583E-02  0.8051E-01  0.8051E-01
    -11.749  0.1289E-01  0.1289E-01  0.8210E-01  0.8210E-01
    -11.626  0.1108E-01  0.1108E-01  0.8346E-01  0.8346E-01
    -11.503  0.1354E-01  0.1354E-01  0.8513E-01  0.8513E-01
    -11.380  0.9644E-02  0.9644E-02  0.8631E-01  0.8631E-01
    -11.257  0.1178E-01  0.1178E-01  0.8776E-01  0.8776E-01
    -11.134  0.1060E-01  0.1060E-01  0.8907E-01  0.8907E-01
    -11.011  0.9784E-02  0.9784E-02  0.9027E-01  0.9027E-01
    -10.888  0.7512E-02  0.7512E-02  0.9119E-01  0.9119E-01
    -10.765  0.3910E-02  0.3910E-02  0.9168E-01  0.9168E-01
    -10.642  0.7904E-02  0.7904E-02  0.9265E-01  0.9265E-01
    -10.519  0.1295E-01  0.1295E-01  0.9424E-01  0.9424E-01
    -10.396  0.1409E-01  0.1409E-01  0.9597E-01  0.9597E-01
    -10.273  0.1585E-01  0.1585E-01  0.9792E-01  0.9792E-01
    -10.150  0.1929E-01  0.1929E-01  0.1003E+00  0.1003E+00
    -10.027  0.1966E-01  0.1966E-01  0.1027E+00  0.1027E+00
     -9.904  0.1794E-01  0.1794E-01  0.1049E+00  0.1049E+00
     -9.781  0.1875E-01  0.1875E-01  0.1072E+00  0.1072E+00
     -9.658  0.2437E-01  0.2437E-01  0.1102E+00  0.1102E+00
     -9.535  0.2223E-01  0.2223E-01  0.1130E+00  0.1130E+00
     -9.412  0.2160E-01  0.2160E-01  0.1156E+00  0.1156E+00
     -9.289  0.2081E-01  0.2081E-01  0.1182E+00  0.1182E+00
     -9.166  0.2135E-01  0.2135E-01  0.1208E+00  0.1208E+00
     -9.043  0.2290E-01  0.2290E-01  0.1236E+00  0.1236E+00
     -8.920  0.2084E-01  0.2084E-01  0.1262E+00  0.1262E+00
     -8.797  0.2905E-01  0.2905E-01  0.1298E+00  0.1298E+00
     -8.674  0.1185E-01  0.1185E-01  0.1312E+00  0.1312E+00
     -8.551  0.1045E-01  0.1045E-01  0.1325E+00  0.1325E+00
     -8.428  0.2064E-01  0.2064E-01  0.1350E+00  0.1350E+00
     -8.305  0.2428E-01  0.2428E-01  0.1380E+00  0.1380E+00
     -8.182  0.1933E-01  0.1933E-01  0.1404E+00  0.1404E+00
     -8.059  0.1570E-01  0.1570E-01  0.1423E+00  0.1423E+00
     -7.936  0.8611E-02  0.8611E-02  0.1434E+00  0.1434E+00
     -7.813  0.1468E-01  0.1468E-01  0.1452E+00  0.1452E+00
     -7.690  0.9314E-02  0.9314E-02  0.1463E+00  0.1463E+00
     -7.567  0.1114E-01  0.1114E-01  0.1477E+00  0.1477E+00
     -7.444  0.2645E-01  0.2645E-01  0.1510E+00  0.1510E+00
     -7.321  0.2052E-01  0.2052E-01  0.1535E+00  0.1535E+00
     -7.198  0.2056E-01  0.2056E-01  0.1560E+00  0.1560E+00
     -7.075  0.1402E-01  0.1402E-01  0.1577E+00  0.1577E+00
     -6.952  0.1619E-01  0.1619E-01  0.1597E+00  0.1597E+00
     -6.829  0.7076E-02  0.7076E-02  0.1606E+00  0.1606E+00
     -6.706  0.1044E-01  0.1044E-01  0.1619E+00  0.1619E+00
     -6.583  0.1407E-01  0.1407E-01  0.1636E+00  0.1636E+00
     -6.460  0.9865E-02  0.9865E-02  0.1648E+00  0.1648E+00
     -6.337  0.2015E-01  0.2015E-01  0.1673E+00  0.1673E+00
     -6.214  0.1586E-01  0.1586E-01  0.1693E+00  0.1693E+00
     -6.091  0.1013E-01  0.1013E-01  0.1705E+00  0.1705E+00
     -5.968  0.1243E-01  0.1243E-01  0.1720E+00  0.1720E+00
     -5.845  0.1222E-01  0.1222E-01  0.1735E+00  0.1735E+00
     -5.722  0.1042E-01  0.1042E-01  0.1748E+00  0.1748E+00
     -5.599  0.6406E-02  0.6406E-02  0.1756E+00  0.1756E+00
     -5.476  0.1403E-02  0.1403E-02  0.1758E+00  0.1758E+00
     -5.353  0.4286E-02  0.4286E-02  0.1763E+00  0.1763E+00
     -5.230  0.1634E-01  0.1634E-01  0.1783E+00  0.1783E+00
     -5.107  0.1743E-01  0.1743E-01  0.1805E+00  0.1805E+00
     -4.984  0.1507E-01  0.1507E-01  0.1823E+00  0.1823E+00
     -4.861  0.9539E-02  0.9539E-02  0.1835E+00  0.1835E+00
     -4.738  0.4095E-02  0.4095E-02  0.1840E+00  0.1840E+00
     -4.615  0.2331E-02  0.2331E-02  0.1843E+00  0.1843E+00
     -4.492  0.8786E-02  0.8786E-02  0.1854E+00  0.1854E+00
     -4.369  0.1808E-01  0.1808E-01  0.1876E+00  0.1876E+00
     -4.246  0.9868E-02  0.9868E-02  0.1888E+00  0.1888E+00
     -4.123  0.1145E-01  0.1145E-01  0.1902E+00  0.1902E+00
     -4.000  0.1829E-01  0.1829E-01  0.1925E+00  0.1925E+00
     -3.877  0.4728E-02  0.4728E-02  0.1930E+00  0.1930E+00
     -3.754  0.8797E-02  0.8797E-02  0.1941E+00  0.1941E+00
     -3.631  0.2023E-02  0.2023E-02  0.1944E+00  0.1944E+00
     -3.508  0.3123E-02  0.3123E-02  0.1948E+00  0.1948E+00
     -3.385  0.3382E-02  0.3382E-02  0.1952E+00  0.1952E+00
     -3.262  0.8513E-03  0.8513E-03  0.1953E+00  0.1953E+00
     -3.139  0.1786E-02  0.1786E-02  0.1955E+00  0.1955E+00
     -3.016  0.4306E-03  0.4306E-03  0.1955E+00  0.1955E+00
     -2.893  0.1941E-02  0.1941E-02  0.1958E+00  0.1958E+00
     -2.770  0.1705E-02  0.1705E-02  0.1960E+00  0.1960E+00
     -2.647  0.1390E-04  0.1390E-04  0.1960E+00  0.1960E+00
     -2.524  0.1144E-02  0.1144E-02  0.1961E+00  0.1961E+00
     -2.401  0.2869E-02  0.2869E-02  0.1965E+00  0.1965E+00
     -2.278  0.5194E-04  0.5194E-04  0.1965E+00  0.1965E+00
     -2.155  0.1119E-02  0.1119E-02  0.1966E+00  0.1966E+00
     -2.032  0.2534E-02  0.2534E-02  0.1969E+00  0.1969E+00
     -1.909  0.2279E-02  0.2279E-02  0.1972E+00  0.1972E+00
     -1.786  0.4478E-02  0.4478E-02  0.1978E+00  0.1978E+00
     -1.663  0.1781E-02  0.1781E-02  0.1980E+00  0.1980E+00
     -1.540  0.1303E-03  0.1303E-03  0.1980E+00  0.1980E+00
     -1.417  0.5458E-02  0.5458E-02  0.1987E+00  0.1987E+00
     -1.294  0.5327E-02  0.5327E-02  0.1993E+00  0.1993E+00
     -1.171  0.4459E-02  0.4459E-02  0.1999E+00  0.1999E+00
     -1.048  0.1708E-01  0.1708E-01  0.2020E+00  0.2020E+00
     -0.925  0.7143E-02  0.7143E-02  0.2029E+00  0.2029E+00
     -0.802  0.5523E-02  0.5523E-02  0.2035E+00  0.2035E+00
     -0.679  0.1422E-01  0.1422E-01  0.2053E+00  0.2053E+00
     -0.556  0.5841E-02  0.5841E-02  0.2060E+00  0.2060E+00
     -0.433  0.4969E-02  0.4969E-02  0.2066E+00  0.2066E+00
     -0.310  0.7613E-02  0.7613E-02  0.2076E+00  0.2076E+00
     -0.187  0.8624E-02  0.8624E-02  0.2086E+00  0.2086E+00
     -0.064  0.1185E-01  0.1185E-01  0.2101E+00  0.2101E+00
      0.059  0.1221E-01  0.1221E-01  0.2116E+00  0.2116E+00
      0.182  0.3359E-02  0.3359E-02  0.2120E+00  0.2120E+00
      0.305  0.1231E-02  0.1231E-02  0.2122E+00  0.2122E+00
      0.428  0.6731E-02  0.6731E-02  0.2130E+00  0.2130E+00
      0.551  0.7297E-02  0.7297E-02  0.2139E+00  0.2139E+00
      0.674  0.5641E-02  0.5641E-02  0.2146E+00  0.2146E+00
      0.797  0.4302E-02  0.4302E-02  0.2151E+00  0.2151E+00
      0.920  0.7773E-02  0.7773E-02  0.2161E+00  0.2161E+00
      1.043  0.1152E-01  0.1152E-01  0.2175E+00  0.2175E+00
      1.166  0.3687E-02  0.3687E-02  0.2179E+00  0.2179E+00
      1.289  0.1396E-01  0.1396E-01  0.2196E+00  0.2196E+00
      1.412  0.2044E-01  0.2044E-01  0.2222E+00  0.2222E+00
      1.535  0.1073E-01  0.1073E-01  0.2235E+00  0.2235E+00
      1.658  0.6906E-02  0.6906E-02  0.2243E+00  0.2243E+00
      1.781  0.7068E-02  0.7068E-02  0.2252E+00  0.2252E+00
      1.904  0.1307E-01  0.1307E-01  0.2268E+00  0.2268E+00
      2.027  0.2752E-01  0.2752E-01  0.2302E+00  0.2302E+00
      2.150  0.1017E-01  0.1017E-01  0.2314E+00  0.2314E+00
      2.273  0.1132E-01  0.1132E-01  0.2328E+00  0.2328E+00
      2.396  0.2233E-01  0.2233E-01  0.2356E+00  0.2356E+00
      2.519  0.1960E-01  0.1960E-01  0.2380E+00  0.2380E+00
      2.642  0.1002E-01  0.1002E-01  0.2392E+00  0.2392E+00
      2.765  0.1717E-01  0.1717E-01  0.2413E+00  0.2413E+00
      2.888  0.3567E-01  0.3567E-01  0.2457E+00  0.2457E+00
      3.011  0.4361E-01  0.4361E-01  0.2511E+00  0.2511E+00
      3.134  0.1188E-01  0.1188E-01  0.2525E+00  0.2525E+00
      3.257  0.1397E-01  0.1397E-01  0.2543E+00  0.2543E+00
      3.380  0.1846E-01  0.1846E-01  0.2565E+00  0.2565E+00
      3.503  0.2368E-01  0.2367E-01  0.2595E+00  0.2595E+00
      3.626  0.1406E-01  0.1406E-01  0.2612E+00  0.2612E+00
      3.749  0.1807E-01  0.1807E-01  0.2634E+00  0.2634E+00
      3.872  0.2927E-01  0.2927E-01  0.2670E+00  0.2670E+00
      3.995  0.3046E-01  0.3046E-01  0.2707E+00  0.2707E+00
      4.118  0.1593E-01  0.1593E-01  0.2727E+00  0.2727E+00
      4.241  0.1183E-01  0.1183E-01  0.2742E+00  0.2742E+00
      4.365  0.6742E-02  0.6742E-02  0.2750E+00  0.2750E+00
      4.488  0.4760E-04  0.4759E-04  0.2750E+00  0.2750E+00
      4.611  0.1766E-10  0.1765E-10  0.2750E+00  0.2750E+00
      4.734  0.0000E+00  0.0000E+00  0.2750E+00  0.2750E+00
      4.857  0.0000E+00  0.0000E+00  0.2750E+00  0.2750E+00
      4.980  0.0000E+00  0.0000E+00  0.2750E+00  0.2750E+00
      5.103  0.0000E+00  0.0000E+00  0.2750E+00  0.2750E+00
      5.226  0.0000E+00  0.0000E+00  0.2750E+00  0.2750E+00
      5.349  0.0000E+00  0.0000E+00  0.2750E+00  0.2750E+00
      5.472  0.0000E+00  0.0000E+00  0.2750E+00  0.2750E+00
      5.595  0.0000E+00  0.0000E+00  0.2750E+00  0.2750E+00
      5.718  0.0000E+00  0.0000E+00  0.2750E+00  0.2750E+00
      5.841  0.0000E+00  0.0000E+00  0.2750E+00  0.2750E+00
      5.964  0.0000E+00  0.0000E+00  0.2750E+00  0.2750E+00
