 vasp.6.4.2 20Jul23 (build Aug 26 2025 15:10:52) complex                        
  
 POSCAR found type information on POSCAR C F N H O 
 04/POSCAR found :  5 types and      95 ions
 Reading from existing POTCAR
 scaLAPACK will be used
 -----------------------------------------------------------------------------
|                                                                             |
|           W    W    AA    RRRRR   N    N  II  N    N   GGGG   !!!           |
|           W    W   A  A   R    R  NN   N  II  NN   N  G    G  !!!           |
|           W    W  A    A  R    R  N N  N  II  N N  N  G       !!!           |
|           W WW W  AAAAAA  RRRRR   N  N N  II  N  N N  G  GGG   !            |
|           WW  WW  A    A  R   R   N   NN  II  N   NN  G    G                |
|           W    W  A    A  R    R  N    N  II  N    N   GGGG   !!!           |
|                                                                             |
|     For optimal performance we recommend to set                             |
|       NCORE = 2 up to number-of-cores-per-socket                            |
|     NCORE specifies how many cores store one orbital (NPAR=cpu/NCORE).      |
|     This setting can greatly improve the performance of VASP for DFT.       |
|     The default, NCORE=1 might be grossly inefficient on modern             |
|     multi-core architectures or massively parallel machines. Do your        |
|     own testing! More info at https://www.vasp.at/wiki/index.php/NCORE      |
|     Unfortunately you need to use the default for GW and RPA                |
|     calculations (for HF NCORE is supported but not extensively tested      |
|     yet).                                                                   |
|                                                                             |
 -----------------------------------------------------------------------------

 Reading from existing POTCAR
 LDA part: xc-table for Pade appr. of Perdew
 POSCAR found type information on POSCAR C F N H O 
 00/POSCAR found :  5 types and      95 ions
 POSCAR found type information on POSCAR C F N H O 
 06/POSCAR found :  5 types and      95 ions
 Jacobian:    33.5511073471780     
 POSCAR found type information on POSCAR C F N H O 
 00/POSCAR found :  5 types and      95 ions
 POSCAR found type information on POSCAR C F N H O 
 06/POSCAR found :  5 types and      95 ions
 POSCAR, INCAR and KPOINTS ok, starting setup
 FFT: planning ... GRIDC
 FFT: planning ... GRID_SOFT
 FFT: planning ... GRID
 WAVECAR not read
 entering main loop
       N       E                     dE             d eps       ncg     rms          rms(c)
DAV:   1     0.361836509017E+04    0.36184E+04   -0.14958E+05  4770   0.109E+03
DAV:   2    -0.181778066551E+03   -0.38001E+04   -0.35870E+04  6580   0.269E+02
DAV:   3    -0.851348149715E+03   -0.66957E+03   -0.66633E+03  5520   0.118E+02
DAV:   4    -0.873718179145E+03   -0.22370E+02   -0.22265E+02  5450   0.269E+01
DAV:   5    -0.874415247968E+03   -0.69707E+00   -0.69603E+00  6240   0.404E+00    0.518E+01
DAV:   6    -0.857414461030E+03    0.17001E+02   -0.21201E+01  5380   0.843E+00    0.336E+01
DAV:   7    -0.837087656038E+03    0.20327E+02   -0.32714E+01  5200   0.931E+00    0.203E+01
DAV:   8    -0.832432030733E+03    0.46556E+01   -0.20580E+01  5210   0.692E+00    0.813E+00
DAV:   9    -0.832537858852E+03   -0.10583E+00   -0.98278E-01  5130   0.189E+00    0.358E+00
DAV:  10    -0.832374073609E+03    0.16379E+00   -0.48194E-01  5100   0.125E+00    0.108E+00
DAV:  11    -0.832359917031E+03    0.14157E-01   -0.10444E-01  5130   0.605E-01    0.281E-01
DAV:  12    -0.832360082403E+03   -0.16537E-03   -0.11150E-02  5300   0.253E-01    0.129E-01
DAV:  13    -0.832360287220E+03   -0.20482E-03   -0.17247E-03  5180   0.853E-02    0.976E-02
DAV:  14    -0.832360322595E+03   -0.35375E-04   -0.28084E-04  5290   0.374E-02    0.591E-02
DAV:  15    -0.832360384606E+03   -0.62010E-04   -0.17748E-04  4870   0.288E-02    0.256E-02
DAV:  16    -0.832360383206E+03    0.13993E-05   -0.36284E-05  4500   0.161E-02
   1 F= -.84003508E+03 E0= -.84003508E+03  d E =-.840035E+03  mag=     0.0002
quench:  g(F)=  0.000E+00 g(S)=  0.000E+00 dE (1.order)= 0.000E+00
 bond charge predicted
       N       E                     dE             d eps       ncg     rms          rms(c)
DAV:   1    -0.832362314598E+03   -0.19300E-02   -0.12463E-01  4820   0.392E-01    0.733E-02
DAV:   2    -0.832362427687E+03   -0.11309E-03   -0.19842E-03  4660   0.491E-02    0.453E-02
DAV:   3    -0.832362414609E+03    0.13078E-04   -0.64127E-05  4150   0.112E-02    0.298E-02
DAV:   4    -0.832362423914E+03   -0.93058E-05   -0.26638E-05  3620   0.755E-03
   2 F= -.84003705E+03 E0= -.84003705E+03  d E =-.197352E-02  mag=     0.0000
quench:  g(F)=  0.000E+00 g(S)=  0.000E+00 dE (1.order)= 0.000E+00
 bond charge predicted
       N       E                     dE             d eps       ncg     rms          rms(c)
DAV:   1    -0.832365243116E+03   -0.28285E-02   -0.40488E-01  4680   0.699E-01    0.121E-01
DAV:   2    -0.832365598193E+03   -0.35508E-03   -0.56821E-03  4640   0.829E-02    0.746E-02
DAV:   3    -0.832365580927E+03    0.17266E-04   -0.12892E-04  4450   0.157E-02    0.529E-02
DAV:   4    -0.832365628079E+03   -0.47152E-04   -0.90352E-05  4020   0.136E-02    0.180E-02
DAV:   5    -0.832365647231E+03   -0.19152E-04   -0.30679E-05  3610   0.619E-03    0.853E-03
DAV:   6    -0.832365647052E+03    0.17938E-06   -0.58893E-06  3250   0.481E-03
   3 F= -.84004014E+03 E0= -.84004014E+03  d E =-.308916E-02  mag=    -0.0000
quench:  g(F)=  0.000E+00 g(S)=  0.000E+00 dE (1.order)= 0.000E+00
 bond charge predicted
       N       E                     dE             d eps       ncg     rms          rms(c)
DAV:   1    -0.832369464544E+03   -0.38173E-02   -0.73407E-01  4660   0.948E-01    0.139E-01
DAV:   2    -0.832370124845E+03   -0.66030E-03   -0.91350E-03  4600   0.108E-01    0.932E-02
DAV:   3    -0.832370091987E+03    0.32857E-04   -0.14166E-04  4460   0.177E-02    0.710E-02
DAV:   4    -0.832370182777E+03   -0.90790E-04   -0.29147E-04  4290   0.243E-02    0.155E-02
DAV:   5    -0.832370192589E+03   -0.98111E-05   -0.45420E-05  3880   0.808E-03
   4 F= -.84004449E+03 E0= -.84004449E+03  d E =-.434682E-02  mag=     0.0000
quench:  g(F)=  0.000E+00 g(S)=  0.000E+00 dE (1.order)= 0.000E+00
 bond charge predicted
       N       E                     dE             d eps       ncg     rms          rms(c)
DAV:   1    -0.832374505686E+03   -0.43229E-02   -0.11470E+00  4660   0.122E+00    0.167E-01
DAV:   2    -0.832375614585E+03   -0.11089E-02   -0.14146E-02  4600   0.140E-01    0.120E-01
DAV:   3    -0.832375560040E+03    0.54545E-04   -0.19866E-04  4750   0.221E-02    0.930E-02
DAV:   4    -0.832375706153E+03   -0.14611E-03   -0.62273E-04  4340   0.363E-02    0.264E-02
DAV:   5    -0.832375706784E+03   -0.63043E-06   -0.84937E-05  4340   0.120E-02
   5 F= -.84004975E+03 E0= -.84004975E+03  d E =-.525565E-02  mag=    -0.0000
quench:  g(F)=  0.000E+00 g(S)=  0.000E+00 dE (1.order)= 0.000E+00
 bond charge predicted
       N       E                     dE             d eps       ncg     rms          rms(c)
DAV:   1    -0.832379440561E+03   -0.37344E-02   -0.17019E+00  4660   0.156E+00    0.204E-01
DAV:   2    -0.832381256969E+03   -0.18164E-02   -0.22256E-02  4620   0.184E-01    0.146E-01
DAV:   3    -0.832381169781E+03    0.87188E-04   -0.29601E-04  4920   0.276E-02    0.114E-01
DAV:   4    -0.832381354013E+03   -0.18423E-03   -0.99483E-04  4460   0.464E-02    0.335E-02
DAV:   5    -0.832381355728E+03   -0.17146E-05   -0.13460E-04  4720   0.153E-02    0.310E-02
DAV:   6    -0.832381344100E+03    0.11628E-04   -0.76339E-05  3840   0.154E-02    0.107E-02
DAV:   7    -0.832381343483E+03    0.61671E-06   -0.91392E-06  3660   0.538E-03
   6 F= -.84005508E+03 E0= -.84005508E+03  d E =-.533017E-02  mag=     0.0000
quench:  g(F)=  0.000E+00 g(S)=  0.000E+00 dE (1.order)= 0.000E+00
 bond charge predicted
       N       E                     dE             d eps       ncg     rms          rms(c)
DAV:   1    -0.832384477025E+03   -0.31329E-02   -0.23510E+00  4610   0.192E+00    0.252E-01
DAV:   2    -0.832387280629E+03   -0.28036E-02   -0.34165E-02  4680   0.235E-01    0.169E-01
DAV:   3    -0.832387145806E+03    0.13482E-03   -0.45621E-04  5060   0.336E-02    0.132E-01
DAV:   4    -0.832387314325E+03   -0.16852E-03   -0.11854E-03  4480   0.506E-02    0.319E-02
DAV:   5    -0.832387337464E+03   -0.23139E-04   -0.17504E-04  4960   0.174E-02    0.291E-02
DAV:   6    -0.832387326394E+03    0.11070E-04   -0.54709E-05  3840   0.139E-02    0.137E-02
DAV:   7    -0.832387325265E+03    0.11287E-05   -0.14155E-05  3600   0.685E-03
   7 F= -.84006072E+03 E0= -.84006072E+03  d E =-.564407E-02  mag=     0.0000
quench:  g(F)=  0.000E+00 g(S)=  0.000E+00 dE (1.order)= 0.000E+00
 bond charge predicted
       N       E                     dE             d eps       ncg     rms          rms(c)
DAV:   1    -0.832388942238E+03   -0.16158E-02   -0.36541E+00  4590   0.255E+00    0.334E-01
DAV:   2    -0.832393968448E+03   -0.50262E-02   -0.60252E-02  4680   0.323E-01    0.212E-01
DAV:   3    -0.832393759762E+03    0.20869E-03   -0.80472E-04  5140   0.451E-02    0.165E-01
DAV:   4    -0.832393940509E+03   -0.18075E-03   -0.15158E-03  4600   0.601E-02    0.386E-02
DAV:   5    -0.832394002813E+03   -0.62304E-04   -0.25758E-04  4900   0.215E-02    0.322E-02
DAV:   6    -0.832393991273E+03    0.11540E-04   -0.69861E-05  4140   0.168E-02    0.161E-02
DAV:   7    -0.832393991793E+03   -0.52007E-06   -0.18514E-05  3640   0.793E-03
   8 F= -.84006699E+03 E0= -.84006699E+03  d E =-.627379E-02  mag=     0.0000
quench:  g(F)=  0.000E+00 g(S)=  0.000E+00 dE (1.order)= 0.000E+00
 bond charge predicted
       N       E                     dE             d eps       ncg     rms          rms(c)
DAV:   1    -0.832393419661E+03    0.57161E-03   -0.52824E+00  4580   0.329E+00    0.391E-01
DAV:   2    -0.832401446836E+03   -0.80272E-02   -0.92022E-02  4680   0.425E-01    0.256E-01
DAV:   3    -0.832401160844E+03    0.28599E-03   -0.10988E-03  5140   0.560E-02    0.201E-01
DAV:   4    -0.832401464026E+03   -0.30318E-03   -0.25705E-03  4600   0.821E-02    0.504E-02
DAV:   5    -0.832401505663E+03   -0.41637E-04   -0.40209E-04  4980   0.289E-02    0.455E-02
DAV:   6    -0.832401479499E+03    0.26165E-04   -0.15677E-04  4240   0.231E-02    0.195E-02
DAV:   7    -0.832401479068E+03    0.43051E-06   -0.30256E-05  4140   0.990E-03
   9 F= -.84007404E+03 E0= -.84007404E+03  d E =-.704230E-02  mag=     0.0000
quench:  g(F)=  0.000E+00 g(S)=  0.000E+00 dE (1.order)= 0.000E+00
 bond charge predicted
       N       E                     dE             d eps       ncg     rms          rms(c)
DAV:   1    -0.832396022651E+03    0.54568E-02   -0.77867E+00  4580   0.427E+00    0.465E-01
DAV:   2    -0.832409139378E+03   -0.13117E-01   -0.14533E-01  4680   0.564E-01    0.316E-01
DAV:   3    -0.832408689366E+03    0.45001E-03   -0.16085E-03  5160   0.712E-02    0.251E-01
DAV:   4    -0.832409137498E+03   -0.44813E-03   -0.46604E-03  4680   0.113E-01    0.745E-02
DAV:   5    -0.832409145544E+03   -0.80463E-05   -0.68068E-04  4940   0.396E-02    0.665E-02
DAV:   6    -0.832409099084E+03    0.46461E-04   -0.41484E-04  4240   0.345E-02    0.223E-02
DAV:   7    -0.832409101679E+03   -0.25955E-05   -0.43770E-05  4380   0.117E-02
  10 F= -.84008116E+03 E0= -.84008116E+03  d E =-.712258E-02  mag=     0.0000
quench:  g(F)=  0.000E+00 g(S)=  0.000E+00 dE (1.order)= 0.000E+00
 bond charge predicted
       N       E                     dE             d eps       ncg     rms          rms(c)
DAV:   1    -0.832394362767E+03    0.14736E-01   -0.11532E+01  4580   0.554E+00    0.597E-01
DAV:   2    -0.832416437370E+03   -0.22075E-01   -0.24404E-01  4660   0.751E-01    0.381E-01
DAV:   3    -0.832415886437E+03    0.55093E-03   -0.25937E-03  5300   0.916E-02    0.302E-01
DAV:   4    -0.832416466361E+03   -0.57992E-03   -0.51655E-03  5040   0.129E-01    0.761E-02
DAV:   5    -0.832416561462E+03   -0.95101E-04   -0.89584E-04  4920   0.471E-02    0.664E-02
DAV:   6    -0.832416508051E+03    0.53412E-04   -0.35496E-04  4380   0.365E-02    0.275E-02
DAV:   7    -0.832416509924E+03   -0.18738E-05   -0.69538E-05  4740   0.153E-02
  11 F= -.84008803E+03 E0= -.84008803E+03  d E =-.687504E-02  mag=     0.0000
quench:  g(F)=  0.000E+00 g(S)=  0.000E+00 dE (1.order)= 0.000E+00
 bond charge predicted
       N       E                     dE             d eps       ncg     rms          rms(c)
DAV:   1    -0.832388598405E+03    0.27910E-01   -0.17093E+01  4580   0.706E+00    0.744E-01
DAV:   2    -0.832424285499E+03   -0.35687E-01   -0.39143E-01  4660   0.975E-01    0.467E-01
DAV:   3    -0.832423478191E+03    0.80731E-03   -0.41078E-03  5300   0.117E-01    0.370E-01
DAV:   4    -0.832424197012E+03   -0.71882E-03   -0.70496E-03  5260   0.157E-01    0.949E-02
DAV:   5    -0.832424389406E+03   -0.19239E-03   -0.12993E-03  4920   0.580E-02    0.788E-02
DAV:   6    -0.832424322669E+03    0.66737E-04   -0.51592E-04  4440   0.449E-02    0.325E-02
DAV:   7    -0.832424326902E+03   -0.42325E-05   -0.98114E-05  4940   0.181E-02
  12 F= -.84009526E+03 E0= -.84009526E+03  d E =-.722316E-02  mag=     0.0000
quench:  g(F)=  0.000E+00 g(S)=  0.000E+00 dE (1.order)= 0.000E+00
 bond charge predicted
       N       E                     dE             d eps       ncg     rms          rms(c)
DAV:   1    -0.832381866863E+03    0.42456E-01   -0.22797E+01  4600   0.850E+00    0.844E-01
DAV:   2    -0.832432379700E+03   -0.50513E-01   -0.54295E-01  4660   0.118E+00    0.547E-01
DAV:   3    -0.832431294040E+03    0.10857E-02   -0.54804E-03  5400   0.142E-01    0.436E-01
DAV:   4    -0.832432325704E+03   -0.10317E-02   -0.10887E-02  5260   0.200E-01    0.131E-01
DAV:   5    -0.832432424503E+03   -0.98799E-04   -0.17852E-03  4900   0.719E-02    0.107E-01
DAV:   6    -0.832432364163E+03    0.60341E-04   -0.12077E-03  4460   0.637E-02    0.338E-02
DAV:   7    -0.832432379105E+03   -0.14942E-04   -0.11504E-04  4980   0.192E-02    0.260E-02
DAV:   8    -0.832432373495E+03    0.56097E-05   -0.32679E-05  4160   0.143E-02
  13 F= -.84010266E+03 E0= -.84010266E+03  d E =-.740642E-02  mag=    -0.0000
quench:  g(F)=  0.000E+00 g(S)=  0.000E+00 dE (1.order)= 0.000E+00
 bond charge predicted
       N       E                     dE             d eps       ncg     rms          rms(c)
DAV:   1    -0.832358161440E+03    0.74218E-01   -0.34637E+01  4540   0.105E+01    0.114E+00
DAV:   2    -0.832439005088E+03   -0.80844E-01   -0.89404E-01  4660   0.151E+00    0.688E-01
DAV:   3    -0.832437194505E+03    0.18106E-02   -0.11748E-02  5300   0.192E-01    0.537E-01
DAV:   4    -0.832437025504E+03    0.16900E-03   -0.99780E-03  5100   0.201E-01    0.175E-01
DAV:   5    -0.832437957184E+03   -0.93168E-03   -0.29539E-03  4800   0.884E-02    0.104E-01
DAV:   6    -0.832437843888E+03    0.11330E-03   -0.10255E-03  4820   0.685E-02    0.472E-02
DAV:   7    -0.832437897646E+03   -0.53758E-04   -0.17719E-04  4740   0.240E-02    0.300E-02
DAV:   8    -0.832437885237E+03    0.12409E-04   -0.45980E-05  4600   0.174E-02    0.131E-02
DAV:   9    -0.832437887935E+03   -0.26982E-05   -0.22250E-05  3600   0.893E-03
  14 F= -.84010748E+03 E0= -.84010748E+03  d E =-.482047E-02  mag=     0.0000
quench:  g(F)=  0.000E+00 g(S)=  0.000E+00 dE (1.order)= 0.000E+00
 bond charge predicted
       N       E                     dE             d eps       ncg     rms          rms(c)
DAV:   1    -0.832442745965E+03   -0.48607E-02   -0.24806E-01  4720   0.908E-01    0.127E-01
DAV:   2    -0.832443237831E+03   -0.49187E-03   -0.72995E-03  5000   0.146E-01    0.108E-01
DAV:   3    -0.832443116176E+03    0.12166E-03   -0.31629E-04  5520   0.334E-02    0.787E-02
DAV:   4    -0.832443037503E+03    0.78673E-04   -0.20805E-04  4740   0.270E-02    0.384E-02
DAV:   5    -0.832443033503E+03    0.39999E-05   -0.69442E-05  4420   0.153E-02
  15 F= -.84011264E+03 E0= -.84011264E+03  d E =-.515988E-02  mag=     0.0000
quench:  g(F)=  0.000E+00 g(S)=  0.000E+00 dE (1.order)= 0.000E+00
 bond charge predicted
       N       E                     dE             d eps       ncg     rms          rms(c)
DAV:   1    -0.832440376029E+03    0.26615E-02   -0.28600E-01  4540   0.101E+00    0.141E-01
DAV:   2    -0.832440939936E+03   -0.56391E-03   -0.84191E-03  5040   0.161E-01    0.119E-01
DAV:   3    -0.832440799453E+03    0.14048E-03   -0.39935E-04  5540   0.366E-02    0.829E-02
DAV:   4    -0.832440736588E+03    0.62865E-04   -0.23561E-04  4720   0.277E-02    0.417E-02
DAV:   5    -0.832440736757E+03   -0.16927E-06   -0.60941E-05  4220   0.151E-02
  16 F= -.84011036E+03 E0= -.84011036E+03  d E =0.228627E-02  mag=     0.0000
quench:  g(F)=  0.000E+00 g(S)=  0.000E+00 dE (1.order)= 0.000E+00
 bond charge predicted
       N       E                     dE             d eps       ncg     rms          rms(c)
DAV:   1    -0.832442150847E+03   -0.14143E-02   -0.14384E-02  4520   0.213E-01    0.294E-02
DAV:   2    -0.832442178837E+03   -0.27990E-04   -0.43447E-04  5100   0.349E-02    0.250E-02
DAV:   3    -0.832442171467E+03    0.73696E-05   -0.15058E-05  3680   0.770E-03
  17 F= -.84011179E+03 E0= -.84011179E+03  d E =-.143467E-02  mag=     0.0000
quench:  g(F)=  0.000E+00 g(S)=  0.000E+00 dE (1.order)= 0.000E+00
 bond charge predicted
       N       E                     dE             d eps       ncg     rms          rms(c)
DAV:   1    -0.832443758241E+03   -0.15794E-02   -0.44930E-02  4560   0.377E-01    0.561E-02
DAV:   2    -0.832443831839E+03   -0.73598E-04   -0.11960E-03  5130   0.585E-02    0.463E-02
DAV:   3    -0.832443811180E+03    0.20659E-04   -0.48961E-05  4410   0.136E-02    0.337E-02
DAV:   4    -0.832443800210E+03    0.10970E-04   -0.38437E-05  3550   0.122E-02    0.149E-02
DAV:   5    -0.832443801393E+03   -0.11835E-05   -0.15189E-05  3320   0.714E-03
  18 F= -.84011342E+03 E0= -.84011342E+03  d E =-.163019E-02  mag=    -0.0000
quench:  g(F)=  0.000E+00 g(S)=  0.000E+00 dE (1.order)= 0.000E+00
 bond charge predicted
       N       E                     dE             d eps       ncg     rms          rms(c)
DAV:   1    -0.832444253257E+03   -0.45305E-03   -0.69892E-02  4520   0.473E-01    0.636E-02
DAV:   2    -0.832444391933E+03   -0.13868E-03   -0.19469E-03  5040   0.744E-02    0.494E-02
DAV:   3    -0.832444368963E+03    0.22969E-04   -0.69582E-05  5000   0.159E-02    0.358E-02
DAV:   4    -0.832444357978E+03    0.10985E-04   -0.39409E-05  3640   0.125E-02    0.172E-02
DAV:   5    -0.832444359758E+03   -0.17796E-05   -0.17873E-05  3340   0.794E-03
  19 F= -.84011398E+03 E0= -.84011398E+03  d E =-.559622E-03  mag=    -0.0000
quench:  g(F)=  0.000E+00 g(S)=  0.000E+00 dE (1.order)= 0.000E+00
 bond charge predicted
       N       E                     dE             d eps       ncg     rms          rms(c)
DAV:   1    -0.832444389307E+03   -0.31328E-04   -0.89539E-05  4160   0.186E-02    0.362E-03
DAV:   2    -0.832444389430E+03   -0.12334E-06   -0.28088E-06  2400   0.327E-03
  20 F= -.84011401E+03 E0= -.84011401E+03  d E =-.301418E-04  mag=     0.0000
quench:  g(F)=  0.000E+00 g(S)=  0.000E+00 dE (1.order)= 0.000E+00
 bond charge predicted
       N       E                     dE             d eps       ncg     rms          rms(c)
DAV:   1    -0.832444443398E+03   -0.54092E-04   -0.33878E-04  4320   0.360E-02    0.453E-03
DAV:   2    -0.832444444005E+03   -0.60666E-06   -0.87398E-06  2700   0.543E-03
  21 F= -.84011407E+03 E0= -.84011407E+03  d E =-.555381E-04  mag=     0.0000
quench:  g(F)=  0.000E+00 g(S)=  0.000E+00 dE (1.order)= 0.000E+00
 bond charge predicted
       N       E                     dE             d eps       ncg     rms          rms(c)
DAV:   1    -0.832444516521E+03   -0.73122E-04   -0.75202E-04  4385   0.537E-02    0.722E-03
DAV:   2    -0.832444517766E+03   -0.12449E-05   -0.19075E-05  3240   0.793E-03
  22 F= -.84011414E+03 E0= -.84011414E+03  d E =-.751630E-04  mag=     0.0000
quench:  g(F)=  0.000E+00 g(S)=  0.000E+00 dE (1.order)= 0.000E+00
 bond charge predicted
       N       E                     dE             d eps       ncg     rms          rms(c)
DAV:   1    -0.832444601118E+03   -0.84597E-04   -0.13102E-03  4430   0.709E-02    0.102E-02
DAV:   2    -0.832444603098E+03   -0.19801E-05   -0.32325E-05  3850   0.102E-02
  23 F= -.84011423E+03 E0= -.84011423E+03  d E =-.871460E-04  mag=     0.0000
quench:  g(F)=  0.000E+00 g(S)=  0.000E+00 dE (1.order)= 0.000E+00
 bond charge predicted
       N       E                     dE             d eps       ncg     rms          rms(c)
DAV:   1    -0.832444689782E+03   -0.88665E-04   -0.20078E-03  4465   0.877E-02    0.131E-02
DAV:   2    -0.832444692784E+03   -0.30012E-05   -0.48903E-05  4200   0.125E-02
  24 F= -.84011432E+03 E0= -.84011432E+03  d E =-.918744E-04  mag=     0.0000
quench:  g(F)=  0.000E+00 g(S)=  0.000E+00 dE (1.order)= 0.000E+00
 bond charge predicted
       N       E                     dE             d eps       ncg     rms          rms(c)
DAV:   1    -0.832444777055E+03   -0.87273E-04   -0.28312E-03  4500   0.104E-01    0.157E-02
DAV:   2    -0.832444781220E+03   -0.41650E-05   -0.66992E-05  4440   0.146E-02
  25 F= -.84011441E+03 E0= -.84011441E+03  d E =-.909309E-04  mag=     0.0000
quench:  g(F)=  0.000E+00 g(S)=  0.000E+00 dE (1.order)= 0.000E+00
 bond charge predicted
       N       E                     dE             d eps       ncg     rms          rms(c)
DAV:   1    -0.832444870989E+03   -0.93935E-04   -0.47659E-03  4520   0.135E-01    0.193E-02
DAV:   2    -0.832444878336E+03   -0.73469E-05   -0.11205E-04  4580   0.188E-02    0.155E-02
DAV:   3    -0.832444878692E+03   -0.35529E-06   -0.19290E-06  2550   0.319E-03
  26 F= -.84011451E+03 E0= -.84011451E+03  d E =-.100475E-03  mag=     0.0000
quench:  g(F)=  0.000E+00 g(S)=  0.000E+00 dE (1.order)= 0.000E+00
 bond charge predicted
       N       E                     dE             d eps       ncg     rms          rms(c)
DAV:   1    -0.832444974111E+03   -0.95774E-04   -0.79021E-03  4520   0.173E-01    0.165E-02
DAV:   2    -0.832444989323E+03   -0.15212E-04   -0.18073E-04  4500   0.236E-02    0.113E-02
DAV:   3    -0.832444989282E+03    0.41196E-07   -0.17665E-06  2360   0.297E-03
  27 F= -.84011463E+03 E0= -.84011463E+03  d E =-.114128E-03  mag=     0.0000
quench:  g(F)=  0.000E+00 g(S)=  0.000E+00 dE (1.order)= 0.000E+00
 bond charge predicted
       N       E                     dE             d eps       ncg     rms          rms(c)
DAV:   1    -0.832445081669E+03   -0.92346E-04   -0.13464E-02  4540   0.226E-01    0.208E-02
DAV:   2    -0.832445108396E+03   -0.26727E-04   -0.31382E-04  4480   0.312E-02    0.143E-02
DAV:   3    -0.832445108043E+03    0.35326E-06   -0.30786E-06  2800   0.393E-03
  28 F= -.84011475E+03 E0= -.84011475E+03  d E =-.122951E-03  mag=     0.0000
quench:  g(F)=  0.000E+00 g(S)=  0.000E+00 dE (1.order)= 0.000E+00
 bond charge predicted
       N       E                     dE             d eps       ncg     rms          rms(c)
DAV:   1    -0.832445189808E+03   -0.81412E-04   -0.22864E-02  4500   0.295E-01    0.270E-02
DAV:   2    -0.832445234954E+03   -0.45147E-04   -0.53188E-04  4460   0.406E-02    0.187E-02
DAV:   3    -0.832445234422E+03    0.53292E-06   -0.53867E-06  3280   0.509E-03
  29 F= -.84011488E+03 E0= -.84011488E+03  d E =-.131436E-03  mag=     0.0000
quench:  g(F)=  0.000E+00 g(S)=  0.000E+00 dE (1.order)= 0.000E+00
 bond charge predicted
       N       E                     dE             d eps       ncg     rms          rms(c)
DAV:   1    -0.832445270906E+03   -0.35952E-04   -0.39116E-02  4520   0.386E-01    0.354E-02
DAV:   2    -0.832445347647E+03   -0.76740E-04   -0.90823E-04  4440   0.532E-02    0.247E-02
DAV:   3    -0.832445346782E+03    0.86481E-06   -0.97806E-06  3710   0.672E-03
  30 F= -.84011500E+03 E0= -.84011500E+03  d E =-.118440E-03  mag=     0.0000
quench:  g(F)=  0.000E+00 g(S)=  0.000E+00 dE (1.order)= 0.000E+00
 bond charge predicted
       N       E                     dE             d eps       ncg     rms          rms(c)
DAV:   1    -0.832445267940E+03    0.79707E-04   -0.67139E-02  4480   0.506E-01    0.464E-02
DAV:   2    -0.832445400465E+03   -0.13252E-03   -0.15594E-03  4435   0.698E-02    0.328E-02
DAV:   3    -0.832445398800E+03    0.16646E-05   -0.18055E-05  4310   0.891E-03
  31 F= -.84011506E+03 E0= -.84011506E+03  d E =-.595013E-04  mag=     0.0000
quench:  g(F)=  0.000E+00 g(S)=  0.000E+00 dE (1.order)= 0.000E+00
 bond charge predicted
       N       E                     dE             d eps       ncg     rms          rms(c)
DAV:   1    -0.832445113859E+03    0.28661E-03   -0.11478E-01  4520   0.662E-01    0.611E-02
DAV:   2    -0.832445337334E+03   -0.22347E-03   -0.26504E-03  4425   0.914E-02    0.436E-02
DAV:   3    -0.832445334965E+03    0.23693E-05   -0.32265E-05  4760   0.118E-02
  32 F= -.84011500E+03 E0= -.84011500E+03  d E =0.546069E-04  mag=     0.0000
quench:  g(F)=  0.000E+00 g(S)=  0.000E+00 dE (1.order)= 0.000E+00
 bond charge predicted
       N       E                     dE             d eps       ncg     rms          rms(c)
DAV:   1    -0.832444694953E+03    0.64238E-03   -0.19700E-01  4500   0.868E-01    0.805E-02
DAV:   2    -0.832445077214E+03   -0.38226E-03   -0.45549E-03  4420   0.120E-01    0.577E-02
DAV:   3    -0.832445073670E+03    0.35442E-05   -0.57391E-05  5120   0.156E-02
  33 F= -.84011475E+03 E0= -.84011475E+03  d E =0.250213E-03  mag=     0.0000
quench:  g(F)=  0.000E+00 g(S)=  0.000E+00 dE (1.order)= 0.000E+00
 bond charge predicted
       N       E                     dE             d eps       ncg     rms          rms(c)
DAV:   1    -0.832443899692E+03    0.11775E-02   -0.34106E-01  4500   0.114E+00    0.107E-01
DAV:   2    -0.832444566864E+03   -0.66717E-03   -0.78823E-03  4420   0.158E-01    0.767E-02
DAV:   3    -0.832444560095E+03    0.67684E-05   -0.10038E-04  5260   0.206E-02    0.602E-02
DAV:   4    -0.832444624281E+03   -0.64186E-04   -0.88551E-05  4340   0.228E-02    0.160E-02
DAV:   5    -0.832444635306E+03   -0.11024E-04   -0.29205E-05  4340   0.100E-02    0.857E-03
DAV:   6    -0.832444634799E+03    0.50675E-06   -0.43696E-06  3060   0.502E-03
  34 F= -.84011433E+03 E0= -.84011433E+03  d E =0.425319E-03  mag=     0.0000
quench:  g(F)=  0.000E+00 g(S)=  0.000E+00 dE (1.order)= 0.000E+00
 bond charge predicted
       N       E                     dE             d eps       ncg     rms          rms(c)
DAV:   1    -0.832442345894E+03    0.22894E-02   -0.60920E-01  4500   0.153E+00    0.134E-01
DAV:   2    -0.832443644110E+03   -0.12982E-02   -0.14749E-02  4510   0.216E-01    0.928E-02
DAV:   3    -0.832443613873E+03    0.30236E-04   -0.18177E-04  5360   0.278E-02    0.731E-02
DAV:   4    -0.832443666811E+03   -0.52938E-04   -0.16664E-04  4540   0.308E-02    0.211E-02
DAV:   5    -0.832443685124E+03   -0.18313E-04   -0.51010E-05  4740   0.132E-02    0.115E-02
DAV:   6    -0.832443685106E+03    0.18139E-07   -0.73318E-06  2960   0.692E-03
  35 F= -.84011340E+03 E0= -.84011340E+03  d E =0.933591E-03  mag=     0.0000
quench:  g(F)=  0.000E+00 g(S)=  0.000E+00 dE (1.order)= 0.000E+00
 bond charge predicted
       N       E                     dE             d eps       ncg     rms          rms(c)
DAV:   1    -0.832439738265E+03    0.39469E-02   -0.10775E+00  4500   0.203E+00    0.179E-01
DAV:   2    -0.832442058225E+03   -0.23200E-02   -0.26095E-02  4510   0.287E-01    0.124E-01
DAV:   3    -0.832442007657E+03    0.50568E-04   -0.32042E-04  5340   0.370E-02    0.977E-02
DAV:   4    -0.832442076689E+03   -0.69032E-04   -0.29773E-04  4540   0.411E-02    0.281E-02
DAV:   5    -0.832442106484E+03   -0.29796E-04   -0.90818E-05  4760   0.175E-02    0.155E-02
DAV:   6    -0.832442106988E+03   -0.50352E-06   -0.14075E-05  3600   0.956E-03
  36 F= -.84011184E+03 E0= -.84011184E+03  d E =0.156030E-02  mag=     0.0000
quench:  g(F)=  0.000E+00 g(S)=  0.000E+00 dE (1.order)= 0.000E+00
 bond charge predicted
       N       E                     dE             d eps       ncg     rms          rms(c)
DAV:   1    -0.832435837269E+03    0.62692E-02   -0.17855E+00  4500   0.262E+00    0.231E-01
DAV:   2    -0.832439719468E+03   -0.38822E-02   -0.43283E-02  4560   0.370E-01    0.160E-01
DAV:   3    -0.832439636040E+03    0.83428E-04   -0.53028E-04  5320   0.476E-02    0.126E-01
DAV:   4    -0.832439724708E+03   -0.88668E-04   -0.50752E-04  4585   0.535E-02    0.362E-02
DAV:   5    -0.832439770880E+03   -0.46172E-04   -0.15226E-04  4860   0.226E-02    0.204E-02
DAV:   6    -0.832439771645E+03   -0.76521E-06   -0.25357E-05  4020   0.128E-02
  37 F= -.84010952E+03 E0= -.84010952E+03  d E =0.231992E-02  mag=     0.0000
quench:  g(F)=  0.000E+00 g(S)=  0.000E+00 dE (1.order)= 0.000E+00
 bond charge predicted
       N       E                     dE             d eps       ncg     rms          rms(c)
DAV:   1    -0.832430604820E+03    0.91661E-02   -0.27680E+00  4500   0.326E+00    0.288E-01
DAV:   2    -0.832436649826E+03   -0.60450E-02   -0.67170E-02  4540   0.461E-01    0.200E-01
DAV:   3    -0.832436520399E+03    0.12943E-03   -0.82589E-04  5320   0.595E-02    0.158E-01
DAV:   4    -0.832436633857E+03   -0.11346E-03   -0.81125E-04  4800   0.673E-02    0.457E-02
DAV:   5    -0.832436700194E+03   -0.66337E-04   -0.23612E-04  4840   0.284E-02    0.258E-02
DAV:   6    -0.832436701777E+03   -0.15830E-05   -0.41755E-05  4180   0.167E-02
  38 F= -.84010645E+03 E0= -.84010645E+03  d E =0.306910E-02  mag=     0.0000
quench:  g(F)=  0.000E+00 g(S)=  0.000E+00 dE (1.order)= 0.000E+00
 bond charge predicted
       N       E                     dE             d eps       ncg     rms          rms(c)
DAV:   1    -0.832424396172E+03    0.12304E-01   -0.39366E+00  4500   0.389E+00    0.345E-01
DAV:   2    -0.832433021580E+03   -0.86254E-02   -0.95789E-02  4555   0.552E-01    0.240E-01
DAV:   3    -0.832432835574E+03    0.18601E-03   -0.11979E-03  5320   0.718E-02    0.189E-01
DAV:   4    -0.832432981518E+03   -0.14594E-03   -0.11450E-03  5020   0.807E-02    0.558E-02
DAV:   5    -0.832433076336E+03   -0.94817E-04   -0.33403E-04  4900   0.340E-02    0.312E-02
DAV:   6    -0.832433076250E+03    0.86133E-07   -0.62912E-05  4300   0.208E-02
  39 F= -.84010280E+03 E0= -.84010280E+03  d E =0.364895E-02  mag=     0.0000
quench:  g(F)=  0.000E+00 g(S)=  0.000E+00 dE (1.order)= 0.000E+00
 bond charge predicted
       N       E                     dE             d eps       ncg     rms          rms(c)
DAV:   1    -0.832418692053E+03    0.14384E-01   -0.49401E+00  4500   0.438E+00    0.388E-01
DAV:   2    -0.832429550032E+03   -0.10858E-01   -0.12069E-01  4560   0.622E-01    0.269E-01
DAV:   3    -0.832429322813E+03    0.22722E-03   -0.15383E-03  5360   0.813E-02    0.211E-01
DAV:   4    -0.832429519986E+03   -0.19717E-03   -0.13774E-03  5320   0.900E-02    0.635E-02
DAV:   5    -0.832429633896E+03   -0.11391E-03   -0.39764E-04  4860   0.375E-02    0.350E-02
DAV:   6    -0.832429631472E+03    0.24235E-05   -0.81457E-05  4300   0.240E-02
  40 F= -.84009929E+03 E0= -.84009929E+03  d E =0.350329E-02  mag=     0.0000
quench:  g(F)=  0.000E+00 g(S)=  0.000E+00 dE (1.order)= 0.000E+00
 bond charge predicted
       N       E                     dE             d eps       ncg     rms          rms(c)
DAV:   1    -0.832415629778E+03    0.14004E-01   -0.54091E+00  4520   0.457E+00    0.409E-01
DAV:   2    -0.832427486966E+03   -0.11857E-01   -0.13226E-01  4560   0.652E-01    0.283E-01
DAV:   3    -0.832427227860E+03    0.25911E-03   -0.16976E-03  5320   0.851E-02    0.222E-01
DAV:   4    -0.832427485017E+03   -0.25716E-03   -0.15918E-03  5320   0.958E-02    0.651E-02
DAV:   5    -0.832427606320E+03   -0.12130E-03   -0.43484E-04  4860   0.393E-02    0.369E-02
DAV:   6    -0.832427603970E+03    0.23507E-05   -0.91580E-05  4300   0.255E-02
  41 F= -.84009717E+03 E0= -.84009717E+03  d E =0.212374E-02  mag=     0.0000
quench:  g(F)=  0.000E+00 g(S)=  0.000E+00 dE (1.order)= 0.000E+00
 bond charge predicted
       N       E                     dE             d eps       ncg     rms          rms(c)
DAV:   1    -0.832427898995E+03   -0.29267E-03   -0.26978E-03  4620   0.768E-02    0.148E-02
DAV:   2    -0.832427902587E+03   -0.35923E-05   -0.57872E-05  4160   0.117E-02
  42 F= -.84009746E+03 E0= -.84009746E+03  d E =-.292817E-03  mag=     0.0000
quench:  g(F)=  0.000E+00 g(S)=  0.000E+00 dE (1.order)= 0.000E+00
 bond charge predicted
       N       E                     dE             d eps       ncg     rms          rms(c)
DAV:   1    -0.832428386366E+03   -0.48737E-03   -0.77835E-03  4540   0.128E-01    0.234E-02
DAV:   2    -0.832428396248E+03   -0.98820E-05   -0.15693E-04  4400   0.176E-02    0.170E-02
DAV:   3    -0.832428396086E+03    0.16173E-06   -0.30019E-06  2960   0.327E-03
  43 F= -.84009795E+03 E0= -.84009795E+03  d E =-.482521E-03  mag=     0.0000
quench:  g(F)=  0.000E+00 g(S)=  0.000E+00 dE (1.order)= 0.000E+00
 bond charge predicted
       N       E                     dE             d eps       ncg     rms          rms(c)
DAV:   1    -0.832428971337E+03   -0.57509E-03   -0.12146E-02  4500   0.160E-01    0.252E-02
DAV:   2    -0.832428988512E+03   -0.17175E-04   -0.23714E-04  4620   0.213E-02    0.167E-02
DAV:   3    -0.832428988741E+03   -0.22959E-06   -0.35558E-06  3160   0.342E-03
  44 F= -.84009852E+03 E0= -.84009852E+03  d E =-.576882E-03  mag=     0.0000
quench:  g(F)=  0.000E+00 g(S)=  0.000E+00 dE (1.order)= 0.000E+00
 bond charge predicted
       N       E                     dE             d eps       ncg     rms          rms(c)
DAV:   1    -0.832429554551E+03   -0.56604E-03   -0.16720E-02  4500   0.202E-01    0.285E-02
DAV:   2    -0.832429580190E+03   -0.25640E-04   -0.33886E-04  4500   0.270E-02    0.192E-02
DAV:   3    -0.832429580175E+03    0.15345E-07   -0.45793E-06  3050   0.401E-03
  45 F= -.84009909E+03 E0= -.84009909E+03  d E =-.571142E-03  mag=     0.0000
quench:  g(F)=  0.000E+00 g(S)=  0.000E+00 dE (1.order)= 0.000E+00
 bond charge predicted
       N       E                     dE             d eps       ncg     rms          rms(c)
DAV:   1    -0.832430085405E+03   -0.50521E-03   -0.24344E-02  4500   0.269E-01    0.326E-02
DAV:   2    -0.832430126024E+03   -0.40619E-04   -0.51419E-04  4460   0.366E-02    0.220E-02
DAV:   3    -0.832430125806E+03    0.21788E-06   -0.65714E-06  3320   0.513E-03
  46 F= -.84009961E+03 E0= -.84009961E+03  d E =-.520901E-03  mag=     0.0000
quench:  g(F)=  0.000E+00 g(S)=  0.000E+00 dE (1.order)= 0.000E+00
 bond charge predicted
       N       E                     dE             d eps       ncg     rms          rms(c)
DAV:   1    -0.832430561920E+03   -0.43590E-03   -0.36803E-02  4520   0.347E-01    0.387E-02
DAV:   2    -0.832430626638E+03   -0.64717E-04   -0.80026E-04  4460   0.477E-02    0.263E-02
DAV:   3    -0.832430626172E+03    0.46539E-06   -0.99475E-06  3620   0.648E-03
  47 F= -.84010009E+03 E0= -.84010009E+03  d E =-.471384E-03  mag=     0.0000
quench:  g(F)=  0.000E+00 g(S)=  0.000E+00 dE (1.order)= 0.000E+00
 bond charge predicted
       N       E                     dE             d eps       ncg     rms          rms(c)
DAV:   1    -0.832431079461E+03   -0.45282E-03   -0.66093E-02  4520   0.471E-01    0.514E-02
DAV:   2    -0.832431197642E+03   -0.11818E-03   -0.14554E-03  4430   0.649E-02    0.348E-02
DAV:   3    -0.832431196790E+03    0.85169E-06   -0.18688E-05  3980   0.877E-03
  48 F= -.84010062E+03 E0= -.84010062E+03  d E =-.533518E-03  mag=     0.0000
quench:  g(F)=  0.000E+00 g(S)=  0.000E+00 dE (1.order)= 0.000E+00
 bond charge predicted
       N       E                     dE             d eps       ncg     rms          rms(c)
DAV:   1    -0.832431651088E+03   -0.45345E-03   -0.11362E-01  4520   0.619E-01    0.678E-02
DAV:   2    -0.832431852570E+03   -0.20148E-03   -0.25052E-03  4420   0.854E-02    0.459E-02
DAV:   3    -0.832431851196E+03    0.13737E-05   -0.33921E-05  4560   0.116E-02
  49 F= -.84010123E+03 E0= -.84010123E+03  d E =-.607215E-03  mag=     0.0000
quench:  g(F)=  0.000E+00 g(S)=  0.000E+00 dE (1.order)= 0.000E+00
 bond charge predicted
       N       E                     dE             d eps       ncg     rms          rms(c)
DAV:   1    -0.832432311710E+03   -0.45914E-03   -0.18731E-01  4520   0.796E-01    0.879E-02
DAV:   2    -0.832432641605E+03   -0.32990E-03   -0.41264E-03  4420   0.110E-01    0.597E-02
DAV:   3    -0.832432639233E+03    0.23721E-05   -0.58223E-05  4760   0.151E-02
  50 F= -.84010195E+03 E0= -.84010195E+03  d E =-.726805E-03  mag=     0.0000
quench:  g(F)=  0.000E+00 g(S)=  0.000E+00 dE (1.order)= 0.000E+00
 bond charge predicted
       N       E                     dE             d eps       ncg     rms          rms(c)
DAV:   1    -0.832433095773E+03   -0.45417E-03   -0.29648E-01  4520   0.100E+00    0.111E-01
DAV:   2    -0.832433617364E+03   -0.52159E-03   -0.65066E-03  4410   0.138E-01    0.761E-02
DAV:   3    -0.832433614569E+03    0.27949E-05   -0.93182E-05  5020   0.192E-02
  51 F= -.84010285E+03 E0= -.84010285E+03  d E =-.897040E-03  mag=     0.0000
quench:  g(F)=  0.000E+00 g(S)=  0.000E+00 dE (1.order)= 0.000E+00
 bond charge predicted
       N       E                     dE             d eps       ncg     rms          rms(c)
DAV:   1    -0.832434085349E+03   -0.46798E-03   -0.46184E-01  4520   0.126E+00    0.137E-01
DAV:   2    -0.832434911284E+03   -0.82594E-03   -0.10102E-02  4400   0.173E-01    0.951E-02
DAV:   3    -0.832434902564E+03    0.87193E-05   -0.14241E-04  5240   0.237E-02    0.724E-02
DAV:   4    -0.832435003130E+03   -0.10057E-03   -0.16270E-04  4460   0.279E-02    0.168E-02
DAV:   5    -0.832435011946E+03   -0.88168E-05   -0.42041E-05  4900   0.115E-02
  52 F= -.84010415E+03 E0= -.84010415E+03  d E =-.130330E-02  mag=     0.0000
quench:  g(F)=  0.000E+00 g(S)=  0.000E+00 dE (1.order)= 0.000E+00
 bond charge predicted
       N       E                     dE             d eps       ncg     rms          rms(c)
DAV:   1    -0.832435221722E+03   -0.21859E-03   -0.73855E-01  4540   0.159E+00    0.164E-01
DAV:   2    -0.832436684874E+03   -0.14632E-02   -0.17124E-02  4570   0.225E-01    0.110E-01
DAV:   3    -0.832436645310E+03    0.39564E-04   -0.22636E-04  5180   0.302E-02    0.852E-02
DAV:   4    -0.832436751869E+03   -0.10656E-03   -0.31586E-04  4550   0.378E-02    0.222E-02
DAV:   5    -0.832436761832E+03   -0.99624E-05   -0.68134E-05  4980   0.150E-02
  53 F= -.84010579E+03 E0= -.84010579E+03  d E =-.163817E-02  mag=     0.0000
quench:  g(F)=  0.000E+00 g(S)=  0.000E+00 dE (1.order)= 0.000E+00
 bond charge predicted
       N       E                     dE             d eps       ncg     rms          rms(c)
DAV:   1    -0.832436575791E+03    0.17608E-03   -0.11556E+00  4540   0.197E+00    0.206E-01
DAV:   2    -0.832438893012E+03   -0.23172E-02   -0.26903E-02  4580   0.279E-01    0.137E-01
DAV:   3    -0.832438835928E+03    0.57084E-04   -0.34755E-04  5160   0.371E-02    0.106E-01
DAV:   4    -0.832438981818E+03   -0.14589E-03   -0.48141E-04  4550   0.460E-02    0.273E-02
DAV:   5    -0.832438998854E+03   -0.17036E-04   -0.10200E-04  5020   0.182E-02    0.193E-02
DAV:   6    -0.832438998793E+03    0.60689E-07   -0.36853E-05  3870   0.124E-02
  54 F= -.84010789E+03 E0= -.84010789E+03  d E =-.209553E-02  mag=    -0.0000
quench:  g(F)=  0.000E+00 g(S)=  0.000E+00 dE (1.order)= 0.000E+00
 bond charge predicted
       N       E                     dE             d eps       ncg     rms          rms(c)
DAV:   1    -0.832438307773E+03    0.69108E-03   -0.17711E+00  4540   0.241E+00    0.256E-01
DAV:   2    -0.832441868522E+03   -0.35607E-02   -0.41123E-02  4590   0.340E-01    0.168E-01
DAV:   3    -0.832441776104E+03    0.92419E-04   -0.52407E-04  5120   0.450E-02    0.129E-01
DAV:   4    -0.832441962822E+03   -0.18672E-03   -0.71224E-04  4610   0.546E-02    0.326E-02
DAV:   5    -0.832441991007E+03   -0.28185E-04   -0.14901E-04  5020   0.217E-02    0.229E-02
DAV:   6    -0.832441991758E+03   -0.75041E-06   -0.51530E-05  4100   0.143E-02
  55 F= -.84011069E+03 E0= -.84011069E+03  d E =-.280709E-02  mag=    -0.0000
quench:  g(F)=  0.000E+00 g(S)=  0.000E+00 dE (1.order)= 0.000E+00
 bond charge predicted
       N       E                     dE             d eps       ncg     rms          rms(c)
DAV:   1    -0.832440305934E+03    0.16851E-02   -0.26147E+00  4540   0.290E+00    0.313E-01
DAV:   2    -0.832445602354E+03   -0.52964E-02   -0.60822E-02  4610   0.408E-01    0.204E-01
DAV:   3    -0.832445464655E+03    0.13770E-03   -0.76732E-04  5140   0.540E-02    0.158E-01
DAV:   4    -0.832445736599E+03   -0.27194E-03   -0.11328E-03  4830   0.669E-02    0.402E-02
DAV:   5    -0.832445765570E+03   -0.28971E-04   -0.21703E-04  5000   0.261E-02    0.294E-02
DAV:   6    -0.832445764864E+03    0.70614E-06   -0.93286E-05  4220   0.180E-02
  56 F= -.84011424E+03 E0= -.84011424E+03  d E =-.354642E-02  mag=    -0.0000
quench:  g(F)=  0.000E+00 g(S)=  0.000E+00 dE (1.order)= 0.000E+00
 bond charge predicted
       N       E                     dE             d eps       ncg     rms          rms(c)
DAV:   1    -0.832442816258E+03    0.29493E-02   -0.37697E+00  4540   0.346E+00    0.378E-01
DAV:   2    -0.832450517448E+03   -0.77012E-02   -0.87900E-02  4610   0.487E-01    0.247E-01
DAV:   3    -0.832450325661E+03    0.19179E-03   -0.11056E-03  5140   0.644E-02    0.191E-01
DAV:   4    -0.832450705744E+03   -0.38008E-03   -0.17833E-03  5210   0.814E-02    0.507E-02
DAV:   5    -0.832450734521E+03   -0.28777E-04   -0.30829E-04  5060   0.311E-02    0.381E-02
DAV:   6    -0.832450733121E+03    0.13997E-05   -0.17367E-04  4220   0.230E-02    0.149E-02
DAV:   7    -0.832450735198E+03   -0.20771E-05   -0.16385E-05  3920   0.723E-03
  57 F= -.84011893E+03 E0= -.84011893E+03  d E =-.469372E-02  mag=    -0.0000
quench:  g(F)=  0.000E+00 g(S)=  0.000E+00 dE (1.order)= 0.000E+00
 bond charge predicted
       N       E                     dE             d eps       ncg     rms          rms(c)
DAV:   1    -0.832445054171E+03    0.56790E-02   -0.55396E+00  4540   0.415E+00    0.464E-01
DAV:   2    -0.832456429849E+03   -0.11376E-01   -0.13002E-01  4630   0.584E-01    0.299E-01
DAV:   3    -0.832456125202E+03    0.30465E-03   -0.16390E-03  5140   0.773E-02    0.231E-01
DAV:   4    -0.832456594914E+03   -0.46971E-03   -0.26111E-03  5260   0.973E-02    0.600E-02
DAV:   5    -0.832456646909E+03   -0.51995E-04   -0.45928E-04  5080   0.370E-02    0.457E-02
DAV:   6    -0.832456639059E+03    0.78499E-05   -0.23700E-04  4300   0.271E-02    0.184E-02
DAV:   7    -0.832456642205E+03   -0.31459E-05   -0.25373E-05  4060   0.899E-03
  58 F= -.84012450E+03 E0= -.84012450E+03  d E =-.556817E-02  mag=    -0.0000
quench:  g(F)=  0.000E+00 g(S)=  0.000E+00 dE (1.order)= 0.000E+00
 bond charge predicted
       N       E                     dE             d eps       ncg     rms          rms(c)
DAV:   1    -0.832447177407E+03    0.94617E-02   -0.74208E+00  4540   0.485E+00    0.538E-01
DAV:   2    -0.832462656863E+03   -0.15479E-01   -0.17584E-01  4650   0.685E-01    0.351E-01
DAV:   3    -0.832462201788E+03    0.45508E-03   -0.23070E-03  5220   0.928E-02    0.271E-01
DAV:   4    -0.832462751986E+03   -0.55020E-03   -0.35915E-03  5280   0.115E-01    0.746E-02
DAV:   5    -0.832462832888E+03   -0.80902E-04   -0.65401E-04  5060   0.443E-02    0.552E-02
DAV:   6    -0.832462821923E+03    0.10965E-04   -0.34452E-04  4400   0.309E-02    0.218E-02
DAV:   7    -0.832462825446E+03   -0.35229E-05   -0.33148E-05  4260   0.101E-02
  59 F= -.84013033E+03 E0= -.84013033E+03  d E =-.583069E-02  mag=    -0.0000
quench:  g(F)=  0.000E+00 g(S)=  0.000E+00 dE (1.order)= 0.000E+00
 bond charge predicted
       N       E                     dE             d eps       ncg     rms          rms(c)
DAV:   1    -0.832442058574E+03    0.20763E-01   -0.10721E+01  4520   0.587E+00    0.652E-01
DAV:   2    -0.832465392652E+03   -0.23334E-01   -0.26433E-01  4680   0.845E-01    0.437E-01
DAV:   3    -0.832464455306E+03    0.93735E-03   -0.38149E-03  5460   0.119E-01    0.340E-01
DAV:   4    -0.832464667440E+03   -0.21213E-03   -0.57844E-03  4920   0.149E-01    0.100E-01
DAV:   5    -0.832464882930E+03   -0.21549E-03   -0.12418E-03  4900   0.594E-02    0.721E-02
DAV:   6    -0.832464862248E+03    0.20682E-04   -0.52114E-04  4700   0.416E-02    0.289E-02
DAV:   7    -0.832464871299E+03   -0.90509E-05   -0.59816E-05  4880   0.137E-02
  60 F= -.84013189E+03 E0= -.84013189E+03  d E =-.155608E-02  mag=    -0.0000
quench:  g(F)=  0.000E+00 g(S)=  0.000E+00 dE (1.order)= 0.000E+00
 bond charge predicted
       N       E                     dE             d eps       ncg     rms          rms(c)
DAV:   1    -0.832471007454E+03   -0.61452E-02   -0.38305E-01  4510   0.120E+00    0.140E-01
DAV:   2    -0.832471784994E+03   -0.77754E-03   -0.10584E-02  5340   0.185E-01    0.125E-01
DAV:   3    -0.832471637470E+03    0.14752E-03   -0.38173E-04  5700   0.383E-02    0.101E-01
DAV:   4    -0.832471466121E+03    0.17135E-03   -0.33095E-04  4620   0.374E-02    0.464E-02
DAV:   5    -0.832471458821E+03    0.72995E-05   -0.15670E-04  4820   0.221E-02    0.188E-02
DAV:   6    -0.832471459054E+03   -0.23252E-06   -0.17625E-05  3320   0.832E-03
  61 F= -.84013852E+03 E0= -.84013852E+03  d E =-.663143E-02  mag=    -0.0000
quench:  g(F)=  0.000E+00 g(S)=  0.000E+00 dE (1.order)= 0.000E+00
 bond charge predicted
       N       E                     dE             d eps       ncg     rms          rms(c)
DAV:   1    -0.832471476237E+03   -0.17416E-04   -0.50136E-04  4380   0.448E-02    0.652E-03
DAV:   2    -0.832471477001E+03   -0.76363E-06   -0.12608E-05  2970   0.689E-03
  62 F= -.84013854E+03 E0= -.84013854E+03  d E =-.155981E-04  mag=     0.0000
quench:  g(F)=  0.000E+00 g(S)=  0.000E+00 dE (1.order)= 0.000E+00
 bond charge predicted
       N       E                     dE             d eps       ncg     rms          rms(c)
DAV:   1    -0.832471477342E+03   -0.11049E-05   -0.21039E-03  4480   0.917E-02    0.102E-02
DAV:   2    -0.832471481151E+03   -0.38084E-05   -0.50677E-05  4400   0.132E-02
  63 F= -.84013854E+03 E0= -.84013854E+03  d E =-.113442E-06  mag=     0.0000
quench:  g(F)=  0.000E+00 g(S)=  0.000E+00 dE (1.order)= 0.000E+00
 bond charge predicted
       N       E                     dE             d eps       ncg     rms          rms(c)
DAV:   1    -0.832471422660E+03    0.54683E-04   -0.51614E-03  4480   0.143E-01    0.172E-02
DAV:   2    -0.832471431362E+03   -0.87019E-05   -0.12254E-04  4620   0.205E-02    0.138E-02
DAV:   3    -0.832471430898E+03    0.46318E-06   -0.20960E-06  2420   0.343E-03
  64 F= -.84013848E+03 E0= -.84013848E+03  d E =0.549046E-04  mag=     0.0000
quench:  g(F)=  0.000E+00 g(S)=  0.000E+00 dE (1.order)= 0.000E+00
 bond charge predicted
       N       E                     dE             d eps       ncg     rms          rms(c)
DAV:   1    -0.832471266442E+03    0.16492E-03   -0.10418E-02  4460   0.202E-01    0.193E-02
DAV:   2    -0.832471286654E+03   -0.20212E-04   -0.23867E-04  4540   0.281E-02    0.140E-02
DAV:   3    -0.832471286452E+03    0.20241E-06   -0.26822E-06  2680   0.381E-03
  65 F= -.84013833E+03 E0= -.84013833E+03  d E =0.148772E-03  mag=     0.0000
quench:  g(F)=  0.000E+00 g(S)=  0.000E+00 dE (1.order)= 0.000E+00
 bond charge predicted
       N       E                     dE             d eps       ncg     rms          rms(c)
DAV:   1    -0.832470961458E+03    0.32520E-03   -0.19897E-02  4480   0.278E-01    0.263E-02
DAV:   2    -0.832471000719E+03   -0.39260E-04   -0.45955E-04  4480   0.387E-02    0.187E-02
DAV:   3    -0.832471000142E+03    0.57672E-06   -0.53499E-06  3110   0.524E-03
  66 F= -.84013804E+03 E0= -.84013804E+03  d E =0.289194E-03  mag=     0.0000
quench:  g(F)=  0.000E+00 g(S)=  0.000E+00 dE (1.order)= 0.000E+00
 bond charge predicted
       N       E                     dE             d eps       ncg     rms          rms(c)
DAV:   1    -0.832470449867E+03    0.55085E-03   -0.36056E-02  4460   0.371E-01    0.359E-02
DAV:   2    -0.832470520150E+03   -0.70283E-04   -0.82813E-04  4470   0.514E-02    0.255E-02
DAV:   3    -0.832470519437E+03    0.71270E-06   -0.99112E-06  3620   0.694E-03
  67 F= -.84013756E+03 E0= -.84013756E+03  d E =0.481089E-03  mag=     0.0000
quench:  g(F)=  0.000E+00 g(S)=  0.000E+00 dE (1.order)= 0.000E+00
 bond charge predicted
       N       E                     dE             d eps       ncg     rms          rms(c)
DAV:   1    -0.832469522863E+03    0.99729E-03   -0.79870E-02  4480   0.546E-01    0.539E-02
DAV:   2    -0.832469677411E+03   -0.15455E-03   -0.18282E-03  4440   0.756E-02    0.381E-02
DAV:   3    -0.832469675808E+03    0.16029E-05   -0.23672E-05  4440   0.102E-02
  68 F= -.84013672E+03 E0= -.84013672E+03  d E =0.840328E-03  mag=     0.0000
quench:  g(F)=  0.000E+00 g(S)=  0.000E+00 dE (1.order)= 0.000E+00
 bond charge predicted
       N       E                     dE             d eps       ncg     rms          rms(c)
DAV:   1    -0.832467974526E+03    0.17029E-02   -0.17366E-01  4480   0.798E-01    0.808E-02
DAV:   2    -0.832468304414E+03   -0.32989E-03   -0.39427E-03  4400   0.110E-01    0.570E-02
DAV:   3    -0.832468301399E+03    0.30152E-05   -0.52814E-05  4920   0.150E-02
  69 F= -.84013536E+03 E0= -.84013536E+03  d E =0.136523E-02  mag=     0.0000
quench:  g(F)=  0.000E+00 g(S)=  0.000E+00 dE (1.order)= 0.000E+00
 bond charge predicted
       N       E                     dE             d eps       ncg     rms          rms(c)
DAV:   1    -0.832465713877E+03    0.25905E-02   -0.33228E-01  4480   0.110E+00    0.112E-01
DAV:   2    -0.832466342455E+03   -0.62858E-03   -0.75084E-03  4400   0.152E-01    0.797E-02
DAV:   3    -0.832466336830E+03    0.56244E-05   -0.99925E-05  5180   0.205E-02
  70 F= -.84013341E+03 E0= -.84013341E+03  d E =0.195040E-02  mag=     0.0000
quench:  g(F)=  0.000E+00 g(S)=  0.000E+00 dE (1.order)= 0.000E+00
 bond charge predicted
       N       E                     dE             d eps       ncg     rms          rms(c)
DAV:   1    -0.832462609260E+03    0.37332E-02   -0.57514E-01  4480   0.145E+00    0.148E-01
DAV:   2    -0.832463708984E+03   -0.10997E-02   -0.12981E-02  4400   0.199E-01    0.105E-01
DAV:   3    -0.832463697530E+03    0.11453E-04   -0.17137E-04  5320   0.268E-02    0.820E-02
DAV:   4    -0.832463783644E+03   -0.86114E-04   -0.18830E-04  4380   0.306E-02    0.204E-02
DAV:   5    -0.832463796792E+03   -0.13148E-04   -0.51901E-05  4800   0.130E-02    0.121E-02
DAV:   6    -0.832463795059E+03    0.17334E-05   -0.96796E-06  3380   0.713E-03
  71 F= -.84013088E+03 E0= -.84013088E+03  d E =0.252431E-02  mag=     0.0000
quench:  g(F)=  0.000E+00 g(S)=  0.000E+00 dE (1.order)= 0.000E+00
 bond charge predicted
       N       E                     dE             d eps       ncg     rms          rms(c)
DAV:   1    -0.832458577519E+03    0.52193E-02   -0.92341E-01  4480   0.184E+00    0.173E-01
DAV:   2    -0.832460502639E+03   -0.19251E-02   -0.21956E-02  4500   0.261E-01    0.121E-01
DAV:   3    -0.832460455711E+03    0.46928E-04   -0.27629E-04  5240   0.343E-02    0.954E-02
DAV:   4    -0.832460525967E+03   -0.70256E-04   -0.34504E-04  4510   0.410E-02    0.264E-02
DAV:   5    -0.832460545531E+03   -0.19565E-04   -0.83722E-05  4880   0.167E-02    0.165E-02
DAV:   6    -0.832460544138E+03    0.13937E-05   -0.19740E-05  3740   0.103E-02
  72 F= -.84012765E+03 E0= -.84012765E+03  d E =0.323355E-02  mag=     0.0000
quench:  g(F)=  0.000E+00 g(S)=  0.000E+00 dE (1.order)= 0.000E+00
 bond charge predicted
       N       E                     dE             d eps       ncg     rms          rms(c)
DAV:   1    -0.832453859189E+03    0.66863E-02   -0.13381E+00  4480   0.224E+00    0.208E-01
DAV:   2    -0.832456699240E+03   -0.28401E-02   -0.32048E-02  4540   0.317E-01    0.144E-01
DAV:   3    -0.832456631700E+03    0.67540E-04   -0.39988E-04  5280   0.415E-02    0.114E-01
DAV:   4    -0.832456715854E+03   -0.84154E-04   -0.46825E-04  4520   0.488E-02    0.319E-02
DAV:   5    -0.832456745662E+03   -0.29808E-04   -0.11970E-04  4900   0.200E-02    0.194E-02
DAV:   6    -0.832456745052E+03    0.60955E-06   -0.27349E-05  4020   0.124E-02
  73 F= -.84012386E+03 E0= -.84012386E+03  d E =0.379134E-02  mag=     0.0000
quench:  g(F)=  0.000E+00 g(S)=  0.000E+00 dE (1.order)= 0.000E+00
 bond charge predicted
       N       E                     dE             d eps       ncg     rms          rms(c)
DAV:   1    -0.832449265946E+03    0.74797E-02   -0.16786E+00  4480   0.253E+00    0.230E-01
DAV:   2    -0.832452877204E+03   -0.36113E-02   -0.40601E-02  4560   0.360E-01    0.159E-01
DAV:   3    -0.832452792525E+03    0.84680E-04   -0.51127E-04  5320   0.473E-02    0.125E-01
DAV:   4    -0.832452880896E+03   -0.88371E-04   -0.51988E-04  4640   0.536E-02    0.359E-02
DAV:   5    -0.832452923790E+03   -0.42894E-04   -0.14913E-04  4860   0.224E-02    0.204E-02
DAV:   6    -0.832452923639E+03    0.15094E-06   -0.28235E-05  4080   0.132E-02
  74 F= -.84012002E+03 E0= -.84012002E+03  d E =0.383622E-02  mag=     0.0000
quench:  g(F)=  0.000E+00 g(S)=  0.000E+00 dE (1.order)= 0.000E+00
 bond charge predicted
       N       E                     dE             d eps       ncg     rms          rms(c)
DAV:   1    -0.832453038408E+03   -0.11462E-03   -0.45670E-04  4380   0.316E-02    0.702E-03
DAV:   2    -0.832453039038E+03   -0.62977E-06   -0.99392E-06  3240   0.519E-03
  75 F= -.84012013E+03 E0= -.84012013E+03  d E =-.112040E-03  mag=     0.0000
quench:  g(F)=  0.000E+00 g(S)=  0.000E+00 dE (1.order)= 0.000E+00
 bond charge predicted
       N       E                     dE             d eps       ncg     rms          rms(c)
DAV:   1    -0.832453257374E+03   -0.21897E-03   -0.17260E-03  4380   0.596E-02    0.105E-02
DAV:   2    -0.832453259721E+03   -0.23461E-05   -0.33895E-05  3520   0.832E-03
  76 F= -.84012035E+03 E0= -.84012035E+03  d E =-.213952E-03  mag=     0.0000
quench:  g(F)=  0.000E+00 g(S)=  0.000E+00 dE (1.order)= 0.000E+00
 bond charge predicted
       N       E                     dE             d eps       ncg     rms          rms(c)
DAV:   1    -0.832453573036E+03   -0.31566E-03   -0.37275E-03  4510   0.855E-02    0.176E-02
DAV:   2    -0.832453576421E+03   -0.33859E-05   -0.69850E-05  3840   0.115E-02
  77 F= -.84012065E+03 E0= -.84012065E+03  d E =-.306544E-03  mag=     0.0000
quench:  g(F)=  0.000E+00 g(S)=  0.000E+00 dE (1.order)= 0.000E+00
 bond charge predicted
       N       E                     dE             d eps       ncg     rms          rms(c)
DAV:   1    -0.832453977086E+03   -0.40405E-03   -0.63622E-03  4500   0.109E-01    0.249E-02
DAV:   2    -0.832453982383E+03   -0.52964E-05   -0.11601E-04  3980   0.144E-02    0.187E-02
DAV:   3    -0.832453983572E+03   -0.11890E-05   -0.31731E-06  2920   0.336E-03
  78 F= -.84012105E+03 E0= -.84012105E+03  d E =-.393544E-03  mag=     0.0000
quench:  g(F)=  0.000E+00 g(S)=  0.000E+00 dE (1.order)= 0.000E+00
 bond charge predicted
       N       E                     dE             d eps       ncg     rms          rms(c)
DAV:   1    -0.832454463100E+03   -0.48072E-03   -0.94139E-03  4480   0.131E-01    0.223E-02
DAV:   2    -0.832454474752E+03   -0.11652E-04   -0.17151E-04  4140   0.169E-02    0.145E-02
DAV:   3    -0.832454475230E+03   -0.47790E-06   -0.27970E-06  3040   0.287E-03
  79 F= -.84012152E+03 E0= -.84012152E+03  d E =-.474326E-03  mag=     0.0000
quench:  g(F)=  0.000E+00 g(S)=  0.000E+00 dE (1.order)= 0.000E+00
 bond charge predicted
       N       E                     dE             d eps       ncg     rms          rms(c)
DAV:   1    -0.832455016330E+03   -0.54158E-03   -0.13249E-02  4520   0.156E-01    0.258E-02
DAV:   2    -0.832455033634E+03   -0.17304E-04   -0.24578E-04  4360   0.201E-02    0.169E-02
DAV:   3    -0.832455033736E+03   -0.10174E-06   -0.36651E-06  2880   0.313E-03
  80 F= -.84012206E+03 E0= -.84012206E+03  d E =-.537929E-03  mag=     0.0000
quench:  g(F)=  0.000E+00 g(S)=  0.000E+00 dE (1.order)= 0.000E+00
 bond charge predicted
       N       E                     dE             d eps       ncg     rms          rms(c)
DAV:   1    -0.832455684417E+03   -0.65078E-03   -0.21204E-02  4520   0.201E-01    0.327E-02
DAV:   2    -0.832455712765E+03   -0.28348E-04   -0.39917E-04  4460   0.260E-02    0.214E-02
DAV:   3    -0.832455712914E+03   -0.14849E-06   -0.58529E-06  3220   0.390E-03
  81 F= -.84012271E+03 E0= -.84012271E+03  d E =-.653058E-03  mag=     0.0000
quench:  g(F)=  0.000E+00 g(S)=  0.000E+00 dE (1.order)= 0.000E+00
 bond charge predicted
       N       E                     dE             d eps       ncg     rms          rms(c)
DAV:   1    -0.832456467655E+03   -0.75489E-03   -0.32698E-02  4540   0.258E-01    0.406E-02
DAV:   2    -0.832456512893E+03   -0.45238E-04   -0.63066E-04  4440   0.339E-02    0.266E-02
DAV:   3    -0.832456513175E+03   -0.28166E-06   -0.92020E-06  3400   0.503E-03
  82 F= -.84012348E+03 E0= -.84012348E+03  d E =-.768632E-03  mag=     0.0000
quench:  g(F)=  0.000E+00 g(S)=  0.000E+00 dE (1.order)= 0.000E+00
 bond charge predicted
       N       E                     dE             d eps       ncg     rms          rms(c)
DAV:   1    -0.832457355154E+03   -0.84226E-03   -0.48551E-02  4520   0.330E-01    0.491E-02
DAV:   2    -0.832457425087E+03   -0.69933E-04   -0.96041E-04  4405   0.439E-02    0.323E-02
DAV:   3    -0.832457425374E+03   -0.28689E-06   -0.13815E-05  3560   0.644E-03
  83 F= -.84012436E+03 E0= -.84012436E+03  d E =-.874296E-03  mag=     0.0000
quench:  g(F)=  0.000E+00 g(S)=  0.000E+00 dE (1.order)= 0.000E+00
 bond charge predicted
       N       E                     dE             d eps       ncg     rms          rms(c)
DAV:   1    -0.832458310169E+03   -0.88508E-03   -0.70563E-02  4520   0.424E-01    0.581E-02
DAV:   2    -0.832458417101E+03   -0.10693E-03   -0.14368E-03  4400   0.569E-02    0.384E-02
DAV:   3    -0.832458417715E+03   -0.61335E-06   -0.20094E-05  3800   0.815E-03
  84 F= -.84012530E+03 E0= -.84012530E+03  d E =-.948265E-03  mag=     0.0000
quench:  g(F)=  0.000E+00 g(S)=  0.000E+00 dE (1.order)= 0.000E+00
 bond charge predicted
       N       E                     dE             d eps       ncg     rms          rms(c)
DAV:   1    -0.832459270512E+03   -0.85341E-03   -0.10271E-01  4500   0.547E-01    0.681E-02
DAV:   2    -0.832459435443E+03   -0.16493E-03   -0.21606E-03  4400   0.743E-02    0.456E-02
DAV:   3    -0.832459436535E+03   -0.10914E-05   -0.30116E-05  4100   0.104E-02
  85 F= -.84012627E+03 E0= -.84012627E+03  d E =-.970384E-03  mag=     0.0000
quench:  g(F)=  0.000E+00 g(S)=  0.000E+00 dE (1.order)= 0.000E+00
 bond charge predicted
       N       E                     dE             d eps       ncg     rms          rms(c)
DAV:   1    -0.832460130763E+03   -0.69532E-03   -0.15205E-01  4500   0.706E-01    0.804E-02
DAV:   2    -0.832460385087E+03   -0.25432E-03   -0.32786E-03  4400   0.967E-02    0.547E-02
DAV:   3    -0.832460386341E+03   -0.12538E-05   -0.46806E-05  4500   0.135E-02
  86 F= -.84012717E+03 E0= -.84012717E+03  d E =-.898491E-03  mag=     0.0000
quench:  g(F)=  0.000E+00 g(S)=  0.000E+00 dE (1.order)= 0.000E+00
 bond charge predicted
       N       E                     dE             d eps       ncg     rms          rms(c)
DAV:   1    -0.832460784837E+03   -0.39975E-03   -0.23081E-01  4500   0.908E-01    0.962E-02
DAV:   2    -0.832461181293E+03   -0.39646E-03   -0.50581E-03  4400   0.125E-01    0.669E-02
DAV:   3    -0.832461182847E+03   -0.15545E-05   -0.73266E-05  4780   0.174E-02
  87 F= -.84012792E+03 E0= -.84012792E+03  d E =-.744300E-03  mag=     0.0000
quench:  g(F)=  0.000E+00 g(S)=  0.000E+00 dE (1.order)= 0.000E+00
 bond charge predicted
       N       E                     dE             d eps       ncg     rms          rms(c)
DAV:   1    -0.832461070796E+03    0.11050E-03   -0.36503E-01  4500   0.117E+00    0.117E-01
DAV:   2    -0.832461714941E+03   -0.64415E-03   -0.80740E-03  4420   0.162E-01    0.834E-02
DAV:   3    -0.832461713601E+03    0.13402E-05   -0.11714E-04  5020   0.223E-02    0.635E-02
DAV:   4    -0.832461795562E+03   -0.81961E-04   -0.12216E-04  4380   0.256E-02    0.151E-02
DAV:   5    -0.832461802772E+03   -0.72097E-05   -0.37158E-05  4680   0.109E-02
  88 F= -.84012849E+03 E0= -.84012849E+03  d E =-.570392E-03  mag=     0.0000
quench:  g(F)=  0.000E+00 g(S)=  0.000E+00 dE (1.order)= 0.000E+00
 bond charge predicted
       N       E                     dE             d eps       ncg     rms          rms(c)
DAV:   1    -0.832460783772E+03    0.10118E-02   -0.60688E-01  4500   0.153E+00    0.141E-01
DAV:   2    -0.832461976380E+03   -0.11926E-02   -0.14281E-02  4540   0.219E-01    0.991E-02
DAV:   3    -0.832461947358E+03    0.29021E-04   -0.20128E-04  5240   0.295E-02    0.762E-02
DAV:   4    -0.832462026445E+03   -0.79087E-04   -0.22354E-04  4500   0.346E-02    0.205E-02
DAV:   5    -0.832462039687E+03   -0.13242E-04   -0.62980E-05  4780   0.145E-02    0.116E-02
DAV:   6    -0.832462041004E+03   -0.13177E-05   -0.90644E-06  3100   0.702E-03
  89 F= -.84012868E+03 E0= -.84012868E+03  d E =-.188492E-03  mag=     0.0000
quench:  g(F)=  0.000E+00 g(S)=  0.000E+00 dE (1.order)= 0.000E+00
 bond charge predicted
       N       E                     dE             d eps       ncg     rms          rms(c)
DAV:   1    -0.832459892170E+03    0.21475E-02   -0.96836E-01  4500   0.195E+00    0.174E-01
DAV:   2    -0.832461831649E+03   -0.19395E-02   -0.22867E-02  4550   0.278E-01    0.124E-01
DAV:   3    -0.832461773354E+03    0.58295E-04   -0.32133E-04  5260   0.374E-02    0.955E-02
DAV:   4    -0.832461868504E+03   -0.95151E-04   -0.34669E-04  4570   0.435E-02    0.266E-02
DAV:   5    -0.832461890892E+03   -0.22388E-04   -0.98643E-05  4840   0.182E-02    0.148E-02
DAV:   6    -0.832461893163E+03   -0.22710E-05   -0.14212E-05  3440   0.898E-03
  90 F= -.84012847E+03 E0= -.84012847E+03  d E =0.205356E-03  mag=     0.0000
quench:  g(F)=  0.000E+00 g(S)=  0.000E+00 dE (1.order)= 0.000E+00
 bond charge predicted
       N       E                     dE             d eps       ncg     rms          rms(c)
DAV:   1    -0.832458310904E+03    0.35800E-02   -0.14911E+00  4500   0.242E+00    0.215E-01
DAV:   2    -0.832461345165E+03   -0.30343E-02   -0.35360E-02  4570   0.346E-01    0.153E-01
DAV:   3    -0.832461248746E+03    0.96419E-04   -0.49315E-04  5260   0.463E-02    0.118E-01
DAV:   4    -0.832461377674E+03   -0.12893E-03   -0.51149E-04  4700   0.530E-02    0.331E-02
DAV:   5    -0.832461411006E+03   -0.33331E-04   -0.14606E-04  4820   0.223E-02    0.180E-02
DAV:   6    -0.832461414434E+03   -0.34284E-05   -0.22421E-05  3760   0.110E-02
  91 F= -.84012793E+03 E0= -.84012792E+03  d E =0.545845E-03  mag=     0.0000
quench:  g(F)=  0.000E+00 g(S)=  0.000E+00 dE (1.order)= 0.000E+00
 bond charge predicted
       N       E                     dE             d eps       ncg     rms          rms(c)
DAV:   1    -0.832456423623E+03    0.49874E-02   -0.21905E+00  4500   0.292E+00    0.262E-01
DAV:   2    -0.832460866404E+03   -0.44428E-02   -0.51670E-02  4550   0.418E-01    0.186E-01
DAV:   3    -0.832460720810E+03    0.14559E-03   -0.72633E-04  5280   0.562E-02    0.143E-01
DAV:   4    -0.832460881624E+03   -0.16081E-03   -0.78316E-04  4870   0.643E-02    0.400E-02
DAV:   5    -0.832460930253E+03   -0.48629E-04   -0.21620E-04  4760   0.271E-02    0.215E-02
DAV:   6    -0.832460935313E+03   -0.50603E-05   -0.30685E-05  4100   0.125E-02
  92 F= -.84012733E+03 E0= -.84012733E+03  d E =0.596028E-03  mag=     0.0000
quench:  g(F)=  0.000E+00 g(S)=  0.000E+00 dE (1.order)= 0.000E+00
 bond charge predicted
       N       E                     dE             d eps       ncg     rms          rms(c)
DAV:   1    -0.832455207846E+03    0.57224E-02   -0.28043E+00  4500   0.329E+00    0.304E-01
DAV:   2    -0.832460780602E+03   -0.55728E-02   -0.65346E-02  4570   0.469E-01    0.215E-01
DAV:   3    -0.832460591957E+03    0.18865E-03   -0.98079E-04  5320   0.648E-02    0.165E-01
DAV:   4    -0.832460793370E+03   -0.20141E-03   -0.10196E-03  5060   0.728E-02    0.472E-02
DAV:   5    -0.832460856854E+03   -0.63483E-04   -0.27231E-04  4860   0.305E-02    0.260E-02
DAV:   6    -0.832460862400E+03   -0.55468E-05   -0.48620E-05  4180   0.154E-02
  93 F= -.84012712E+03 E0= -.84012712E+03  d E =0.210675E-03  mag=     0.0000
quench:  g(F)=  0.000E+00 g(S)=  0.000E+00 dE (1.order)= 0.000E+00
 bond charge predicted
       N       E                     dE             d eps       ncg     rms          rms(c)
DAV:   1    -0.832454435575E+03    0.64213E-02   -0.36560E+00  4500   0.367E+00    0.355E-01
DAV:   2    -0.832461666878E+03   -0.72313E-02   -0.84871E-02  4540   0.523E-01    0.251E-01
DAV:   3    -0.832461384260E+03    0.28262E-03   -0.12977E-03  5260   0.743E-02    0.193E-01
DAV:   4    -0.832461597682E+03   -0.21342E-03   -0.15498E-03  5220   0.866E-02    0.536E-02
DAV:   5    -0.832461674212E+03   -0.76530E-04   -0.39070E-04  4880   0.360E-02    0.313E-02
DAV:   6    -0.832461680666E+03   -0.64542E-05   -0.73555E-05  4220   0.187E-02
  94 F= -.84012770E+03 E0= -.84012770E+03  d E =-.585690E-03  mag=     0.0000
quench:  g(F)=  0.000E+00 g(S)=  0.000E+00 dE (1.order)= 0.000E+00
 bond charge predicted
       N       E                     dE             d eps       ncg     rms          rms(c)
DAV:   1    -0.832452092793E+03    0.95814E-02   -0.45065E+00  4500   0.407E+00    0.410E-01
DAV:   2    -0.832461183095E+03   -0.90903E-02   -0.10748E-01  4580   0.587E-01    0.296E-01
DAV:   3    -0.832460747741E+03    0.43535E-03   -0.19282E-03  5600   0.889E-02    0.228E-01
DAV:   4    -0.832460844610E+03   -0.96869E-04   -0.19861E-03  5020   0.985E-02    0.723E-02
DAV:   5    -0.832460976496E+03   -0.13189E-03   -0.57684E-04  4860   0.418E-02    0.410E-02
DAV:   6    -0.832460977911E+03   -0.14158E-05   -0.12132E-04  4480   0.221E-02    0.185E-02
DAV:   7    -0.832460983340E+03   -0.54285E-05   -0.18052E-05  3500   0.814E-03
  95 F= -.84012678E+03 E0= -.84012678E+03  d E =0.919614E-03  mag=     0.0000
quench:  g(F)=  0.000E+00 g(S)=  0.000E+00 dE (1.order)= 0.000E+00
 bond charge predicted
       N       E                     dE             d eps       ncg     rms          rms(c)
DAV:   1    -0.832464547448E+03   -0.35695E-02   -0.23345E-01  4480   0.891E-01    0.106E-01
DAV:   2    -0.832465021405E+03   -0.47396E-03   -0.63698E-03  5280   0.138E-01    0.967E-02
DAV:   3    -0.832464942887E+03    0.78518E-04   -0.20836E-04  5700   0.277E-02    0.795E-02
DAV:   4    -0.832464838367E+03    0.10452E-03   -0.22045E-04  4580   0.296E-02    0.348E-02
DAV:   5    -0.832464837479E+03    0.88726E-06   -0.98079E-05  4740   0.168E-02
  96 F= -.84013059E+03 E0= -.84013059E+03  d E =-.380966E-02  mag=     0.0000
quench:  g(F)=  0.000E+00 g(S)=  0.000E+00 dE (1.order)= 0.000E+00
 bond charge predicted
       N       E                     dE             d eps       ncg     rms          rms(c)
DAV:   1    -0.832464858516E+03   -0.20150E-04   -0.28025E-04  4400   0.342E-02    0.672E-03
DAV:   2    -0.832464859036E+03   -0.51981E-06   -0.86341E-06  2620   0.571E-03
  97 F= -.84013062E+03 E0= -.84013062E+03  d E =-.215241E-04  mag=     0.0000
quench:  g(F)=  0.000E+00 g(S)=  0.000E+00 dE (1.order)= 0.000E+00
 bond charge predicted
       N       E                     dE             d eps       ncg     rms          rms(c)
DAV:   1    -0.832464839489E+03    0.19027E-04   -0.12482E-03  4420   0.714E-02    0.802E-03
DAV:   2    -0.832464841688E+03   -0.21991E-05   -0.29407E-05  3720   0.103E-02
  98 F= -.84013060E+03 E0= -.84013060E+03  d E =0.168774E-04  mag=     0.0000
quench:  g(F)=  0.000E+00 g(S)=  0.000E+00 dE (1.order)= 0.000E+00
 bond charge predicted
       N       E                     dE             d eps       ncg     rms          rms(c)
DAV:   1    -0.832464727471E+03    0.11202E-03   -0.34395E-03  4480   0.116E-01    0.144E-02
DAV:   2    -0.832464732882E+03   -0.54116E-05   -0.78725E-05  4600   0.164E-02
  99 F= -.84013049E+03 E0= -.84013049E+03  d E =0.107542E-03  mag=     0.0000
quench:  g(F)=  0.000E+00 g(S)=  0.000E+00 dE (1.order)= 0.000E+00
 bond charge predicted
       N       E                     dE             d eps       ncg     rms          rms(c)
DAV:   1    -0.832464496670E+03    0.23080E-03   -0.73409E-03  4480   0.165E-01    0.222E-02
DAV:   2    -0.832464507671E+03   -0.11001E-04   -0.16296E-04  4540   0.231E-02    0.171E-02
DAV:   3    -0.832464506979E+03    0.69197E-06   -0.33741E-06  2900   0.418E-03
 100 F= -.84013027E+03 E0= -.84013027E+03  d E =0.223641E-03  mag=     0.0000
quench:  g(F)=  0.000E+00 g(S)=  0.000E+00 dE (1.order)= 0.000E+00
 bond charge predicted
       N       E                     dE             d eps       ncg     rms          rms(c)
DAV:   1    -0.832464144227E+03    0.36344E-03   -0.12886E-02  4480   0.216E-01    0.228E-02
DAV:   2    -0.832464167115E+03   -0.22888E-04   -0.27675E-04  4480   0.295E-02    0.161E-02
DAV:   3    -0.832464166826E+03    0.28920E-06   -0.34954E-06  2940   0.413E-03
 101 F= -.84012993E+03 E0= -.84012993E+03  d E =0.337066E-03  mag=     0.0000
quench:  g(F)=  0.000E+00 g(S)=  0.000E+00 dE (1.order)= 0.000E+00
 bond charge predicted
       N       E                     dE             d eps       ncg     rms          rms(c)
DAV:   1    -0.832463739655E+03    0.42746E-03   -0.18097E-02  4460   0.258E-01    0.262E-02
DAV:   2    -0.832463773054E+03   -0.33400E-04   -0.39619E-04  4460   0.355E-02    0.186E-02
DAV:   3    -0.832463772476E+03    0.57796E-06   -0.48276E-06  3040   0.490E-03
 102 F= -.84012954E+03 E0= -.84012954E+03  d E =0.391799E-03  mag=     0.0000
quench:  g(F)=  0.000E+00 g(S)=  0.000E+00 dE (1.order)= 0.000E+00
 bond charge predicted
       N       E                     dE             d eps       ncg     rms          rms(c)
DAV:   1    -0.832463225940E+03    0.54711E-03   -0.29282E-02  4480   0.331E-01    0.326E-02
DAV:   2    -0.832463281520E+03   -0.55579E-04   -0.64990E-04  4460   0.458E-02    0.235E-02
DAV:   3    -0.832463280377E+03    0.11426E-05   -0.78530E-06  3520   0.618E-03
 103 F= -.84012905E+03 E0= -.84012905E+03  d E =0.489961E-03  mag=     0.0000
quench:  g(F)=  0.000E+00 g(S)=  0.000E+00 dE (1.order)= 0.000E+00
 bond charge predicted
       N       E                     dE             d eps       ncg     rms          rms(c)
DAV:   1    -0.832462596415E+03    0.68510E-03   -0.45363E-02  4460   0.416E-01    0.401E-02
DAV:   2    -0.832462683971E+03   -0.87555E-04   -0.10166E-03  4440   0.577E-02    0.293E-02
DAV:   3    -0.832462682193E+03    0.17780E-05   -0.12499E-05  3860   0.772E-03
 104 F= -.84012845E+03 E0= -.84012845E+03  d E =0.597383E-03  mag=     0.0000
quench:  g(F)=  0.000E+00 g(S)=  0.000E+00 dE (1.order)= 0.000E+00
 bond charge predicted
       N       E                     dE             d eps       ncg     rms          rms(c)
DAV:   1    -0.832461868588E+03    0.81538E-03   -0.66288E-02  4480   0.508E-01    0.482E-02
DAV:   2    -0.832461997056E+03   -0.12847E-03   -0.14919E-03  4420   0.706E-02    0.352E-02
DAV:   3    -0.832461994770E+03    0.22862E-05   -0.18786E-05  4180   0.940E-03
 105 F= -.84012776E+03 E0= -.84012776E+03  d E =0.690472E-03  mag=     0.0000
quench:  g(F)=  0.000E+00 g(S)=  0.000E+00 dE (1.order)= 0.000E+00
 bond charge predicted
       N       E                     dE             d eps       ncg     rms          rms(c)
DAV:   1    -0.832461097911E+03    0.89915E-03   -0.93207E-02  4480   0.607E-01    0.568E-02
DAV:   2    -0.832461279076E+03   -0.18117E-03   -0.21117E-03  4410   0.844E-02    0.414E-02
DAV:   3    -0.832461276177E+03    0.28996E-05   -0.27441E-05  4640   0.112E-02
 106 F= -.84012703E+03 E0= -.84012703E+03  d E =0.728243E-03  mag=     0.0000
quench:  g(F)=  0.000E+00 g(S)=  0.000E+00 dE (1.order)= 0.000E+00
 bond charge predicted
       N       E                     dE             d eps       ncg     rms          rms(c)
DAV:   1    -0.832460385722E+03    0.89335E-03   -0.12451E-01  4480   0.702E-01    0.658E-02
DAV:   2    -0.832460624398E+03   -0.23868E-03   -0.28092E-03  4400   0.979E-02    0.481E-02
DAV:   3    -0.832460620435E+03    0.39638E-05   -0.38656E-05  4880   0.132E-02
 107 F= -.84012636E+03 E0= -.84012636E+03  d E =0.675243E-03  mag=     0.0000
quench:  g(F)=  0.000E+00 g(S)=  0.000E+00 dE (1.order)= 0.000E+00
 bond charge predicted
       N       E                     dE             d eps       ncg     rms          rms(c)
DAV:   1    -0.832459876851E+03    0.74755E-03   -0.15817E-01  4480   0.789E-01    0.746E-02
DAV:   2    -0.832460173134E+03   -0.29628E-03   -0.35324E-03  4400   0.110E-01    0.550E-02
DAV:   3    -0.832460167468E+03    0.56657E-05   -0.49912E-05  4940   0.150E-02
 108 F= -.84012587E+03 E0= -.84012587E+03  d E =0.486930E-03  mag=     0.0000
quench:  g(F)=  0.000E+00 g(S)=  0.000E+00 dE (1.order)= 0.000E+00
 bond charge predicted
       N       E                     dE             d eps       ncg     rms          rms(c)
DAV:   1    -0.832459720305E+03    0.45283E-03   -0.19621E-01  4460   0.870E-01    0.843E-02
DAV:   2    -0.832460072635E+03   -0.35233E-03   -0.42971E-03  4400   0.120E-01    0.623E-02
DAV:   3    -0.832460065688E+03    0.69463E-05   -0.62378E-05  4900   0.167E-02
 109 F= -.84012572E+03 E0= -.84012572E+03  d E =0.151375E-03  mag=     0.0000
quench:  g(F)=  0.000E+00 g(S)=  0.000E+00 dE (1.order)= 0.000E+00
 bond charge predicted
       N       E                     dE             d eps       ncg     rms          rms(c)
DAV:   1    -0.832460071578E+03    0.10566E-05   -0.25452E-01  4460   0.962E-01    0.997E-02
DAV:   2    -0.832460500842E+03   -0.42926E-03   -0.54573E-03  4400   0.131E-01    0.712E-02
DAV:   3    -0.832460494256E+03    0.65861E-05   -0.83350E-05  4960   0.188E-02
 110 F= -.84012608E+03 E0= -.84012608E+03  d E =-.357989E-03  mag=     0.0000
quench:  g(F)=  0.000E+00 g(S)=  0.000E+00 dE (1.order)= 0.000E+00
 bond charge predicted
       N       E                     dE             d eps       ncg     rms          rms(c)
DAV:   1    -0.832461000516E+03   -0.49967E-03   -0.34872E-01  4480   0.107E+00    0.122E-01
DAV:   2    -0.832461561003E+03   -0.56049E-03   -0.73274E-03  4400   0.146E-01    0.851E-02
DAV:   3    -0.832461552012E+03    0.89909E-05   -0.11540E-04  4980   0.214E-02    0.639E-02
DAV:   4    -0.832461628494E+03   -0.76482E-04   -0.12087E-04  4380   0.238E-02    0.155E-02
DAV:   5    -0.832461637745E+03   -0.92501E-05   -0.35192E-05  4200   0.101E-02
 111 F= -.84012713E+03 E0= -.84012713E+03  d E =-.105308E-02  mag=     0.0000
quench:  g(F)=  0.000E+00 g(S)=  0.000E+00 dE (1.order)= 0.000E+00
 bond charge predicted
       N       E                     dE             d eps       ncg     rms          rms(c)
DAV:   1    -0.832462591029E+03   -0.96253E-03   -0.47840E-01  4520   0.120E+00    0.137E-01
DAV:   2    -0.832463438302E+03   -0.84727E-03   -0.10464E-02  4600   0.168E-01    0.928E-02
DAV:   3    -0.832463408548E+03    0.29754E-04   -0.15125E-04  5020   0.241E-02    0.710E-02
DAV:   4    -0.832463486574E+03   -0.78026E-04   -0.25292E-04  4470   0.309E-02    0.184E-02
DAV:   5    -0.832463490543E+03   -0.39696E-05   -0.48858E-05  4650   0.122E-02
 112 F= -.84012886E+03 E0= -.84012886E+03  d E =-.173439E-02  mag=     0.0000
quench:  g(F)=  0.000E+00 g(S)=  0.000E+00 dE (1.order)= 0.000E+00
 bond charge predicted
       N       E                     dE             d eps       ncg     rms          rms(c)
DAV:   1    -0.832464811178E+03   -0.13246E-02   -0.66458E-01  4520   0.137E+00    0.164E-01
DAV:   2    -0.832466002150E+03   -0.11910E-02   -0.14464E-02  4610   0.190E-01    0.112E-01
DAV:   3    -0.832465957716E+03    0.44434E-04   -0.20833E-04  5120   0.276E-02    0.863E-02
DAV:   4    -0.832466056388E+03   -0.98672E-04   -0.43792E-04  4510   0.377E-02    0.238E-02
DAV:   5    -0.832466058292E+03   -0.19035E-05   -0.72502E-05  4830   0.145E-02
 113 F= -.84013129E+03 E0= -.84013129E+03  d E =-.242328E-02  mag=     0.0000
quench:  g(F)=  0.000E+00 g(S)=  0.000E+00 dE (1.order)= 0.000E+00
 bond charge predicted
       N       E                     dE             d eps       ncg     rms          rms(c)
DAV:   1    -0.832467339211E+03   -0.12828E-02   -0.94215E-01  4520   0.161E+00    0.201E-01
DAV:   2    -0.832469060827E+03   -0.17216E-02   -0.20862E-02  4610   0.225E-01    0.134E-01
DAV:   3    -0.832469001009E+03    0.59818E-04   -0.30411E-04  5180   0.330E-02    0.102E-01
DAV:   4    -0.832469104344E+03   -0.10333E-03   -0.52704E-04  4510   0.422E-02    0.259E-02
DAV:   5    -0.832469115940E+03   -0.11595E-04   -0.99190E-05  4860   0.165E-02    0.192E-02
DAV:   6    -0.832469115150E+03    0.79005E-06   -0.45683E-05  3960   0.117E-02
 114 F= -.84013420E+03 E0= -.84013420E+03  d E =-.291271E-02  mag=     0.0000
quench:  g(F)=  0.000E+00 g(S)=  0.000E+00 dE (1.order)= 0.000E+00
 bond charge predicted
       N       E                     dE             d eps       ncg     rms          rms(c)
DAV:   1    -0.832469881502E+03   -0.76556E-03   -0.12049E+00  4520   0.190E+00    0.220E-01
DAV:   2    -0.832472150665E+03   -0.22692E-02   -0.27040E-02  4620   0.268E-01    0.153E-01
DAV:   3    -0.832472056694E+03    0.93971E-04   -0.40086E-04  5240   0.389E-02    0.118E-01
DAV:   4    -0.832472165914E+03   -0.10922E-03   -0.77649E-04  4610   0.521E-02    0.317E-02
DAV:   5    -0.832472179973E+03   -0.14059E-04   -0.14620E-04  4940   0.206E-02    0.236E-02
DAV:   6    -0.832472181696E+03   -0.17228E-05   -0.67746E-05  4080   0.142E-02
 115 F= -.84013707E+03 E0= -.84013707E+03  d E =-.287200E-02  mag=     0.0000
quench:  g(F)=  0.000E+00 g(S)=  0.000E+00 dE (1.order)= 0.000E+00
 bond charge predicted
       N       E                     dE             d eps       ncg     rms          rms(c)
DAV:   1    -0.832470881248E+03    0.12987E-02   -0.16476E+00  4520   0.233E+00    0.255E-01
DAV:   2    -0.832474160953E+03   -0.32797E-02   -0.38944E-02  4650   0.335E-01    0.183E-01
DAV:   3    -0.832474002394E+03    0.15856E-03   -0.62526E-04  5340   0.494E-02    0.142E-01
DAV:   4    -0.832474067855E+03   -0.65461E-04   -0.90086E-04  4750   0.606E-02    0.401E-02
DAV:   5    -0.832474104943E+03   -0.37088E-04   -0.21828E-04  4840   0.247E-02    0.256E-02
DAV:   6    -0.832474106908E+03   -0.19646E-05   -0.61415E-05  4180   0.144E-02
 116 F= -.84013882E+03 E0= -.84013882E+03  d E =-.174806E-02  mag=     0.0000
quench:  g(F)=  0.000E+00 g(S)=  0.000E+00 dE (1.order)= 0.000E+00
 bond charge predicted
       N       E                     dE             d eps       ncg     rms          rms(c)
DAV:   1    -0.832475077276E+03   -0.97233E-03   -0.73840E-02  4470   0.426E-01    0.563E-02
DAV:   2    -0.832475218719E+03   -0.14144E-03   -0.18871E-03  4900   0.647E-02    0.528E-02
DAV:   3    -0.832475197292E+03    0.21427E-04   -0.38015E-05  4280   0.117E-02    0.447E-02
DAV:   4    -0.832475164660E+03    0.32632E-04   -0.11021E-04  4300   0.174E-02    0.148E-02
DAV:   5    -0.832475167340E+03   -0.26806E-05   -0.26535E-05  3660   0.738E-03
 117 F= -.84013986E+03 E0= -.84013986E+03  d E =-.103676E-02  mag=     0.0000
quench:  g(F)=  0.000E+00 g(S)=  0.000E+00 dE (1.order)= 0.000E+00
 bond charge predicted
       N       E                     dE             d eps       ncg     rms          rms(c)
DAV:   1    -0.832473913438E+03    0.12512E-02   -0.84681E-02  4400   0.494E-01    0.581E-02
DAV:   2    -0.832474093929E+03   -0.18049E-03   -0.22004E-03  4900   0.744E-02    0.521E-02
DAV:   3    -0.832474074650E+03    0.19279E-04   -0.39555E-05  4460   0.122E-02    0.437E-02
DAV:   4    -0.832474050696E+03    0.23954E-04   -0.10191E-04  4340   0.177E-02    0.140E-02
DAV:   5    -0.832474053748E+03   -0.30523E-05   -0.23431E-05  3580   0.737E-03
 118 F= -.84013872E+03 E0= -.84013872E+03  d E =0.113972E-02  mag=     0.0000
[...]
 191 F= -.84014164E+03 E0= -.84014164E+03  d E =-.120696E-02  mag=     0.0000
quench:  g(F)=  0.000E+00 g(S)=  0.000E+00 dE (1.order)= 0.000E+00
 bond charge predicted
       N       E                     dE             d eps       ncg     rms          rms(c)
DAV:   1    -0.832479438144E+03   -0.13573E-02   -0.91379E-02  4500   0.395E-01    0.711E-02
DAV:   2    -0.832479563220E+03   -0.12508E-03   -0.17455E-03  4425   0.510E-02    0.474E-02
DAV:   3    -0.832479562520E+03    0.69969E-06   -0.29015E-05  3820   0.867E-03
 192 F= -.84014304E+03 E0= -.84014304E+03  d E =-.140673E-02  mag=     0.0000
quench:  g(F)=  0.000E+00 g(S)=  0.000E+00 dE (1.order)= 0.000E+00
 bond charge predicted
       N       E                     dE             d eps       ncg     rms          rms(c)
DAV:   1    -0.832480847854E+03   -0.12846E-02   -0.10678E-01  4520   0.472E-01    0.776E-02
DAV:   2    -0.832480993739E+03   -0.14589E-03   -0.20665E-03  4400   0.611E-02    0.519E-02
DAV:   3    -0.832480993758E+03   -0.19056E-07   -0.34635E-05  4060   0.103E-02
 193 F= -.84014439E+03 E0= -.84014439E+03  d E =-.134925E-02  mag=     0.0000
quench:  g(F)=  0.000E+00 g(S)=  0.000E+00 dE (1.order)= 0.000E+00
 bond charge predicted
       N       E                     dE             d eps       ncg     rms          rms(c)
DAV:   1    -0.832480987441E+03    0.62982E-05   -0.43622E-04  4310   0.358E-02    0.766E-03
DAV:   2    -0.832480988900E+03   -0.14586E-05   -0.20680E-05  3600   0.710E-03
 194 F= -.84014439E+03 E0= -.84014439E+03  d E =0.540468E-05  mag=     0.0000
quench:  g(F)=  0.000E+00 g(S)=  0.000E+00 dE (1.order)= 0.000E+00
 bond charge predicted
       N       E                     dE             d eps       ncg     rms          rms(c)
DAV:   1    -0.832480911910E+03    0.75531E-04   -0.12113E-03  4410   0.646E-02    0.830E-03
DAV:   2    -0.832480914150E+03   -0.22399E-05   -0.28443E-05  3420   0.952E-03
 195 F= -.84014431E+03 E0= -.84014431E+03  d E =0.756248E-04  mag=     0.0000
quench:  g(F)=  0.000E+00 g(S)=  0.000E+00 dE (1.order)= 0.000E+00
 bond charge predicted
       N       E                     dE             d eps       ncg     rms          rms(c)
DAV:   1    -0.832480786045E+03    0.12586E-03   -0.21424E-03  4410   0.872E-02    0.120E-02
DAV:   2    -0.832480789056E+03   -0.30106E-05   -0.48242E-05  4060   0.124E-02
 196 F= -.84014418E+03 E0= -.84014418E+03  d E =0.125940E-03  mag=     0.0000
quench:  g(F)=  0.000E+00 g(S)=  0.000E+00 dE (1.order)= 0.000E+00
 bond charge predicted
       N       E                     dE             d eps       ncg     rms          rms(c)
DAV:   1    -0.832480624957E+03    0.16109E-03   -0.30140E-03  4440   0.105E-01    0.147E-02
DAV:   2    -0.832480628921E+03   -0.39642E-05   -0.65736E-05  4240   0.145E-02
 197 F= -.84014402E+03 E0= -.84014402E+03  d E =0.160267E-03  mag=     0.0000
quench:  g(F)=  0.000E+00 g(S)=  0.000E+00 dE (1.order)= 0.000E+00
 bond charge predicted
       N       E                     dE             d eps       ncg     rms          rms(c)
DAV:   1    -0.832480443039E+03    0.18192E-03   -0.41605E-03  4480   0.125E-01    0.172E-02
DAV:   2    -0.832480448727E+03   -0.56872E-05   -0.91679E-05  4480   0.172E-02
 198 F= -.84014384E+03 E0= -.84014384E+03  d E =0.180011E-03  mag=     0.0000
quench:  g(F)=  0.000E+00 g(S)=  0.000E+00 dE (1.order)= 0.000E+00
 bond charge predicted
       N       E                     dE             d eps       ncg     rms          rms(c)
DAV:   1    -0.832480239292E+03    0.20375E-03   -0.56931E-03  4480   0.147E-01    0.204E-02
DAV:   2    -0.832480247282E+03   -0.79895E-05   -0.12843E-04  4590   0.204E-02    0.166E-02
DAV:   3    -0.832480247653E+03   -0.37108E-06   -0.21632E-06  2640   0.350E-03
 199 F= -.84014364E+03 E0= -.84014364E+03  d E =0.201255E-03  mag=     0.0000
quench:  g(F)=  0.000E+00 g(S)=  0.000E+00 dE (1.order)= 0.000E+00
 bond charge predicted
       N       E                     dE             d eps       ncg     rms          rms(c)
DAV:   1    -0.832479987975E+03    0.25931E-03   -0.89590E-03  4480   0.185E-01    0.171E-02
DAV:   2    -0.832480004134E+03   -0.16159E-04   -0.19613E-04  4500   0.249E-02    0.123E-02
DAV:   3    -0.832480003979E+03    0.15486E-06   -0.19818E-06  2590   0.326E-03
 200 F= -.84014340E+03 E0= -.84014340E+03  d E =0.245555E-03  mag=     0.0000
quench:  g(F)=  0.000E+00 g(S)=  0.000E+00 dE (1.order)= 0.000E+00
 bond charge predicted
       N       E                     dE             d eps       ncg     rms          rms(c)
DAV:   1    -0.832479713889E+03    0.29025E-03   -0.13625E-02  4460   0.229E-01    0.204E-02
DAV:   2    -0.832479739496E+03   -0.25607E-04   -0.30608E-04  4420   0.311E-02    0.146E-02
DAV:   3    -0.832479738939E+03    0.55636E-06   -0.31007E-06  2800   0.408E-03
 201 F= -.84014313E+03 E0= -.84014313E+03  d E =0.270278E-03  mag=    -0.0000
quench:  g(F)=  0.000E+00 g(S)=  0.000E+00 dE (1.order)= 0.000E+00
 bond charge predicted
       N       E                     dE             d eps       ncg     rms          rms(c)
DAV:   1    -0.832479437763E+03    0.30173E-03   -0.20042E-02  4460   0.277E-01    0.247E-02
DAV:   2    -0.832479475309E+03   -0.37545E-04   -0.44924E-04  4420   0.377E-02    0.180E-02
DAV:   3    -0.832479474324E+03    0.98428E-06   -0.45279E-06  3040   0.491E-03
 202 F= -.84014285E+03 E0= -.84014285E+03  d E =0.275223E-03  mag=     0.0000
quench:  g(F)=  0.000E+00 g(S)=  0.000E+00 dE (1.order)= 0.000E+00
 bond charge predicted
       N       E                     dE             d eps       ncg     rms          rms(c)
DAV:   1    -0.832479219351E+03    0.25596E-03   -0.26681E-02  4480   0.320E-01    0.285E-02
DAV:   2    -0.832479268432E+03   -0.49081E-04   -0.59065E-04  4420   0.432E-02    0.207E-02
DAV:   3    -0.832479267231E+03    0.12013E-05   -0.60675E-06  3400   0.565E-03
 203 F= -.84014263E+03 E0= -.84014263E+03  d E =0.225650E-03  mag=    -0.0000
quench:  g(F)=  0.000E+00 g(S)=  0.000E+00 dE (1.order)= 0.000E+00
 bond charge predicted
       N       E                     dE             d eps       ncg     rms          rms(c)
DAV:   1    -0.832479129830E+03    0.13860E-03   -0.34898E-02  4460   0.366E-01    0.332E-02
DAV:   2    -0.832479193599E+03   -0.63769E-04   -0.77423E-04  4420   0.495E-02    0.242E-02
DAV:   3    -0.832479192094E+03    0.15052E-05   -0.84175E-06  3620   0.656E-03
 204 F= -.84014253E+03 E0= -.84014253E+03  d E =0.101295E-03  mag=     0.0000
quench:  g(F)=  0.000E+00 g(S)=  0.000E+00 dE (1.order)= 0.000E+00
 bond charge predicted
       N       E                     dE             d eps       ncg     rms          rms(c)
DAV:   1    -0.832479213796E+03   -0.20198E-04   -0.47709E-02  4460   0.421E-01    0.416E-02
DAV:   2    -0.832479296381E+03   -0.82584E-04   -0.10421E-03  4410   0.574E-02    0.298E-02
DAV:   3    -0.832479295047E+03    0.13338E-05   -0.13137E-05  4080   0.803E-03
 205 F= -.84014259E+03 E0= -.84014259E+03  d E =-.679333E-04  mag=     0.0000
quench:  g(F)=  0.000E+00 g(S)=  0.000E+00 dE (1.order)= 0.000E+00
 bond charge predicted
       N       E                     dE             d eps       ncg     rms          rms(c)
DAV:   1    -0.832479564625E+03   -0.26824E-03   -0.59753E-02  4460   0.458E-01    0.510E-02
DAV:   2    -0.832479656396E+03   -0.91772E-04   -0.12517E-03  4400   0.621E-02    0.368E-02
DAV:   3    -0.832479655779E+03    0.61727E-06   -0.19322E-05  4110   0.948E-03
 206 F= -.84014291E+03 E0= -.84014291E+03  d E =-.317851E-03  mag=    -0.0000
quench:  g(F)=  0.000E+00 g(S)=  0.000E+00 dE (1.order)= 0.000E+00
 bond charge predicted
       N       E                     dE             d eps       ncg     rms          rms(c)
DAV:   1    -0.832480224890E+03   -0.56849E-03   -0.73903E-02  4460   0.488E-01    0.597E-02
DAV:   2    -0.832480328583E+03   -0.10369E-03   -0.14511E-03  4410   0.645E-02    0.433E-02
DAV:   3    -0.832480327011E+03    0.15717E-05   -0.24911E-05  4120   0.104E-02
 207 F= -.84014353E+03 E0= -.84014353E+03  d E =-.620596E-03  mag=    -0.0000
quench:  g(F)=  0.000E+00 g(S)=  0.000E+00 dE (1.order)= 0.000E+00
 bond charge predicted
       N       E                     dE             d eps       ncg     rms          rms(c)
DAV:   1    -0.832481173424E+03   -0.84484E-03   -0.10450E-01  4480   0.560E-01    0.718E-02
DAV:   2    -0.832481323102E+03   -0.14968E-03   -0.20399E-03  4410   0.736E-02    0.521E-02
DAV:   3    -0.832481319512E+03    0.35894E-05   -0.35944E-05  4420   0.119E-02
 208 F= -.84014446E+03 E0= -.84014446E+03  d E =-.924075E-03  mag=    -0.0000
quench:  g(F)=  0.000E+00 g(S)=  0.000E+00 dE (1.order)= 0.000E+00
 bond charge predicted
       N       E                     dE             d eps       ncg     rms          rms(c)
DAV:   1    -0.832482316516E+03   -0.99341E-03   -0.15065E-01  4480   0.667E-01    0.876E-02
DAV:   2    -0.832482531762E+03   -0.21525E-03   -0.30271E-03  4480   0.887E-02    0.618E-02
DAV:   3    -0.832482527234E+03    0.45284E-05   -0.57506E-05  4780   0.148E-02
 209 F= -.84014557E+03 E0= -.84014557E+03  d E =-.111164E-02  mag=    -0.0000
quench:  g(F)=  0.000E+00 g(S)=  0.000E+00 dE (1.order)= 0.000E+00
 bond charge predicted
       N       E                     dE             d eps       ncg     rms          rms(c)
DAV:   1    -0.832483367883E+03   -0.83612E-03   -0.19518E-01  4480   0.794E-01    0.966E-02
DAV:   2    -0.832483666624E+03   -0.29874E-03   -0.40224E-03  4630   0.107E-01    0.722E-02
DAV:   3    -0.832483653056E+03    0.13568E-04   -0.80100E-05  5120   0.182E-02    0.546E-02
DAV:   4    -0.832483686399E+03   -0.33343E-04   -0.12199E-04  4350   0.221E-02    0.145E-02
DAV:   5    -0.832483690328E+03   -0.39286E-05   -0.30190E-05  3940   0.934E-03
 210 F= -.84014664E+03 E0= -.84014664E+03  d E =-.106947E-02  mag=    -0.0000
quench:  g(F)=  0.000E+00 g(S)=  0.000E+00 dE (1.order)= 0.000E+00
 bond charge predicted
       N       E                     dE             d eps       ncg     rms          rms(c)
DAV:   1    -0.832483735638E+03   -0.49239E-04   -0.48767E-03  4440   0.132E-01    0.158E-02
DAV:   2    -0.832483744193E+03   -0.85542E-05   -0.12914E-04  5300   0.205E-02    0.144E-02
DAV:   3    -0.832483742098E+03    0.20941E-05   -0.41500E-06  2600   0.450E-03
 211 F= -.84014668E+03 E0= -.84014668E+03  d E =-.452001E-04  mag=     0.0000
quench:  g(F)=  0.000E+00 g(S)=  0.000E+00 dE (1.order)= 0.000E+00
 bond charge predicted
       N       E                     dE             d eps       ncg     rms          rms(c)
DAV:   1    -0.832483561861E+03    0.18233E-03   -0.70392E-03  4400   0.160E-01    0.208E-02
DAV:   2    -0.832483572806E+03   -0.10945E-04   -0.16281E-04  5460   0.234E-02    0.183E-02
DAV:   3    -0.832483569916E+03    0.28902E-05   -0.55042E-06  2720   0.535E-03
 212 F= -.84014650E+03 E0= -.84014650E+03  d E =0.180162E-03  mag=     0.0000
quench:  g(F)=  0.000E+00 g(S)=  0.000E+00 dE (1.order)= 0.000E+00
 bond charge predicted
       N       E                     dE             d eps       ncg     rms          rms(c)
DAV:   1    -0.832483578706E+03   -0.59003E-05   -0.26217E-04  4380   0.311E-02    0.473E-03
DAV:   2    -0.832483579613E+03   -0.90625E-06   -0.12049E-05  2650   0.622E-03
 213 F= -.84014651E+03 E0= -.84014651E+03  d E =-.107682E-04  mag=     0.0000
quench:  g(F)=  0.000E+00 g(S)=  0.000E+00 dE (1.order)= 0.000E+00
 bond charge predicted
       N       E                     dE             d eps       ncg     rms          rms(c)
DAV:   1    -0.832483577614E+03    0.10921E-05   -0.70490E-04  4600   0.511E-02    0.688E-03
DAV:   2    -0.832483578547E+03   -0.93245E-06   -0.18570E-05  3360   0.803E-03
 214 F= -.84014651E+03 E0= -.84014651E+03  d E =-.104494E-05  mag=     0.0000
quench:  g(F)=  0.000E+00 g(S)=  0.000E+00 dE (1.order)= 0.000E+00
 bond charge predicted
       N       E                     dE             d eps       ncg     rms          rms(c)
DAV:   1    -0.832483531095E+03    0.46519E-04   -0.11133E-03  4560   0.648E-02    0.110E-02
DAV:   2    -0.832483532193E+03   -0.10977E-05   -0.29206E-05  4080   0.100E-02
 215 F= -.84014647E+03 E0= -.84014647E+03  d E =0.437225E-04  mag=    -0.0000
quench:  g(F)=  0.000E+00 g(S)=  0.000E+00 dE (1.order)= 0.000E+00
 bond charge predicted
       N       E                     dE             d eps       ncg     rms          rms(c)
DAV:   1    -0.832483433621E+03    0.97474E-04   -0.10443E-03  4400   0.637E-02    0.127E-02
DAV:   2    -0.832483434087E+03   -0.46608E-06   -0.24051E-05  3660   0.946E-03
 216 F= -.84014637E+03 E0= -.84014637E+03  d E =0.961262E-04  mag=    -0.0000
quench:  g(F)=  0.000E+00 g(S)=  0.000E+00 dE (1.order)= 0.000E+00
 bond charge predicted
       N       E                     dE             d eps       ncg     rms          rms(c)
DAV:   1    -0.832483431694E+03    0.19271E-05   -0.10742E-05  2680   0.669E-03    0.628E-03
DAV:   2    -0.832483431709E+03   -0.14617E-07   -0.14263E-06  2340   0.237E-03
 217 F= -.84014637E+03 E0= -.84014637E+03  d E =0.261900E-05  mag=     0.0000
quench:  g(F)=  0.000E+00 g(S)=  0.000E+00 dE (1.order)= 0.000E+00
 bond charge predicted
       N       E                     dE             d eps       ncg     rms          rms(c)
DAV:   1    -0.832483430542E+03    0.11518E-05   -0.21312E-05  2820   0.883E-03    0.180E-03
DAV:   2    -0.832483430639E+03   -0.96268E-07   -0.10550E-06  2260   0.211E-03
 218 F= -.84014637E+03 E0= -.84014637E+03  d E =0.157286E-05  mag=    -0.0000
quench:  g(F)=  0.000E+00 g(S)=  0.000E+00 dE (1.order)= 0.000E+00
 bond charge predicted
       N       E                     dE             d eps       ncg     rms          rms(c)
DAV:   1    -0.832483432175E+03   -0.16322E-05   -0.37027E-05  3660   0.115E-02    0.184E-03
DAV:   2    -0.832483432243E+03   -0.68496E-07   -0.10656E-06  2230   0.207E-03
 219 F= -.84014637E+03 E0= -.84014637E+03  d E =-.773704E-06  mag=     0.0000
quench:  g(F)=  0.000E+00 g(S)=  0.000E+00 dE (1.order)= 0.000E+00
 bond charge predicted
       N       E                     dE             d eps       ncg     rms          rms(c)
DAV:   1    -0.832483440168E+03   -0.79932E-05   -0.56534E-05  4040   0.141E-02    0.248E-03
DAV:   2    -0.832483440245E+03   -0.77627E-07   -0.15817E-06  2340   0.246E-03
 220 F= -.84014638E+03 E0= -.84014638E+03  d E =-.676110E-05  mag=    -0.0000
quench:  g(F)=  0.000E+00 g(S)=  0.000E+00 dE (1.order)= 0.000E+00
 bond charge predicted
       N       E                     dE             d eps       ncg     rms          rms(c)
DAV:   1    -0.832483459498E+03   -0.19330E-04   -0.79845E-05  4120   0.162E-02    0.315E-03
DAV:   2    -0.832483459579E+03   -0.80727E-07   -0.20848E-06  2310   0.269E-03
 221 F= -.84014639E+03 E0= -.84014639E+03  d E =-.176236E-04  mag=    -0.0000
quench:  g(F)=  0.000E+00 g(S)=  0.000E+00 dE (1.order)= 0.000E+00
 bond charge predicted
       N       E                     dE             d eps       ncg     rms          rms(c)
DAV:   1    -0.832483494495E+03   -0.34997E-04   -0.12116E-04  4160   0.187E-02    0.379E-03
DAV:   2    -0.832483494596E+03   -0.10135E-06   -0.29872E-06  2400   0.303E-03
 222 F= -.84014643E+03 E0= -.84014643E+03  d E =-.328024E-04  mag=    -0.0000
quench:  g(F)=  0.000E+00 g(S)=  0.000E+00 dE (1.order)= 0.000E+00
 bond charge predicted
       N       E                     dE             d eps       ncg     rms          rms(c)
DAV:   1    -0.832483550242E+03   -0.55747E-04   -0.22556E-04  4180   0.240E-02    0.486E-03
DAV:   2    -0.832483550430E+03   -0.18837E-06   -0.51586E-06  2510   0.366E-03
 223 F= -.84014648E+03 E0= -.84014648E+03  d E =-.528658E-04  mag=    -0.0000
quench:  g(F)=  0.000E+00 g(S)=  0.000E+00 dE (1.order)= 0.000E+00
 bond charge predicted
       N       E                     dE             d eps       ncg     rms          rms(c)
DAV:   1    -0.832483631144E+03   -0.80903E-04   -0.39842E-04  4200   0.302E-02    0.634E-03
DAV:   2    -0.832483631463E+03   -0.31822E-06   -0.84341E-06  2640   0.439E-03
 224 F= -.84014656E+03 E0= -.84014656E+03  d E =-.772554E-04  mag=     0.0000
quench:  g(F)=  0.000E+00 g(S)=  0.000E+00 dE (1.order)= 0.000E+00
 bond charge predicted
       N       E                     dE             d eps       ncg     rms          rms(c)
DAV:   1    -0.832483744489E+03   -0.11334E-03   -0.67906E-04  4180   0.377E-02    0.815E-03
DAV:   2    -0.832483745036E+03   -0.54703E-06   -0.13520E-05  2900   0.525E-03
 225 F= -.84014667E+03 E0= -.84014667E+03  d E =-.108896E-03  mag=     0.0000
quench:  g(F)=  0.000E+00 g(S)=  0.000E+00 dE (1.order)= 0.000E+00
 bond charge predicted
       N       E                     dE             d eps       ncg     rms          rms(c)
DAV:   1    -0.832483897728E+03   -0.15324E-03   -0.11322E-03  4260   0.476E-02    0.104E-02
DAV:   2    -0.832483898685E+03   -0.95751E-06   -0.21656E-05  3250   0.642E-03
 226 F= -.84014681E+03 E0= -.84014681E+03  d E =-.147988E-03  mag=     0.0000
quench:  g(F)=  0.000E+00 g(S)=  0.000E+00 dE (1.order)= 0.000E+00
 bond charge predicted
       N       E                     dE             d eps       ncg     rms          rms(c)
DAV:   1    -0.832484099020E+03   -0.20129E-03   -0.18344E-03  4280   0.603E-02    0.133E-02
DAV:   2    -0.832484100643E+03   -0.16226E-05   -0.34808E-05  3480   0.806E-03
 227 F= -.84014701E+03 E0= -.84014701E+03  d E =-.195100E-03  mag=     0.0000
quench:  g(F)=  0.000E+00 g(S)=  0.000E+00 dE (1.order)= 0.000E+00
 bond charge predicted
       N       E                     dE             d eps       ncg     rms          rms(c)
DAV:   1    -0.832484356255E+03   -0.25723E-03   -0.28778E-03  4340   0.764E-02    0.168E-02
DAV:   2    -0.832484358959E+03   -0.27042E-05   -0.55053E-05  3620   0.102E-02
 228 F= -.84014726E+03 E0= -.84014726E+03  d E =-.250006E-03  mag=    -0.0000
quench:  g(F)=  0.000E+00 g(S)=  0.000E+00 dE (1.order)= 0.000E+00
 bond charge predicted
       N       E                     dE             d eps       ncg     rms          rms(c)
DAV:   1    -0.832484675496E+03   -0.31924E-03   -0.43160E-03  4420   0.945E-02    0.209E-02
DAV:   2    -0.832484679617E+03   -0.41211E-05   -0.82522E-05  3820   0.125E-02
 229 F= -.84014757E+03 E0= -.84014757E+03  d E =-.310657E-03  mag=    -0.0000
quench:  g(F)=  0.000E+00 g(S)=  0.000E+00 dE (1.order)= 0.000E+00
 bond charge predicted
       N       E                     dE             d eps       ncg     rms          rms(c)
DAV:   1    -0.832485063598E+03   -0.38810E-03   -0.61667E-03  4440   0.114E-01    0.254E-02
DAV:   2    -0.832485069446E+03   -0.58474E-05   -0.11719E-04  3940   0.149E-02    0.194E-02
DAV:   3    -0.832485071249E+03   -0.18031E-05   -0.29238E-06  2850   0.315E-03
 230 F= -.84014795E+03 E0= -.84014795E+03  d E =-.379402E-03  mag=    -0.0000
quench:  g(F)=  0.000E+00 g(S)=  0.000E+00 dE (1.order)= 0.000E+00
 bond charge predicted
       N       E                     dE             d eps       ncg     rms          rms(c)
DAV:   1    -0.832485524784E+03   -0.45534E-03   -0.81629E-03  4440   0.132E-01    0.199E-02
DAV:   2    -0.832485536354E+03   -0.11570E-04   -0.15543E-04  4140   0.171E-02    0.131E-02
DAV:   3    -0.832485536753E+03   -0.39899E-06   -0.22094E-06  2540   0.262E-03
 231 F= -.84014840E+03 E0= -.84014840E+03  d E =-.450591E-03  mag=     0.0000
quench:  g(F)=  0.000E+00 g(S)=  0.000E+00 dE (1.order)= 0.000E+00
 bond charge predicted
       N       E                     dE             d eps       ncg     rms          rms(c)
DAV:   1    -0.832486056975E+03   -0.52062E-03   -0.10943E-02  4440   0.154E-01    0.224E-02
DAV:   2    -0.832486073490E+03   -0.16515E-04   -0.21620E-04  4360   0.202E-02    0.149E-02
DAV:   3    -0.832486073689E+03   -0.19895E-06   -0.28072E-06  2940   0.286E-03
 232 F= -.84014892E+03 E0= -.84014892E+03  d E =-.519616E-03  mag=    -0.0000
quench:  g(F)=  0.000E+00 g(S)=  0.000E+00 dE (1.order)= 0.000E+00
 reached required accuracy - stopping structural energy minimisation
