<?xml version="1.0" encoding="ISO-8859-1"?>
<modeling>
 <generator>
  <i name="program" type="string">vasp </i>
  <i name="version" type="string">6.4.2  </i>
  <i name="subversion" type="string">20Jul23 (build Aug 26 2025 15:10:52) complex                          parallel </i>
  <i name="platform" type="string">LinuxIFC </i>
  <i name="date" type="string">2025 12 07 </i>
  <i name="time" type="string">12:58:31 </i>
 </generator>
 <incar>
  <i type="int" name="ISTART">     0</i>
  <i type="string" name="ALGO">Normal</i>
  <i type="logical" name="ADDGRID"> T  </i>
  <i type="int" name="ISPIN">     2</i>
  <i type="int" name="IMIX">     4</i>
  <i name="AMIX">      0.20000000</i>
  <i name="BMIX">      0.00010000</i>
  <i name="AMIX_MAG">      0.80000000</i>
  <i name="BMIX_MAG">      0.00010000</i>
  <i type="int" name="ICHARG">     2</i>
  <i type="int" name="NELM">   200</i>
  <i type="int" name="IBRION">     3</i>
  <i name="EDIFF">      0.00001000</i>
  <i name="EDIFFG">     -0.03000000</i>
  <i type="int" name="NSW">  1000</i>
  <i type="int" name="ISIF">     2</i>
  <i type="int" name="ISYM">     0</i>
  <i name="ENCUT">    520.00000000</i>
  <i name="POTIM">      0.00000000</i>
  <v name="MAGMOM">      0.60000000      0.60000000      0.60000000      0.60000000      0.60000000      0.60000000      0.60000000      0.60000000      0.60000000      0.60000000      0.60000000      0.60000000      0.60000000      0.60000000      0.60000000      0.60000000      0.60000000      0.60000000      0.60000000      0.60000000
      0.60000000      0.60000000      0.60000000      0.60000000      0.60000000      0.60000000      0.60000000      0.60000000      0.60000000      0.60000000      0.60000000      0.60000000      0.60000000      0.60000000      0.60000000      0.60000000      0.60000000      0.60000000      0.60000000      0.60000000
      0.60000000      0.60000000      0.60000000      0.60000000      0.60000000      0.60000000      0.60000000      0.60000000      0.60000000      0.60000000      0.60000000      0.60000000      0.60000000      0.60000000      0.60000000      0.60000000      0.60000000      0.60000000      0.60000000      0.60000000
      0.60000000      0.60000000      0.60000000      0.60000000      0.60000000      0.60000000      0.60000000      0.60000000      0.60000000      0.60000000      0.60000000      0.60000000      0.60000000      0.60000000      0.60000000      0.60000000      0.60000000      0.60000000      0.60000000      0.60000000
      0.60000000      0.60000000      0.60000000      0.60000000      0.60000000      0.60000000      0.60000000      0.60000000      0.60000000      0.60000000      0.60000000      0.60000000      0.60000000      0.60000000      0.60000000</v>
  <i type="string" name="LREAL">Auto</i>
  <i type="int" name="ISMEAR">     0</i>
  <i name="SIGMA">      0.05000000</i>
  <i type="logical" name="LWAVE"> F  </i>
  <i type="logical" name="LCHARG"> F  </i>
  <i type="logical" name="LASPH"> T  </i>
  <i type="int" name="IVDW">    12</i>
  <i name="SPRING">     -5.00000000</i>
 </incar>
 <primitive_cell>
  <structure name="primitive_cell" >
   <crystal>
    <varray name="basis" >
     <v>      17.27103806       0.00000000       0.00000000 </v>
     <v>      -8.63551903      14.95715771       0.00000000 </v>
     <v>       0.00000000       0.00000000      15.00000000 </v>
    </varray>
    <i name="volume">   3874.88459904 </i>
    <varray name="rec_basis" >
     <v>       0.05790040       0.03342881       0.00000000 </v>
     <v>       0.00000000       0.06685762       0.00000000 </v>
     <v>       0.00000000       0.00000000       0.06666667 </v>
    </varray>
   </crystal>
   <varray name="positions" >
    <v>       0.99836532       0.99908242       0.50499703 </v>
    <v>       0.99694678       0.14087319       0.50129032 </v>
    <v>       0.99698607       0.28418184       0.49904831 </v>
    <v>       0.99764246       0.42753179       0.50000845 </v>
    <v>       0.99808060       0.57073477       0.50244907 </v>
    <v>       0.99910484       0.71380989       0.50543837 </v>
    <v>       0.00008051       0.85742395       0.50636628 </v>
    <v>       0.14241349       0.00098732       0.49839810 </v>
    <v>       0.14106348       0.14279164       0.49656006 </v>
    <v>       0.13873814       0.28385374       0.49364804 </v>
    <v>       0.14011666       0.42783267       0.49287900 </v>
    <v>       0.14123015       0.57065910       0.49471574 </v>
    <v>       0.14145308       0.71394381       0.49626284 </v>
    <v>       0.14208954       0.85757589       0.49785802 </v>
    <v>       0.28528644       0.00156471       0.49790091 </v>
    <v>       0.28554488       0.14531210       0.49680007 </v>
    <v>       0.28373508       0.28997529       0.49107021 </v>
    <v>       0.28061678       0.42323132       0.48760714 </v>
    <v>       0.28583996       0.57090278       0.49015901 </v>
    <v>       0.28390574       0.71436376       0.49460903 </v>
    <v>       0.28413339       0.85777004       0.49650561 </v>
    <v>       0.42742468       0.00049099       0.50223118 </v>
    <v>       0.42878965       0.14523214       0.50424705 </v>
    <v>       0.42711338       0.28493390       0.49929347 </v>
    <v>       0.42596690       0.85648427       0.50161485 </v>
    <v>       0.56923877       0.99824016       0.50685229 </v>
    <v>       0.57018027       0.14228767       0.50875586 </v>
    <v>       0.57480242       0.28947866       0.51711891 </v>
    <v>       0.56730586       0.85312936       0.51441814 </v>
    <v>       0.71127169       0.99627604       0.51227701 </v>
    <v>       0.71230584       0.14080243       0.50851776 </v>
    <v>       0.71330295       0.28465578       0.51426050 </v>
    <v>       0.71037735       0.42465893       0.53074868 </v>
    <v>       0.72288281       0.57639756       0.56310120 </v>
    <v>       0.71157873       0.85269337       0.52774478 </v>
    <v>       0.85447236       0.99740204       0.51233849 </v>
    <v>       0.85423719       0.14048082       0.50610017 </v>
    <v>       0.85495391       0.28415408       0.50621476 </v>
    <v>       0.85555003       0.42762799       0.51192137 </v>
    <v>       0.85528791       0.57058700       0.51971594 </v>
    <v>       0.85881174       0.71496244       0.52460691 </v>
    <v>       0.85694074       0.85592599       0.52087120 </v>
    <v>       0.04566663       0.09431225       0.50052379 </v>
    <v>       0.04372294       0.23591146       0.49757863 </v>
    <v>       0.04476218       0.37979271       0.49686117 </v>
    <v>       0.04576867       0.52298334       0.49853390 </v>
    <v>       0.04624485       0.66614805       0.50060030 </v>
    <v>       0.04694618       0.80938759       0.50254742 </v>
    <v>       0.04699075       0.95249137       0.50272699 </v>
    <v>       0.18985352       0.09621657       0.49668879 </v>
    <v>       0.18757005       0.23786239       0.49346764 </v>
    <v>       0.18571381       0.37868350       0.49114785 </v>
    <v>       0.18922636       0.52330038       0.49230330 </v>
    <v>       0.18870577       0.66625671       0.49438237 </v>
    <v>       0.18921201       0.80964717       0.49614101 </v>
    <v>       0.18998715       0.95320863       0.49741615 </v>
    <v>       0.33332672       0.09763199       0.49930376 </v>
    <v>       0.33319088       0.24132750       0.49491211 </v>
    <v>       0.32730717       0.51890783       0.48609007 </v>
    <v>       0.33472141       0.66950224       0.49433014 </v>
    <v>       0.33123504       0.80949291       0.49698273 </v>
    <v>       0.33213638       0.95316273       0.49862091 </v>
    <v>       0.47522447       0.09586801       0.50549335 </v>
    <v>       0.47736788       0.24119604       0.50761682 </v>
    <v>       0.46991128       0.80501554       0.50558238 </v>
    <v>       0.47430706       0.95194688       0.50367087 </v>
    <v>       0.61702304       0.09363900       0.50799447 </v>
    <v>       0.61854767       0.23778133       0.51365822 </v>
    <v>       0.61760643       0.80986679       0.52786508 </v>
    <v>       0.61582032       0.94895934       0.51077330 </v>
    <v>       0.75911631       0.09227373       0.50860513 </v>
    <v>       0.76018507       0.23620721       0.50939468 </v>
    <v>       0.76064081       0.37977116       0.51886411 </v>
    <v>       0.76042604       0.52350284       0.53836061 </v>
    <v>       0.76621942       0.67141060       0.54680076 </v>
    <v>       0.76168539       0.80436885       0.53462273 </v>
    <v>       0.75896136       0.94839848       0.51714840 </v>
    <v>       0.90162904       0.09249280       0.50623371 </v>
    <v>       0.90191612       0.23607503       0.50338094 </v>
    <v>       0.90253692       0.37981854       0.50562966 </v>
    <v>       0.90284542       0.52315269       0.51028840 </v>
    <v>       0.90427212       0.66597779       0.51616818 </v>
    <v>       0.90536758       0.80961919       0.51674539 </v>
    <v>       0.90318110       0.95075655       0.51247022 </v>
    <v>       0.47261567       0.37410025       0.49469536 </v>
    <v>       0.41648031       0.55878985       0.48110132 </v>
    <v>       0.64639618       0.53870229       0.60929384 </v>
    <v>       0.57188364       0.72139883       0.54228975 </v>
    <v>       0.42413313       0.71497462       0.50022483 </v>
    <v>       0.72033568       0.71626786       0.55202394 </v>
    <v>       0.32738575       0.37947326       0.48729138 </v>
    <v>       0.62067736       0.37916267       0.52932211 </v>
    <v>       0.59067067       0.61404969       0.50298118 </v>
    <v>       0.51697884       0.51770556       0.47836073 </v>
    <v>       0.57808145       0.56327405       0.46511209 </v>
   </varray>
  </structure>
  <varray name="primitive_index" >
   <v type="int" >        1 </v>
   <v type="int" >        2 </v>
   <v type="int" >        3 </v>
   <v type="int" >        4 </v>
   <v type="int" >        5 </v>
   <v type="int" >        6 </v>
   <v type="int" >        7 </v>
   <v type="int" >        8 </v>
   <v type="int" >        9 </v>
   <v type="int" >       10 </v>
   <v type="int" >       11 </v>
   <v type="int" >       12 </v>
   <v type="int" >       13 </v>
   <v type="int" >       14 </v>
   <v type="int" >       15 </v>
   <v type="int" >       16 </v>
   <v type="int" >       17 </v>
   <v type="int" >       18 </v>
   <v type="int" >       19 </v>
   <v type="int" >       20 </v>
   <v type="int" >       21 </v>
   <v type="int" >       22 </v>
   <v type="int" >       23 </v>
   <v type="int" >       24 </v>
   <v type="int" >       25 </v>
   <v type="int" >       26 </v>
   <v type="int" >       27 </v>
   <v type="int" >       28 </v>
   <v type="int" >       29 </v>
   <v type="int" >       30 </v>
   <v type="int" >       31 </v>
   <v type="int" >       32 </v>
   <v type="int" >       33 </v>
   <v type="int" >       34 </v>
   <v type="int" >       35 </v>
   <v type="int" >       36 </v>
   <v type="int" >       37 </v>
   <v type="int" >       38 </v>
   <v type="int" >       39 </v>
   <v type="int" >       40 </v>
   <v type="int" >       41 </v>
   <v type="int" >       42 </v>
   <v type="int" >       43 </v>
   <v type="int" >       44 </v>
   <v type="int" >       45 </v>
   <v type="int" >       46 </v>
   <v type="int" >       47 </v>
   <v type="int" >       48 </v>
   <v type="int" >       49 </v>
   <v type="int" >       50 </v>
   <v type="int" >       51 </v>
   <v type="int" >       52 </v>
   <v type="int" >       53 </v>
   <v type="int" >       54 </v>
   <v type="int" >       55 </v>
   <v type="int" >       56 </v>
   <v type="int" >       57 </v>
   <v type="int" >       58 </v>
   <v type="int" >       59 </v>
   <v type="int" >       60 </v>
   <v type="int" >       61 </v>
   <v type="int" >       62 </v>
   <v type="int" >       63 </v>
   <v type="int" >       64 </v>
   <v type="int" >       65 </v>
   <v type="int" >       66 </v>
   <v type="int" >       67 </v>
   <v type="int" >       68 </v>
   <v type="int" >       69 </v>
   <v type="int" >       70 </v>
   <v type="int" >       71 </v>
   <v type="int" >       72 </v>
   <v type="int" >       73 </v>
   <v type="int" >       74 </v>
   <v type="int" >       75 </v>
   <v type="int" >       76 </v>
   <v type="int" >       77 </v>
   <v type="int" >       78 </v>
   <v type="int" >       79 </v>
   <v type="int" >       80 </v>
   <v type="int" >       81 </v>
   <v type="int" >       82 </v>
   <v type="int" >       83 </v>
   <v type="int" >       84 </v>
   <v type="int" >       85 </v>
   <v type="int" >       86 </v>
   <v type="int" >       87 </v>
   <v type="int" >       88 </v>
   <v type="int" >       89 </v>
   <v type="int" >       90 </v>
   <v type="int" >       91 </v>
   <v type="int" >       92 </v>
   <v type="int" >       93 </v>
   <v type="int" >       94 </v>
   <v type="int" >       95 </v>
  </varray>
 </primitive_cell>
 <kpoints>
  <generation param="Gamma">
   <v type="int" name="divisions">       2        2        1 </v>
   <v name="usershift">      0.00000000       0.00000000       0.00000000 </v>
   <v name="genvec1">      0.50000000       0.00000000       0.00000000 </v>
   <v name="genvec2">      0.00000000       0.50000000       0.00000000 </v>
   <v name="genvec3">      0.00000000       0.00000000       1.00000000 </v>
   <v name="shift">      0.00000000       0.00000000       0.00000000 </v>
  </generation>
  <varray name="kpointlist" >
   <v>       0.00000000       0.00000000       0.00000000 </v>
   <v>       0.50000000       0.00000000       0.00000000 </v>
   <v>       0.00000000       0.50000000       0.00000000 </v>
   <v>       0.50000000       0.50000000       0.00000000 </v>
  </varray>
  <varray name="weights" >
   <v>       0.25000000 </v>
   <v>       0.25000000 </v>
   <v>       0.25000000 </v>
   <v>       0.25000000 </v>
  </varray>
 </kpoints>
 <parameters>
  <separator name="general" >
   <i type="string" name="SYSTEM">unknown system</i>
   <i type="logical" name="LCOMPAT"> F  </i>
  </separator>
  <separator name="electronic" >
   <i type="string" name="PREC">normal</i>
   <i name="ENMAX">    520.00000000</i>
   <i name="ENAUG">    644.87300000</i>
   <i name="EDIFF">      0.00001000</i>
   <i type="int" name="IALGO">    38</i>
   <i type="int" name="IWAVPR">    11</i>
   <i type="int" name="NBANDS">   275</i>
   <i type="int" name="NBANDSLOW">    -1</i>
   <i type="int" name="NBANDSHIGH">    -1</i>
   <i name="NELECT">    392.00000000</i>
   <i type="int" name="TURBO">     0</i>
   <i type="int" name="IRESTART">     0</i>
   <i type="int" name="NREBOOT">     0</i>
   <i type="int" name="NMIN">     0</i>
   <i name="EREF">      0.00000000</i>
   <separator name="electronic smearing" >
    <i type="int" name="ISMEAR">     0</i>
    <i name="SIGMA">      0.05000000</i>
    <i name="KSPACING">      0.50000000</i>
    <i type="logical" name="KGAMMA"> T  </i>
    <i type="logical" name="KBLOWUP"> T  </i>
   </separator>
   <separator name="electronic projectors" >
    <i type="logical" name="LREAL"> T  </i>
    <v name="ROPT">     -0.00050000     -0.00050000     -0.00050000     -0.00050000     -0.00050000</v>
    <i type="int" name="LMAXPAW">  -100</i>
    <i type="int" name="LMAXMIX">     2</i>
    <i type="logical" name="NLSPLINE"> F  </i>
   </separator>
   <separator name="electronic startup" >
    <i type="int" name="ISTART">     0</i>
    <i type="int" name="ICHARG">     2</i>
    <i type="int" name="INIWAV">     1</i>
   </separator>
   <separator name="electronic spin" >
    <i type="int" name="ISPIN">     2</i>
    <i type="logical" name="LNONCOLLINEAR"> F  </i>
    <v name="MAGMOM">      0.60000000      0.60000000      0.60000000      0.60000000      0.60000000      0.60000000      0.60000000      0.60000000      0.60000000      0.60000000      0.60000000      0.60000000      0.60000000      0.60000000      0.60000000      0.60000000      0.60000000      0.60000000      0.60000000      0.60000000
      0.60000000      0.60000000      0.60000000      0.60000000      0.60000000      0.60000000      0.60000000      0.60000000      0.60000000      0.60000000      0.60000000      0.60000000      0.60000000      0.60000000      0.60000000      0.60000000      0.60000000      0.60000000      0.60000000      0.60000000
      0.60000000      0.60000000      0.60000000      0.60000000      0.60000000      0.60000000      0.60000000      0.60000000      0.60000000      0.60000000      0.60000000      0.60000000      0.60000000      0.60000000      0.60000000      0.60000000      0.60000000      0.60000000      0.60000000      0.60000000
      0.60000000      0.60000000      0.60000000      0.60000000      0.60000000      0.60000000      0.60000000      0.60000000      0.60000000      0.60000000      0.60000000      0.60000000      0.60000000      0.60000000      0.60000000      0.60000000      0.60000000      0.60000000      0.60000000      0.60000000
      0.60000000      0.60000000      0.60000000      0.60000000      0.60000000      0.60000000      0.60000000      0.60000000      0.60000000      0.60000000      0.60000000      0.60000000      0.60000000      0.60000000      0.60000000</v>
    <i name="NUPDOWN">     -1.00000000</i>
    <i type="logical" name="LSORBIT"> F  </i>
    <v name="SAXIS">      0.00000000      0.00000000      1.00000000</v>
    <i type="logical" name="LSPIRAL"> F  </i>
    <v name="QSPIRAL">      0.00000000      0.00000000      0.00000000</v>
    <i type="logical" name="LZEROZ"> F  </i>
   </separator>
   <separator name="electronic exchange-correlation" >
    <i type="logical" name="LASPH"> T  </i>
    <i type="logical" name="LMETAGGA"> F  </i>
   </separator>
   <separator name="electronic convergence" >
    <i type="int" name="NELM">   200</i>
    <i type="int" name="NELMDL">    -5</i>
    <i type="int" name="NELMIN">     2</i>
    <i name="ENINI">    520.00000000</i>
    <separator name="electronic convergence detail" >
     <i type="logical" name="LDIAG"> T  </i>
     <i type="logical" name="LSUBROT"> F  </i>
     <i name="WEIMIN">      0.00100000</i>
     <i name="EBREAK">      0.00000001</i>
     <i name="DEPER">      0.30000000</i>
     <i type="int" name="NRMM">     4</i>
     <i name="TIME">      0.40000000</i>
    </separator>
   </separator>
   <separator name="electronic mixer" >
    <i name="AMIX">      0.20000000</i>
    <i name="BMIX">      0.00010000</i>
    <i name="AMIN">      0.10000000</i>
    <i name="AMIX_MAG">      0.80000000</i>
    <i name="BMIX_MAG">      0.00010000</i>
    <separator name="electronic mixer details" >
     <i type="int" name="IMIX">     4</i>
     <i type="logical" name="MIXFIRST"> F  </i>
     <i type="int" name="MAXMIX">   -45</i>
     <i name="WC">    100.00000000</i>
     <i type="int" name="INIMIX">     1</i>
     <i type="int" name="MIXPRE">     1</i>
     <i type="int" name="MREMOVE">     5</i>
    </separator>
   </separator>
   <separator name="electronic dipolcorrection" >
    <i type="logical" name="LDIPOL"> F  </i>
    <i type="logical" name="LMONO"> F  </i>
    <i type="int" name="IDIPOL">     0</i>
    <i name="EPSILON">      1.00000000</i>
    <v name="DIPOL">   -100.00000000   -100.00000000   -100.00000000</v>
    <i name="EFIELD">      0.00000000</i>
   </separator>
  </separator>
  <separator name="grids" >
   <i type="int" name="NGX">    96</i>
   <i type="int" name="NGY">    96</i>
   <i type="int" name="NGZ">    84</i>
   <i type="int" name="NGXF">   192</i>
   <i type="int" name="NGYF">   192</i>
   <i type="int" name="NGZF">   168</i>
   <i type="logical" name="ADDGRID"> T  </i>
  </separator>
  <separator name="ionic" >
   <i type="int" name="NSW">  1000</i>
   <i type="int" name="IBRION">     3</i>
   <i type="int" name="MDALGO">     0</i>
   <i type="int" name="ISIF">     2</i>
   <i name="PSTRESS">      0.00000000</i>
   <i name="EDIFFG">     -0.03000000</i>
   <i type="int" name="NFREE">     0</i>
   <i name="POTIM">      0.00000000</i>
   <i name="SMASS">     -3.00000000</i>
   <i name="SCALEE">      1.00000000</i>
  </separator>
  <separator name="ionic md" >
   <i name="TEBEG">      0.00010000</i>
   <i name="TEEND">      0.00010000</i>
   <i type="int" name="NBLOCK">     1</i>
   <i type="int" name="KBLOCK">  1000</i>
   <i type="int" name="NPACO">   256</i>
   <i name="APACO">     10.00000000</i>
  </separator>
  <separator name="symmetry" >
   <i type="int" name="ISYM">     0</i>
   <i name="SYMPREC">      0.00001000</i>
  </separator>
  <separator name="dos" >
   <i type="int" name="LORBIT">     0</i>
   <v name="RWIGS">     -1.00000000     -1.00000000     -1.00000000     -1.00000000     -1.00000000</v>
   <i type="int" name="NEDOS">   301</i>
   <i name="EMIN">     10.00000000</i>
   <i name="EMAX">    -10.00000000</i>
   <i name="EFERMI">      0.00000000</i>
  </separator>
  <separator name="writing" >
   <i type="int" name="NWRITE">     2</i>
   <i type="logical" name="LWAVE"> F  </i>
   <i type="logical" name="LDOWNSAMPLE"> F  </i>
   <i type="logical" name="LCHARG"> F  </i>
   <i type="logical" name="LPARD"> F  </i>
   <i type="logical" name="LVTOT"> F  </i>
   <i type="logical" name="LVHAR"> F  </i>
   <i type="logical" name="LELF"> F  </i>
   <i type="logical" name="LOPTICS"> F  </i>
   <v name="STM">      0.00000000      0.00000000      0.00000000      0.00000000      0.00000000      0.00000000      0.00000000</v>
  </separator>
  <separator name="performance" >
   <i type="int" name="NPAR">     5</i>
   <i type="int" name="NSIM">     4</i>
   <i type="int" name="NBLK">    -1</i>
   <i type="logical" name="LPLANE"> T  </i>
   <i type="logical" name="LSCALAPACK"> T  </i>
   <i type="logical" name="LSCAAWARE"> F  </i>
   <i type="logical" name="LSCALU"> F  </i>
   <i type="logical" name="LASYNC"> F  </i>
   <i type="logical" name="LORBITALREAL"> F  </i>
  </separator>
  <separator name="miscellaneous" >
   <i type="int" name="IDIOT">     3</i>
   <i type="int" name="PHON_NSTRUCT">    -1</i>
   <i type="logical" name="LMUSIC"> F  </i>
   <v name="POMASS">     12.01100000     18.99800000     14.00100000      1.00000000     16.00000000</v>
   <v name="DARWINR">      0.00000000      0.00000000      0.00000000      0.00000000      0.00000000</v>
   <v name="DARWINV">      1.00000000      1.00000000      1.00000000      1.00000000      1.00000000</v>
   <i type="logical" name="LCORR"> T  </i>
  </separator>
  <i type="logical" name="GGA_COMPAT"> T  </i>
  <i type="logical" name="LBERRY"> F  </i>
  <i type="int" name="ICORELEVEL">     0</i>
  <i type="logical" name="LDAU"> F  </i>
  <i type="int" name="I_CONSTRAINED_M">     0</i>
  <separator name="electronic exchange-correlation" >
   <i type="string" name="GGA">--</i>
   <i type="int" name="VOSKOWN">     0</i>
   <i type="logical" name="LHFCALC"> F  </i>
   <i type="string" name="PRECFOCK"></i>
   <i type="logical" name="LSYMGRAD"> F  </i>
   <i type="logical" name="LHFONE"> F  </i>
   <i type="logical" name="LRHFCALC"> F  </i>
   <i type="logical" name="LTHOMAS"> F  </i>
   <i type="logical" name="LMODELHF"> F  </i>
   <i type="logical" name="LFOCKACE"> F  </i>
   <i name="ENCUT4O">     -1.00000000</i>
   <i type="int" name="EXXOEP">     0</i>
   <i type="int" name="FOURORBIT">     0</i>
   <i name="AEXX">      0.00000000</i>
   <i name="HFALPHA">      0.00000000</i>
   <i name="MCALPHA">      0.00000000</i>
   <i name="ALDAX">      1.00000000</i>
   <i name="AGGAX">      1.00000000</i>
   <i name="ALDAC">      1.00000000</i>
   <i name="AGGAC">      1.00000000</i>
   <i type="int" name="NKREDX">     1</i>
   <i type="int" name="NKREDY">     1</i>
   <i type="int" name="NKREDZ">     1</i>
   <i type="logical" name="SHIFTRED"> F  </i>
   <i type="logical" name="ODDONLY"> F  </i>
   <i type="logical" name="EVENONLY"> F  </i>
   <i type="int" name="LMAXFOCK">     0</i>
   <i type="int" name="NMAXFOCKAE">     0</i>
   <i type="logical" name="LFOCKAEDFT"> F  </i>
   <i name="HFSCREEN">      0.00000000</i>
   <i name="HFSCREENC">      0.00000000</i>
   <i type="int" name="NBANDSGWLOW">     0</i>
  </separator>
  <separator name="vdW DFT" >
   <i type="logical" name="LUSE_VDW"> F  </i>
   <i type="int" name="IVDW_NL">     1</i>
   <i type="logical" name="LSPIN_VDW"> F  </i>
   <i name="Zab_VDW">     -0.84910000</i>
   <i name="PARAM1">      0.12340000</i>
   <i name="PARAM2">      1.00000000</i>
   <i name="PARAM3">      0.00000000</i>
  </separator>
  <separator name="model GW" >
   <i type="int" name="MODEL_GW">     0</i>
   <i name="MODEL_EPS0">     24.47295536</i>
   <i name="MODEL_ALPHA">      1.00000000</i>
  </separator>
  <separator name="linear response parameters" >
   <i type="logical" name="LEPSILON"> F  </i>
   <i type="logical" name="LRPA"> F  </i>
   <i type="logical" name="LNABLA"> F  </i>
   <i type="logical" name="LVEL"> F  </i>
   <i name="CSHIFT">      0.10000000</i>
   <i name="OMEGAMAX">     -1.00000000</i>
   <i name="DEG_THRESHOLD">      0.00200000</i>
   <i name="RTIME">     -0.10000000</i>
   <i name="WPLASMAI">      0.00000000</i>
   <v name="DFIELD">      0.00000000      0.00000000      0.00000000</v>
   <v name="WPLASMA">      0.00000000      0.00000000      0.00000000      0.00000000      0.00000000      0.00000000      0.00000000      0.00000000      0.00000000</v>
  </separator>
  <separator name="orbital magnetization" >
   <i type="logical" name="NUCIND"> F  </i>
   <v name="MAGPOS">      0.00000000      0.00000000      0.00000000</v>
   <i type="logical" name="LNICSALL"> T  </i>
   <i type="logical" name="ORBITALMAG"> F  </i>
   <i type="logical" name="LMAGBLOCH"> F  </i>
   <i type="logical" name="LCHIMAG"> F  </i>
   <i type="logical" name="LGAUGE"> T  </i>
   <i type="int" name="MAGATOM">     0</i>
   <v name="MAGDIPOL">      0.00000000      0.00000000      0.00000000</v>
   <v name="AVECCONST">      0.00000000      0.00000000      0.00000000</v>
  </separator>
  <separator name="response functions" >
   <i type="logical" name="LALL_IN_ONE"> F  </i>
   <i type="int" name="IALL_IN_ONE">    -1</i>
   <i type="int" name="NBANDS_WAVE">    -1</i>
   <i type="logical" name="LFINITE_TEMPERATURE"> F  </i>
   <i type="logical" name="LADDER"> F  </i>
   <i type="logical" name="LRPAFORCE"> F  </i>
   <i type="logical" name="LFXC"> F  </i>
   <i type="logical" name="LHARTREE"> T  </i>
   <i type="int" name="IBSE">     0</i>
   <v type="int" name="KPOINT">    -1     0     0     0</v>
   <i type="logical" name="LTCTC"> F  </i>
   <i type="logical" name="LTCTE"> F  </i>
   <i type="logical" name="LTETE"> F  </i>
   <i type="logical" name="LTRIPLET"> F  </i>
   <i type="logical" name="LFXCEPS"> F  </i>
   <i type="logical" name="LFXHEG"> F  </i>
   <i type="int" name="NATURALO">     2</i>
   <i type="logical" name="LHOLEGF"> F  </i>
   <i type="logical" name="L2ORDER"> F  </i>
   <i type="logical" name="LDMP1"> F  </i>
   <i type="logical" name="LMP2LT"> F  </i>
   <i type="logical" name="LSMP2LT"> F  </i>
   <i type="logical" name="LGWLF"> F  </i>
   <i name="ENCUTGW">     -1.60000002</i>
   <i name="ENCUTGWSOFT">     -1.60000002</i>
   <i name="ENCUTLF">     -1.00000000</i>
   <i type="logical" name="LESF_SPLINES"> F  </i>
   <i type="int" name="LMAXMP2">    -1</i>
   <i name="SCISSOR">      0.00000000</i>
   <i type="int" name="NOMEGA">     0</i>
   <i type="int" name="NOMEGAR">     0</i>
   <i type="int" name="NBANDSGW">    -1</i>
   <i type="int" name="NBANDSO">    -1</i>
   <i type="int" name="NBANDSV">    -1</i>
   <i type="int" name="NELMGW">     1</i>
   <i type="int" name="NELMHF">     1</i>
   <i type="int" name="DIM">     3</i>
   <i type="int" name="IESPILON">     4</i>
   <i type="int" name="ANTIRES">     0</i>
   <i name="OMEGAMAX">    -30.00000000</i>
   <i name="OMEGAMIN">    -30.00000000</i>
   <i name="OMEGATL">   -200.00000000</i>
   <i type="int" name="OMEGAGRID">     0</i>
   <i name="CSHIFT">     -0.10000000</i>
   <i type="logical" name="LSELFENERGY"> F  </i>
   <i type="logical" name="LSPECTRAL"> F  </i>
   <i type="logical" name="LSPECTRALGW"> F  </i>
   <i type="logical" name="LSINGLES"> F  </i>
   <i type="logical" name="LFERMIGW"> F  </i>
   <i type="logical" name="ODDONLYGW"> F  </i>
   <i type="logical" name="EVENONLYGW"> F  </i>
   <i type="int" name="NKREDLFX">     1</i>
   <i type="int" name="NKREDLFY">     1</i>
   <i type="int" name="NKREDLFZ">     1</i>
   <i type="int" name="MAXMEM">  2800</i>
   <i type="int" name="TELESCOPE">     0</i>
   <i type="int" name="NTAUPAR">    -1</i>
   <i type="int" name="NOMEGAPAR">    -1</i>
   <i name="DAMP_NEWTON">      0.80000001</i>
   <i name="LAMBDA">      1.00000000</i>
  </separator>
  <separator name="External order field" >
   <i name="OFIELD_KAPPA">      0.00000000</i>
   <v name="OFIELD_K">      0.00000000      0.00000000      0.00000000</v>
   <i name="OFIELD_Q6_NEAR">      0.00000000</i>
   <i name="OFIELD_Q6_FAR">      0.00000000</i>
   <i name="OFIELD_A">      0.00000000</i>
  </separator>
  <separator name="optional k-points parameters" >
   <i type="int" name="KPOINTS_OPT_MODE">     1</i>
   <i type="logical" name="LKPOINTS_OPT"> F  </i>
  </separator>
 </parameters>
 <atominfo>
  <atoms>      95 </atoms>
  <types>       5 </types>
  <array name="atoms" >
   <dimension dim="1">ion</dimension>
   <field type="string">element</field>
   <field type="int">atomtype</field>
   <set>
    <rc><c>C </c><c>   1</c></rc>
    <rc><c>C </c><c>   1</c></rc>
    <rc><c>C </c><c>   1</c></rc>
    <rc><c>C </c><c>   1</c></rc>
    <rc><c>C </c><c>   1</c></rc>
    <rc><c>C </c><c>   1</c></rc>
    <rc><c>C </c><c>   1</c></rc>
    <rc><c>C </c><c>   1</c></rc>
    <rc><c>C </c><c>   1</c></rc>
    <rc><c>C </c><c>   1</c></rc>
    <rc><c>C </c><c>   1</c></rc>
    <rc><c>C </c><c>   1</c></rc>
    <rc><c>C </c><c>   1</c></rc>
    <rc><c>C </c><c>   1</c></rc>
    <rc><c>C </c><c>   1</c></rc>
    <rc><c>C </c><c>   1</c></rc>
    <rc><c>C </c><c>   1</c></rc>
    <rc><c>C </c><c>   1</c></rc>
    <rc><c>C </c><c>   1</c></rc>
    <rc><c>C </c><c>   1</c></rc>
    <rc><c>C </c><c>   1</c></rc>
    <rc><c>C </c><c>   1</c></rc>
    <rc><c>C </c><c>   1</c></rc>
    <rc><c>C </c><c>   1</c></rc>
    <rc><c>C </c><c>   1</c></rc>
    <rc><c>C </c><c>   1</c></rc>
    <rc><c>C </c><c>   1</c></rc>
    <rc><c>C </c><c>   1</c></rc>
    <rc><c>C </c><c>   1</c></rc>
    <rc><c>C </c><c>   1</c></rc>
    <rc><c>C </c><c>   1</c></rc>
    <rc><c>C </c><c>   1</c></rc>
    <rc><c>C </c><c>   1</c></rc>
    <rc><c>C </c><c>   1</c></rc>
    <rc><c>C </c><c>   1</c></rc>
    <rc><c>C </c><c>   1</c></rc>
    <rc><c>C </c><c>   1</c></rc>
    <rc><c>C </c><c>   1</c></rc>
    <rc><c>C </c><c>   1</c></rc>
    <rc><c>C </c><c>   1</c></rc>
    <rc><c>C </c><c>   1</c></rc>
    <rc><c>C </c><c>   1</c></rc>
    <rc><c>C </c><c>   1</c></rc>
    <rc><c>C </c><c>   1</c></rc>
    <rc><c>C </c><c>   1</c></rc>
    <rc><c>C </c><c>   1</c></rc>
    <rc><c>C </c><c>   1</c></rc>
    <rc><c>C </c><c>   1</c></rc>
    <rc><c>C </c><c>   1</c></rc>
    <rc><c>C </c><c>   1</c></rc>
    <rc><c>C </c><c>   1</c></rc>
    <rc><c>C </c><c>   1</c></rc>
    <rc><c>C </c><c>   1</c></rc>
    <rc><c>C </c><c>   1</c></rc>
    <rc><c>C </c><c>   1</c></rc>
    <rc><c>C </c><c>   1</c></rc>
    <rc><c>C </c><c>   1</c></rc>
    <rc><c>C </c><c>   1</c></rc>
    <rc><c>C </c><c>   1</c></rc>
    <rc><c>C </c><c>   1</c></rc>
    <rc><c>C </c><c>   1</c></rc>
    <rc><c>C </c><c>   1</c></rc>
    <rc><c>C </c><c>   1</c></rc>
    <rc><c>C </c><c>   1</c></rc>
    <rc><c>C </c><c>   1</c></rc>
    <rc><c>C </c><c>   1</c></rc>
    <rc><c>C </c><c>   1</c></rc>
    <rc><c>C </c><c>   1</c></rc>
    <rc><c>C </c><c>   1</c></rc>
    <rc><c>C </c><c>   1</c></rc>
    <rc><c>C </c><c>   1</c></rc>
    <rc><c>C </c><c>   1</c></rc>
    <rc><c>C </c><c>   1</c></rc>
    <rc><c>C </c><c>   1</c></rc>
    <rc><c>C </c><c>   1</c></rc>
    <rc><c>C </c><c>   1</c></rc>
    <rc><c>C </c><c>   1</c></rc>
    <rc><c>C </c><c>   1</c></rc>
    <rc><c>C </c><c>   1</c></rc>
    <rc><c>C </c><c>   1</c></rc>
    <rc><c>C </c><c>   1</c></rc>
    <rc><c>C </c><c>   1</c></rc>
    <rc><c>C </c><c>   1</c></rc>
    <rc><c>C </c><c>   1</c></rc>
    <rc><c>F </c><c>   2</c></rc>
    <rc><c>F </c><c>   2</c></rc>
    <rc><c>F </c><c>   2</c></rc>
    <rc><c>F </c><c>   2</c></rc>
    <rc><c>N </c><c>   3</c></rc>
    <rc><c>N </c><c>   3</c></rc>
    <rc><c>N </c><c>   3</c></rc>
    <rc><c>N </c><c>   3</c></rc>
    <rc><c>H </c><c>   4</c></rc>
    <rc><c>H </c><c>   4</c></rc>
    <rc><c>O </c><c>   5</c></rc>
   </set>
  </array>
  <array name="atomtypes" >
   <dimension dim="1">type</dimension>
   <field type="int">atomspertype</field>
   <field type="string">element</field>
   <field>mass</field>
   <field>valence</field>
   <field type="string">pseudopotential</field>
   <set>
    <rc><c>  84</c><c>C </c><c>     12.01100000</c><c>      4.00000000</c><c>  PAW_PBE C 08Apr2002                   </c></rc>
    <rc><c>   4</c><c>F </c><c>     18.99800000</c><c>      7.00000000</c><c>  PAW_PBE F 08Apr2002                   </c></rc>
    <rc><c>   4</c><c>N </c><c>     14.00100000</c><c>      5.00000000</c><c>  PAW_PBE N 08Apr2002                   </c></rc>
    <rc><c>   2</c><c>H </c><c>      1.00000000</c><c>      1.00000000</c><c>  PAW_PBE H 15Jun2001                   </c></rc>
    <rc><c>   1</c><c>O </c><c>     16.00000000</c><c>      6.00000000</c><c>  PAW_PBE O 08Apr2002                   </c></rc>
   </set>
  </array>
 </atominfo>
 <structure name="initialpos" >
  <crystal>
   <varray name="basis" >
    <v>      17.27103806       0.00000000       0.00000000 </v>
    <v>      -8.63551903      14.95715771       0.00000000 </v>
    <v>       0.00000000       0.00000000      15.00000000 </v>
   </varray>
   <i name="volume">   3874.88459904 </i>
   <varray name="rec_basis" >
    <v>       0.05790040       0.03342881       0.00000000 </v>
    <v>       0.00000000       0.06685762       0.00000000 </v>
    <v>       0.00000000       0.00000000       0.06666667 </v>
   </varray>
  </crystal>
  <varray name="positions" >
   <v>       0.99836532       0.99908242       0.50499703 </v>
   <v>       0.99694678       0.14087319       0.50129032 </v>
   <v>       0.99698607       0.28418184       0.49904831 </v>
   <v>       0.99764246       0.42753179       0.50000845 </v>
   <v>       0.99808060       0.57073477       0.50244907 </v>
   <v>       0.99910484       0.71380989       0.50543837 </v>
   <v>       0.00008051       0.85742395       0.50636628 </v>
   <v>       0.14241349       0.00098732       0.49839810 </v>
   <v>       0.14106348       0.14279164       0.49656006 </v>
   <v>       0.13873814       0.28385374       0.49364804 </v>
   <v>       0.14011666       0.42783267       0.49287900 </v>
   <v>       0.14123015       0.57065910       0.49471574 </v>
   <v>       0.14145308       0.71394381       0.49626284 </v>
   <v>       0.14208954       0.85757589       0.49785802 </v>
   <v>       0.28528644       0.00156471       0.49790091 </v>
   <v>       0.28554488       0.14531210       0.49680007 </v>
   <v>       0.28373508       0.28997529       0.49107021 </v>
   <v>       0.28061678       0.42323132       0.48760714 </v>
   <v>       0.28583996       0.57090278       0.49015901 </v>
   <v>       0.28390574       0.71436376       0.49460903 </v>
   <v>       0.28413339       0.85777004       0.49650561 </v>
   <v>       0.42742468       0.00049099       0.50223118 </v>
   <v>       0.42878965       0.14523214       0.50424705 </v>
   <v>       0.42711338       0.28493390       0.49929347 </v>
   <v>       0.42596690       0.85648427       0.50161485 </v>
   <v>       0.56923877       0.99824016       0.50685229 </v>
   <v>       0.57018027       0.14228767       0.50875586 </v>
   <v>       0.57480242       0.28947866       0.51711891 </v>
   <v>       0.56730586       0.85312936       0.51441814 </v>
   <v>       0.71127169       0.99627604       0.51227701 </v>
   <v>       0.71230584       0.14080243       0.50851776 </v>
   <v>       0.71330295       0.28465578       0.51426050 </v>
   <v>       0.71037735       0.42465893       0.53074868 </v>
   <v>       0.72288281       0.57639756       0.56310120 </v>
   <v>       0.71157873       0.85269337       0.52774478 </v>
   <v>       0.85447236       0.99740204       0.51233849 </v>
   <v>       0.85423719       0.14048082       0.50610017 </v>
   <v>       0.85495391       0.28415408       0.50621476 </v>
   <v>       0.85555003       0.42762799       0.51192137 </v>
   <v>       0.85528791       0.57058700       0.51971594 </v>
   <v>       0.85881174       0.71496244       0.52460691 </v>
   <v>       0.85694074       0.85592599       0.52087120 </v>
   <v>       0.04566663       0.09431225       0.50052379 </v>
   <v>       0.04372294       0.23591146       0.49757863 </v>
   <v>       0.04476218       0.37979271       0.49686117 </v>
   <v>       0.04576867       0.52298334       0.49853390 </v>
   <v>       0.04624485       0.66614805       0.50060030 </v>
   <v>       0.04694618       0.80938759       0.50254742 </v>
   <v>       0.04699075       0.95249137       0.50272699 </v>
   <v>       0.18985352       0.09621657       0.49668879 </v>
   <v>       0.18757005       0.23786239       0.49346764 </v>
   <v>       0.18571381       0.37868350       0.49114785 </v>
   <v>       0.18922636       0.52330038       0.49230330 </v>
   <v>       0.18870577       0.66625671       0.49438237 </v>
   <v>       0.18921201       0.80964717       0.49614101 </v>
   <v>       0.18998715       0.95320863       0.49741615 </v>
   <v>       0.33332672       0.09763199       0.49930376 </v>
   <v>       0.33319088       0.24132750       0.49491211 </v>
   <v>       0.32730717       0.51890783       0.48609007 </v>
   <v>       0.33472141       0.66950224       0.49433014 </v>
   <v>       0.33123504       0.80949291       0.49698273 </v>
   <v>       0.33213638       0.95316273       0.49862091 </v>
   <v>       0.47522447       0.09586801       0.50549335 </v>
   <v>       0.47736788       0.24119604       0.50761682 </v>
   <v>       0.46991128       0.80501554       0.50558238 </v>
   <v>       0.47430706       0.95194688       0.50367087 </v>
   <v>       0.61702304       0.09363900       0.50799447 </v>
   <v>       0.61854767       0.23778133       0.51365822 </v>
   <v>       0.61760643       0.80986679       0.52786508 </v>
   <v>       0.61582032       0.94895934       0.51077330 </v>
   <v>       0.75911631       0.09227373       0.50860513 </v>
   <v>       0.76018507       0.23620721       0.50939468 </v>
   <v>       0.76064081       0.37977116       0.51886411 </v>
   <v>       0.76042604       0.52350284       0.53836061 </v>
   <v>       0.76621942       0.67141060       0.54680076 </v>
   <v>       0.76168539       0.80436885       0.53462273 </v>
   <v>       0.75896136       0.94839848       0.51714840 </v>
   <v>       0.90162904       0.09249280       0.50623371 </v>
   <v>       0.90191612       0.23607503       0.50338094 </v>
   <v>       0.90253692       0.37981854       0.50562966 </v>
   <v>       0.90284542       0.52315269       0.51028840 </v>
   <v>       0.90427212       0.66597779       0.51616818 </v>
   <v>       0.90536758       0.80961919       0.51674539 </v>
   <v>       0.90318110       0.95075655       0.51247022 </v>
   <v>       0.47261567       0.37410025       0.49469536 </v>
   <v>       0.41648031       0.55878985       0.48110132 </v>
   <v>       0.64639618       0.53870229       0.60929384 </v>
   <v>       0.57188364       0.72139883       0.54228975 </v>
   <v>       0.42413313       0.71497462       0.50022483 </v>
   <v>       0.72033568       0.71626786       0.55202394 </v>
   <v>       0.32738575       0.37947326       0.48729138 </v>
   <v>       0.62067736       0.37916267       0.52932211 </v>
   <v>       0.59067067       0.61404969       0.50298118 </v>
   <v>       0.51697884       0.51770556       0.47836073 </v>
   <v>       0.57808145       0.56327405       0.46511209 </v>
  </varray>
  <varray name="selective"  type="logical" >
   <v type="logical" >  T  T  T </v>
   <v type="logical" >  T  T  T </v>
   <v type="logical" >  T  T  T </v>
   <v type="logical" >  T  T  T </v>
   <v type="logical" >  T  T  T </v>
   <v type="logical" >  T  T  T </v>
   <v type="logical" >  T  T  T </v>
   <v type="logical" >  T  T  T </v>
   <v type="logical" >  T  T  T </v>
   <v type="logical" >  T  T  T </v>
   <v type="logical" >  T  T  T </v>
   <v type="logical" >  T  T  T </v>
   <v type="logical" >  T  T  T </v>
   <v type="logical" >  T  T  T </v>
   <v type="logical" >  T  T  T </v>
   <v type="logical" >  T  T  T </v>
   <v type="logical" >  T  T  T </v>
   <v type="logical" >  T  T  T </v>
   <v type="logical" >  T  T  T </v>
   <v type="logical" >  T  T  T </v>
   <v type="logical" >  T  T  T </v>
   <v type="logical" >  T  T  T </v>
   <v type="logical" >  T  T  T </v>
   <v type="logical" >  T  T  T </v>
   <v type="logical" >  T  T  T </v>
   <v type="logical" >  T  T  T </v>
   <v type="logical" >  T  T  T </v>
   <v type="logical" >  T  T  T </v>
   <v type="logical" >  T  T  T </v>
   <v type="logical" >  T  T  T </v>
   <v type="logical" >  T  T  T </v>
   <v type="logical" >  T  T  T </v>
   <v type="logical" >  T  T  T </v>
   <v type="logical" >  T  T  T </v>
   <v type="logical" >  T  T  T </v>
   <v type="logical" >  T  T  T </v>
   <v type="logical" >  T  T  T </v>
   <v type="logical" >  T  T  T </v>
   <v type="logical" >  T  T  T </v>
   <v type="logical" >  T  T  T </v>
   <v type="logical" >  T  T  T </v>
   <v type="logical" >  T  T  T </v>
   <v type="logical" >  T  T  T </v>
   <v type="logical" >  T  T  T </v>
   <v type="logical" >  T  T  T </v>
   <v type="logical" >  T  T  T </v>
   <v type="logical" >  T  T  T </v>
   <v type="logical" >  T  T  T </v>
   <v type="logical" >  T  T  T </v>
   <v type="logical" >  T  T  T </v>
   <v type="logical" >  T  T  T </v>
   <v type="logical" >  T  T  T </v>
   <v type="logical" >  T  T  T </v>
   <v type="logical" >  T  T  T </v>
   <v type="logical" >  T  T  T </v>
   <v type="logical" >  T  T  T </v>
   <v type="logical" >  T  T  T </v>
   <v type="logical" >  T  T  T </v>
   <v type="logical" >  T  T  T </v>
   <v type="logical" >  T  T  T </v>
   <v type="logical" >  T  T  T </v>
   <v type="logical" >  T  T  T </v>
   <v type="logical" >  T  T  T </v>
   <v type="logical" >  T  T  T </v>
   <v type="logical" >  T  T  T </v>
   <v type="logical" >  T  T  T </v>
   <v type="logical" >  T  T  T </v>
   <v type="logical" >  T  T  T </v>
   <v type="logical" >  T  T  T </v>
   <v type="logical" >  T  T  T </v>
   <v type="logical" >  T  T  T </v>
   <v type="logical" >  T  T  T </v>
   <v type="logical" >  T  T  T </v>
   <v type="logical" >  T  T  T </v>
   <v type="logical" >  T  T  T </v>
   <v type="logical" >  T  T  T </v>
   <v type="logical" >  T  T  T </v>
   <v type="logical" >  T  T  T </v>
   <v type="logical" >  T  T  T </v>
   <v type="logical" >  T  T  T </v>
   <v type="logical" >  T  T  T </v>
   <v type="logical" >  T  T  T </v>
   <v type="logical" >  T  T  T </v>
   <v type="logical" >  T  T  T </v>
   <v type="logical" >  T  T  T </v>
   <v type="logical" >  T  T  T </v>
   <v type="logical" >  T  T  T </v>
   <v type="logical" >  T  T  T </v>
   <v type="logical" >  T  T  T </v>
   <v type="logical" >  T  T  T </v>
   <v type="logical" >  T  T  T </v>
   <v type="logical" >  T  T  T </v>
   <v type="logical" >  T  T  T </v>
   <v type="logical" >  T  T  T </v>
   <v type="logical" >  T  T  T </v>
  </varray>
  <nose>
   <v>      -3.00000000       0.00000000       0.00010000       0.00010000 </v>
  </nose>
 </structure>
 <calculation>
  <scstep>
   <time name="dav">   74.74   75.25</time>
   <time name="total">   80.01   80.60</time>
   <energy>
    <i name="alphaZ">    196.22536771 </i>
    <i name="ewald">  39494.21118936 </i>
    <i name="hartreedc"> -52232.99665478 </i>
    <i name="XCdc">   1371.07090020 </i>
    <i name="pawpsdc">  12438.68778162 </i>
    <i name="pawaedc"> -12513.22827041 </i>
    <i name="eentropy">     -0.04771760 </i>
    <i name="bandstr">  -1650.00143962 </i>
    <i name="atom">  16514.44393368 </i>
    <i name="e_fr_energy">   3618.36509017 </i>
    <i name="e_wo_entrp">   3618.41280778 </i>
    <i name="e_0_energy">   3618.38894897 </i>
   </energy>
  </scstep>
  <scstep>
   <time name="dav">   97.38   98.06</time>
   <time name="total">   97.38   98.11</time>
   <energy>
    <i name="e_fr_energy">   -181.77806655 </i>
    <i name="e_wo_entrp">   -181.76793923 </i>
    <i name="e_0_energy">   -181.77300289 </i>
   </energy>
  </scstep>
  <scstep>
   <time name="dav">   84.34   84.93</time>
   <time name="total">   84.34   84.97</time>
   <energy>
    <i name="e_fr_energy">   -851.34814971 </i>
    <i name="e_wo_entrp">   -851.34442074 </i>
    <i name="e_0_energy">   -851.34628523 </i>
   </energy>
  </scstep>
  <scstep>
   <time name="dav">   83.70   84.29</time>
   <time name="total">   83.70   84.31</time>
   <energy>
    <i name="e_fr_energy">   -873.71817914 </i>
    <i name="e_wo_entrp">   -873.71571746 </i>
    <i name="e_0_energy">   -873.71694830 </i>
   </energy>
  </scstep>
  <scstep>
   <time name="dav">   93.29   93.98</time>
   <time name="total">   99.13   99.87</time>
   <energy>
    <i name="e_fr_energy">   -874.41524797 </i>
    <i name="e_wo_entrp">   -874.41287602 </i>
    <i name="e_0_energy">   -874.41406199 </i>
   </energy>
  </scstep>
  <scstep>
   <time name="dav">   82.33   82.85</time>
   <time name="total">   93.65   94.29</time>
   <energy>
    <i name="e_fr_energy">   -857.41446103 </i>
    <i name="e_wo_entrp">   -857.40973892 </i>
    <i name="e_0_energy">   -857.41209997 </i>
   </energy>
  </scstep>
  <scstep>
   <time name="dav">   80.60   81.15</time>
   <time name="total">   92.06   92.75</time>
   <energy>
    <i name="e_fr_energy">   -837.08765604 </i>
    <i name="e_wo_entrp">   -837.08764510 </i>
    <i name="e_0_energy">   -837.08765057 </i>
   </energy>
  </scstep>
  <scstep>
   <time name="dav">   80.76   81.28</time>
   <time name="total">   91.80   92.42</time>
   <energy>
    <i name="e_fr_energy">   -832.43203073 </i>
    <i name="e_wo_entrp">   -832.43203046 </i>
    <i name="e_0_energy">   -832.43203060 </i>
   </energy>
  </scstep>
  <scstep>
   <time name="dav">   79.66   80.17</time>
   <time name="total">   90.96   91.60</time>
   <energy>
    <i name="e_fr_energy">   -832.53785885 </i>
    <i name="e_wo_entrp">   -832.53785863 </i>
    <i name="e_0_energy">   -832.53785874 </i>
   </energy>
  </scstep>
  <scstep>
   <time name="dav">   80.20   80.72</time>
   <time name="total">   91.14   91.77</time>
   <energy>
    <i name="e_fr_energy">   -832.37407361 </i>
    <i name="e_wo_entrp">   -832.37407336 </i>
    <i name="e_0_energy">   -832.37407349 </i>
   </energy>
  </scstep>
  <scstep>
   <time name="dav">   80.96   81.49</time>
   <time name="total">   91.83   92.46</time>
   <energy>
    <i name="e_fr_energy">   -832.35991703 </i>
    <i name="e_wo_entrp">   -832.35991685 </i>
    <i name="e_0_energy">   -832.35991694 </i>
   </energy>
  </scstep>
  <scstep>
   <time name="dav">   82.44   83.05</time>
   <time name="total">   92.84   93.55</time>
   <energy>
    <i name="e_fr_energy">   -832.36008240 </i>
    <i name="e_wo_entrp">   -832.36008223 </i>
    <i name="e_0_energy">   -832.36008232 </i>
   </energy>
  </scstep>
  <scstep>
   <time name="dav">   80.64   81.19</time>
   <time name="total">   91.06   91.71</time>
   <energy>
    <i name="e_fr_energy">   -832.36028722 </i>
    <i name="e_wo_entrp">   -832.36028704 </i>
    <i name="e_0_energy">   -832.36028713 </i>
   </energy>
  </scstep>
  <scstep>
   <time name="dav">   83.69   84.27</time>
   <time name="total">   94.04   94.72</time>
   <energy>
    <i name="e_fr_energy">   -832.36032260 </i>
    <i name="e_wo_entrp">   -832.36032242 </i>
    <i name="e_0_energy">   -832.36032251 </i>
   </energy>
  </scstep>
  <scstep>
   <time name="dav">   77.39   77.92</time>
   <time name="total">   87.82   88.44</time>
   <energy>
    <i name="e_fr_energy">   -832.36038461 </i>
    <i name="e_wo_entrp">   -832.36038443 </i>
    <i name="e_0_energy">   -832.36038452 </i>
   </energy>
  </scstep>
  <scstep>
   <time name="dav">   70.87   71.33</time>
   <time name="total">   75.85   76.36</time>
   <energy>
    <i name="alphaZ">    196.22536771 </i>
    <i name="ewald">  39494.21118936 </i>
    <i name="hartreedc"> -53694.37958565 </i>
    <i name="XCdc">   1420.05305245 </i>
    <i name="pawpsdc">  39634.03446716 </i>
    <i name="pawaedc"> -39719.74609288 </i>
    <i name="eentropy">     -0.00000018 </i>
    <i name="bandstr">  -4677.20271485 </i>
    <i name="atom">  16514.44393368 </i>
    <i name="e_fr_energy">   -832.36038321 </i>
    <i name="e_wo_entrp">   -832.36038303 </i>
    <i name="e_0_energy">   -832.36038312 </i>
   </energy>
  </scstep>
  <structure>
   <crystal>
    <varray name="basis" >
     <v>      17.27103806       0.00000000       0.00000000 </v>
     <v>      -8.63551903      14.95715771       0.00000000 </v>
     <v>       0.00000000       0.00000000      15.00000000 </v>
    </varray>
    <i name="volume">   3874.88459904 </i>
    <varray name="rec_basis" >
     <v>       0.05790040       0.03342881       0.00000000 </v>
     <v>       0.00000000       0.06685762       0.00000000 </v>
     <v>       0.00000000       0.00000000       0.06666667 </v>
    </varray>
   </crystal>
   <varray name="positions" >
    <v>       0.99836532       0.99908242       0.50499703 </v>
    <v>       0.99694678       0.14087319       0.50129032 </v>
    <v>       0.99698607       0.28418184       0.49904831 </v>
    <v>       0.99764246       0.42753179       0.50000845 </v>
    <v>       0.99808060       0.57073477       0.50244907 </v>
    <v>       0.99910484       0.71380989       0.50543837 </v>
    <v>       0.00008051       0.85742395       0.50636628 </v>
    <v>       0.14241349       0.00098732       0.49839810 </v>
    <v>       0.14106348       0.14279164       0.49656006 </v>
    <v>       0.13873814       0.28385374       0.49364804 </v>
    <v>       0.14011666       0.42783267       0.49287900 </v>
    <v>       0.14123015       0.57065910       0.49471574 </v>
    <v>       0.14145308       0.71394381       0.49626284 </v>
    <v>       0.14208954       0.85757589       0.49785802 </v>
    <v>       0.28528644       0.00156471       0.49790091 </v>
    <v>       0.28554488       0.14531210       0.49680007 </v>
    <v>       0.28373508       0.28997529       0.49107021 </v>
    <v>       0.28061678       0.42323132       0.48760714 </v>
    <v>       0.28583996       0.57090278       0.49015901 </v>
    <v>       0.28390574       0.71436376       0.49460903 </v>
    <v>       0.28413339       0.85777004       0.49650561 </v>
    <v>       0.42742468       0.00049099       0.50223118 </v>
    <v>       0.42878965       0.14523214       0.50424705 </v>
    <v>       0.42711338       0.28493390       0.49929347 </v>
    <v>       0.42596690       0.85648427       0.50161485 </v>
    <v>       0.56923877       0.99824016       0.50685229 </v>
    <v>       0.57018027       0.14228767       0.50875586 </v>
    <v>       0.57480242       0.28947866       0.51711891 </v>
    <v>       0.56730586       0.85312936       0.51441814 </v>
    <v>       0.71127169       0.99627604       0.51227701 </v>
    <v>       0.71230584       0.14080243       0.50851776 </v>
    <v>       0.71330295       0.28465578       0.51426050 </v>
    <v>       0.71037735       0.42465893       0.53074868 </v>
    <v>       0.72288281       0.57639756       0.56310120 </v>
    <v>       0.71157873       0.85269337       0.52774478 </v>
    <v>       0.85447236       0.99740204       0.51233849 </v>
    <v>       0.85423719       0.14048082       0.50610017 </v>
    <v>       0.85495391       0.28415408       0.50621476 </v>
    <v>       0.85555003       0.42762799       0.51192137 </v>
    <v>       0.85528791       0.57058700       0.51971594 </v>
    <v>       0.85881174       0.71496244       0.52460691 </v>
    <v>       0.85694074       0.85592599       0.52087120 </v>
    <v>       0.04566663       0.09431225       0.50052379 </v>
    <v>       0.04372294       0.23591146       0.49757863 </v>
    <v>       0.04476218       0.37979271       0.49686117 </v>
    <v>       0.04576867       0.52298334       0.49853390 </v>
    <v>       0.04624485       0.66614805       0.50060030 </v>
    <v>       0.04694618       0.80938759       0.50254742 </v>
    <v>       0.04699075       0.95249137       0.50272699 </v>
    <v>       0.18985352       0.09621657       0.49668879 </v>
    <v>       0.18757005       0.23786239       0.49346764 </v>
    <v>       0.18571381       0.37868350       0.49114785 </v>
    <v>       0.18922636       0.52330038       0.49230330 </v>
    <v>       0.18870577       0.66625671       0.49438237 </v>
    <v>       0.18921201       0.80964717       0.49614101 </v>
    <v>       0.18998715       0.95320863       0.49741615 </v>
    <v>       0.33332672       0.09763199       0.49930376 </v>
    <v>       0.33319088       0.24132750       0.49491211 </v>
    <v>       0.32730717       0.51890783       0.48609007 </v>
    <v>       0.33472141       0.66950224       0.49433014 </v>
    <v>       0.33123504       0.80949291       0.49698273 </v>
    <v>       0.33213638       0.95316273       0.49862091 </v>
    <v>       0.47522447       0.09586801       0.50549335 </v>
    <v>       0.47736788       0.24119604       0.50761682 </v>
    <v>       0.46991128       0.80501554       0.50558238 </v>
    <v>       0.47430706       0.95194688       0.50367087 </v>
    <v>       0.61702304       0.09363900       0.50799447 </v>
    <v>       0.61854767       0.23778133       0.51365822 </v>
    <v>       0.61760643       0.80986679       0.52786508 </v>
    <v>       0.61582032       0.94895934       0.51077330 </v>
    <v>       0.75911631       0.09227373       0.50860513 </v>
    <v>       0.76018507       0.23620721       0.50939468 </v>
    <v>       0.76064081       0.37977116       0.51886411 </v>
    <v>       0.76042604       0.52350284       0.53836061 </v>
    <v>       0.76621942       0.67141060       0.54680076 </v>
    <v>       0.76168539       0.80436885       0.53462273 </v>
    <v>       0.75896136       0.94839848       0.51714840 </v>
    <v>       0.90162904       0.09249280       0.50623371 </v>
    <v>       0.90191612       0.23607503       0.50338094 </v>
    <v>       0.90253692       0.37981854       0.50562966 </v>
    <v>       0.90284542       0.52315269       0.51028840 </v>
    <v>       0.90427212       0.66597779       0.51616818 </v>
    <v>       0.90536758       0.80961919       0.51674539 </v>
    <v>       0.90318110       0.95075655       0.51247022 </v>
    <v>       0.47261567       0.37410025       0.49469536 </v>
    <v>       0.41648031       0.55878985       0.48110132 </v>
    <v>       0.64639618       0.53870229       0.60929384 </v>
    <v>       0.57188364       0.72139883       0.54228975 </v>
    <v>       0.42413313       0.71497462       0.50022483 </v>
    <v>       0.72033568       0.71626786       0.55202394 </v>
    <v>       0.32738575       0.37947326       0.48729138 </v>
    <v>       0.62067736       0.37916267       0.52932211 </v>
    <v>       0.59067067       0.61404969       0.50298118 </v>
    <v>       0.51697884       0.51770556       0.47836073 </v>
    <v>       0.57808145       0.56327405       0.46511209 </v>
   </varray>
  </structure>
  <varray name="forces" >
   <v>       0.00204790      -0.00032062       0.00378175 </v>
   <v>       0.00300532      -0.00397446       0.00292872 </v>
   <v>       0.00102078      -0.00296388       0.00007084 </v>
   <v>      -0.00176467       0.00275842       0.00052417 </v>
   <v>      -0.00186866       0.00188775       0.00801200 </v>
   <v>      -0.00020752      -0.00186416       0.00880431 </v>
   <v>      -0.00134802       0.00141612       0.00486289 </v>
   <v>      -0.00079443       0.00271486       0.00449620 </v>
   <v>       0.00222386      -0.00359580       0.00365201 </v>
   <v>       0.00681614      -0.00592259       0.00462864 </v>
   <v>       0.00310591      -0.00030993       0.00291857 </v>
   <v>       0.00079441       0.00239533       0.00247115 </v>
   <v>      -0.00128200       0.00126188       0.00486780 </v>
   <v>      -0.00236632       0.00080737       0.00536507 </v>
   <v>       0.00005773       0.00199313       0.00397641 </v>
   <v>      -0.00251787       0.00068111       0.00369969 </v>
   <v>       0.00123915      -0.00325791       0.00843350 </v>
   <v>       0.00471593      -0.00116424       0.01013613 </v>
   <v>       0.00101884       0.00025385       0.00999663 </v>
   <v>       0.00052810       0.00144775       0.00670525 </v>
   <v>      -0.00060169       0.00080499       0.00476725 </v>
   <v>      -0.00072965       0.00009589       0.00500392 </v>
   <v>      -0.00103967      -0.00023488       0.00450435 </v>
   <v>      -0.00087751       0.00039530       0.00803830 </v>
   <v>      -0.00057473       0.00016571       0.00547322 </v>
   <v>      -0.00009651      -0.00015325       0.00562944 </v>
   <v>      -0.00148684       0.00081121       0.00349680 </v>
   <v>      -0.00295553       0.00022167       0.00582305 </v>
   <v>       0.00066367       0.00066085       0.00688875 </v>
   <v>      -0.00093805      -0.00037840       0.00510224 </v>
   <v>      -0.00335831      -0.00035197       0.00196753 </v>
   <v>      -0.00400963      -0.00037964       0.00422416 </v>
   <v>      -0.00535125      -0.00153934       0.00583083 </v>
   <v>      -0.00164816      -0.00145445       0.00376646 </v>
   <v>       0.00180167       0.00149716       0.00439294 </v>
   <v>       0.00070842      -0.00300018       0.00361930 </v>
   <v>      -0.00106074      -0.00389175       0.00344087 </v>
   <v>      -0.00258639      -0.00009892       0.00221439 </v>
   <v>      -0.00300522       0.00154613       0.00424928 </v>
   <v>      -0.00124195      -0.00024139       0.00789379 </v>
   <v>      -0.00119323      -0.00030231       0.00849932 </v>
   <v>       0.00036992      -0.00089003       0.00481843 </v>
   <v>      -0.00329881       0.00027639       0.00259361 </v>
   <v>      -0.00635581       0.00138214       0.00078010 </v>
   <v>      -0.00156834      -0.00232591       0.00067209 </v>
   <v>       0.00154448      -0.00193069       0.00260896 </v>
   <v>      -0.00106977      -0.00014868       0.00680973 </v>
   <v>      -0.00185249      -0.00238418       0.00520649 </v>
   <v>      -0.00131785      -0.00237206       0.00430529 </v>
   <v>       0.00027961      -0.00055802       0.00374390 </v>
   <v>      -0.00532140       0.00374763       0.00559998 </v>
   <v>      -0.00750280       0.00105918       0.00442409 </v>
   <v>      -0.00248439      -0.00278398       0.00390884 </v>
   <v>      -0.00083104      -0.00054943       0.00503251 </v>
   <v>      -0.00141989      -0.00072213       0.00613129 </v>
   <v>       0.00011813      -0.00279363       0.00556478 </v>
   <v>       0.00106841      -0.00138164       0.00368791 </v>
   <v>       0.00083819       0.00067650       0.00668018 </v>
   <v>      -0.00108755      -0.00107274       0.01750813 </v>
   <v>      -0.00033845      -0.00074448       0.00932848 </v>
   <v>      -0.00077920       0.00002988       0.00519353 </v>
   <v>       0.00045936      -0.00093653       0.00440362 </v>
   <v>       0.00075904      -0.00053389       0.00409683 </v>
   <v>       0.00119050      -0.00109095       0.00644257 </v>
   <v>      -0.00037991      -0.00053523       0.00690570 </v>
   <v>       0.00032477      -0.00032921       0.00644002 </v>
   <v>       0.00091095       0.00121924       0.00239240 </v>
   <v>       0.00256099      -0.00020660       0.00454128 </v>
   <v>      -0.00196625       0.00058788       0.00875362 </v>
   <v>      -0.00100463      -0.00042814       0.00488957 </v>
   <v>       0.00042268       0.00131236       0.00445674 </v>
   <v>       0.00273690       0.00266681       0.00137142 </v>
   <v>       0.00439631      -0.00049665       0.00456039 </v>
   <v>       0.00031073      -0.00175000       0.00534398 </v>
   <v>      -0.00259129      -0.00143503       0.00717303 </v>
   <v>      -0.00170031       0.00011516       0.00431155 </v>
   <v>      -0.00095032       0.00119495       0.00375371 </v>
   <v>      -0.00425552       0.00142292       0.00210213 </v>
   <v>       0.00015597       0.00121984       0.00187067 </v>
   <v>       0.00249619       0.00012720       0.00137987 </v>
   <v>       0.00249697      -0.00145813       0.00675177 </v>
   <v>      -0.00100883      -0.00226147       0.00999541 </v>
   <v>      -0.00051194      -0.00202221       0.00755492 </v>
   <v>      -0.00147185      -0.00030236       0.00362680 </v>
   <v>      -0.00062739       0.00494150       0.01436479 </v>
   <v>       0.01083028       0.00424561       0.02947382 </v>
   <v>      -0.00736022      -0.00976515      -0.00335198 </v>
   <v>      -0.00090825      -0.00318220       0.01639109 </v>
   <v>      -0.00016041      -0.00069316       0.00998889 </v>
   <v>      -0.00183311       0.00023070       0.00497823 </v>
   <v>      -0.00253910       0.00298384       0.01225229 </v>
   <v>       0.00086258       0.00051411       0.00645322 </v>
   <v>       0.01676814       0.00672619       0.00000303 </v>
   <v>       0.01406896       0.01009196      -0.00728311 </v>
   <v>       0.01368383       0.01289611      -0.50614447 </v>
  </varray>
  <varray name="stress" >
   <v>      -0.49522751       0.53149747      -0.02749436 </v>
   <v>       0.53149671     -10.97018517      -0.00282011 </v>
   <v>      -0.02749499      -0.00282011      -0.19578873 </v>
  </varray>
  <energy>
   <i name="e_fr_energy">   -840.03508043 </i>
   <i name="e_wo_entrp">   -840.03508026 </i>
   <i name="e_0_energy">   -840.03508035 </i>
  </energy>
  <time name="totalsc"> 1713.68 1725.77</time>
 </calculation>
 <calculation>
  <scstep>
   <time name="dav">   77.22   77.76</time>
   <time name="total">   88.39   89.04</time>
   <energy>
    <i name="alphaZ">    196.22536771 </i>
    <i name="ewald">  39492.58084475 </i>
    <i name="hartreedc"> -53692.85872377 </i>
    <i name="XCdc">   1420.04471037 </i>
    <i name="pawpsdc">  39632.92806556 </i>
    <i name="pawaedc"> -39718.63733016 </i>
    <i name="eentropy">     -0.00000018 </i>
    <i name="bandstr">  -4677.08918257 </i>
    <i name="atom">  16514.44393368 </i>
    <i name="e_fr_energy">   -832.36231460 </i>
    <i name="e_wo_entrp">   -832.36231442 </i>
    <i name="e_0_energy">   -832.36231451 </i>
   </energy>
  </scstep>
  <scstep>
   <time name="dav">   74.92   75.40</time>
   <time name="total">   85.93   86.52</time>
   <energy>
    <i name="e_fr_energy">   -832.36242769 </i>
    <i name="e_wo_entrp">   -832.36242751 </i>
    <i name="e_0_energy">   -832.36242760 </i>
   </energy>
  </scstep>
  <scstep>
   <time name="dav">   68.10   68.56</time>
   <time name="total">   78.78   79.34</time>
   <energy>
    <i name="e_fr_energy">   -832.36241461 </i>
    <i name="e_wo_entrp">   -832.36241443 </i>
    <i name="e_0_energy">   -832.36241452 </i>
   </energy>
  </scstep>
  <scstep>
   <time name="dav">   53.78   54.08</time>
   <time name="total">   58.82   59.21</time>
   <energy>
    <i name="alphaZ">    196.22536771 </i>
    <i name="ewald">  39492.58084475 </i>
    <i name="hartreedc"> -53692.65393907 </i>
    <i name="XCdc">   1420.03821537 </i>
    <i name="pawpsdc">  39631.65365760 </i>
    <i name="pawaedc"> -39717.36078532 </i>
    <i name="eentropy">     -0.00000018 </i>
    <i name="bandstr">  -4677.28971845 </i>
    <i name="atom">  16514.44393368 </i>
    <i name="e_fr_energy">   -832.36242391 </i>
    <i name="e_wo_entrp">   -832.36242374 </i>
    <i name="e_0_energy">   -832.36242383 </i>
   </energy>
  </scstep>
  <structure>
   <crystal>
    <varray name="basis" >
     <v>      17.27103806       0.00000000       0.00000000 </v>
     <v>      -8.63551903      14.95715771       0.00000000 </v>
     <v>       0.00000000       0.00000000      15.00000000 </v>
    </varray>
    <i name="volume">   3874.88459904 </i>
    <varray name="rec_basis" >
     <v>       0.05790040       0.03342881       0.00000000 </v>
     <v>       0.00000000       0.06685762       0.00000000 </v>
     <v>       0.00000000       0.00000000       0.06666667 </v>
    </varray>
   </crystal>
   <varray name="positions" >
    <v>       0.99836849       0.99908338       0.50499740 </v>
    <v>       0.99694946       0.14087177       0.50129177 </v>
    <v>       0.99698785       0.28418094       0.49904956 </v>
    <v>       0.99764432       0.42753461       0.50000990 </v>
    <v>       0.99808197       0.57073694       0.50245344 </v>
    <v>       0.99910585       0.71380956       0.50544186 </v>
    <v>       0.00008208       0.85742592       0.50636677 </v>
    <v>       0.14241587       0.00099015       0.49839789 </v>
    <v>       0.14106574       0.14279048       0.49655715 </v>
    <v>       0.13874236       0.28385101       0.49364571 </v>
    <v>       0.14012007       0.42783339       0.49287699 </v>
    <v>       0.14123301       0.57066165       0.49471525 </v>
    <v>       0.14145451       0.71394554       0.49626409 </v>
    <v>       0.14209024       0.85757733       0.49785963 </v>
    <v>       0.28528890       0.00156686       0.49790009 </v>
    <v>       0.28554552       0.14531356       0.49679425 </v>
    <v>       0.28373670       0.28997422       0.49105840 </v>
    <v>       0.28061982       0.42323141       0.48759169 </v>
    <v>       0.28584088       0.57090371       0.49014849 </v>
    <v>       0.28390816       0.71436552       0.49460627 </v>
    <v>       0.28413507       0.85777135       0.49650588 </v>
    <v>       0.42742606       0.00049164       0.50223099 </v>
    <v>       0.42879075       0.14523247       0.50424320 </v>
    <v>       0.42711515       0.28493377       0.49927819 </v>
    <v>       0.42596842       0.85648489       0.50161209 </v>
    <v>       0.56924044       0.99824076       0.50685256 </v>
    <v>       0.57018146       0.14228894       0.50875457 </v>
    <v>       0.57480242       0.28947968       0.51711332 </v>
    <v>       0.56730815       0.85313025       0.51441492 </v>
    <v>       0.71127280       0.99627663       0.51227806 </v>
    <v>       0.71230563       0.14080302       0.50851841 </v>
    <v>       0.71330217       0.28465630       0.51426072 </v>
    <v>       0.71037498       0.42465870       0.53074591 </v>
    <v>       0.72288287       0.57639730       0.56309778 </v>
    <v>       0.71158204       0.85269517       0.52774228 </v>
    <v>       0.85447384       0.99740116       0.51233952 </v>
    <v>       0.85423735       0.14047929       0.50610351 </v>
    <v>       0.85495435       0.28415496       0.50621765 </v>
    <v>       0.85555055       0.42762990       0.51192295 </v>
    <v>       0.85528877       0.57058769       0.51971676 </v>
    <v>       0.85881246       0.71496311       0.52460764 </v>
    <v>       0.85694248       0.85592634       0.52087061 </v>
    <v>       0.04566702       0.09431367       0.50052322 </v>
    <v>       0.04372211       0.23591367       0.49757855 </v>
    <v>       0.04476249       0.37979214       0.49686206 </v>
    <v>       0.04577070       0.52298297       0.49853565 </v>
    <v>       0.04624594       0.66614885       0.50060328 </v>
    <v>       0.04694610       0.80938693       0.50254865 </v>
    <v>       0.04699116       0.95249083       0.50272727 </v>
    <v>       0.18985545       0.09621723       0.49668586 </v>
    <v>       0.18757050       0.23786614       0.49346232 </v>
    <v>       0.18571165       0.37868535       0.49114214 </v>
    <v>       0.18922526       0.52329940       0.49229998 </v>
    <v>       0.18870678       0.66625723       0.49438209 </v>
    <v>       0.18921273       0.80964756       0.49614291 </v>
    <v>       0.18998808       0.95320765       0.49741717 </v>
    <v>       0.33332862       0.09763184       0.49930008 </v>
    <v>       0.33319357       0.24132877       0.49490099 </v>
    <v>       0.32730391       0.51890744       0.48606887 </v>
    <v>       0.33472235       0.66950254       0.49432242 </v>
    <v>       0.33123635       0.80949368       0.49698092 </v>
    <v>       0.33213809       0.95316286       0.49862084 </v>
    <v>       0.47522653       0.09586822       0.50549190 </v>
    <v>       0.47737007       0.24119570       0.50760899 </v>
    <v>       0.46991260       0.80501545       0.50557718 </v>
    <v>       0.47430889       0.95194719       0.50367089 </v>
    <v>       0.61702580       0.09364056       0.50799381 </v>
    <v>       0.61855076       0.23778198       0.51365634 </v>
    <v>       0.61760731       0.80986780       0.52786250 </v>
    <v>       0.61582131       0.94895971       0.51077217 </v>
    <v>       0.75911895       0.09227556       0.50860784 </v>
    <v>       0.76018941       0.23620984       0.50939544 </v>
    <v>       0.76064475       0.37977162       0.51886377 </v>
    <v>       0.76042708       0.52350242       0.53835771 </v>
    <v>       0.76621862       0.67141042       0.54679951 </v>
    <v>       0.76168604       0.80436957       0.53462032 </v>
    <v>       0.75896311       0.94840028       0.51714808 </v>
    <v>       0.90162927       0.09249496       0.50623531 </v>
    <v>       0.90191876       0.23607691       0.50338411 </v>
    <v>       0.90254033       0.37981955       0.50563158 </v>
    <v>       0.90284817       0.52315257       0.51029074 </v>
    <v>       0.90427241       0.66597720       0.51617091 </v>
    <v>       0.90536838       0.80961877       0.51674660 </v>
    <v>       0.90318219       0.95075747       0.51247038 </v>
    <v>       0.47262011       0.37410091       0.49466901 </v>
    <v>       0.41647991       0.55879361       0.48105806 </v>
    <v>       0.64639077       0.53869631       0.60928511 </v>
    <v>       0.57188381       0.72139675       0.54228887 </v>
    <v>       0.42413443       0.71497453       0.50021687 </v>
    <v>       0.72033578       0.71626854       0.55202109 </v>
    <v>       0.32738614       0.37947600       0.48727322 </v>
    <v>       0.62067926       0.37916403       0.52931618 </v>
    <v>       0.59062408       0.61403377       0.50297649 </v>
    <v>       0.51694601       0.51768729       0.47835441 </v>
    <v>       0.57804662       0.56325480       0.46481452 </v>
   </varray>
  </structure>
  <varray name="forces" >
   <v>       0.00012346      -0.00061944       0.00368888 </v>
   <v>      -0.00126679      -0.00082286       0.00261069 </v>
   <v>      -0.00096850      -0.00072726       0.00002166 </v>
   <v>       0.00035141       0.00034209       0.00042533 </v>
   <v>       0.00026180       0.00014692       0.00757542 </v>
   <v>      -0.00054516      -0.00139258       0.00861481 </v>
   <v>      -0.00094361      -0.00081677       0.00494232 </v>
   <v>      -0.00007016      -0.00006404       0.00437302 </v>
   <v>      -0.00116767       0.00116336       0.00219835 </v>
   <v>      -0.00067036      -0.00145765       0.00427155 </v>
   <v>      -0.00111098      -0.00111889       0.00276969 </v>
   <v>       0.00004024       0.00046738       0.00242453 </v>
   <v>      -0.00076468       0.00040942       0.00485277 </v>
   <v>      -0.00171371      -0.00072931       0.00528719 </v>
   <v>      -0.00243556      -0.00008773       0.00426135 </v>
   <v>      -0.00005713       0.00053743       0.00356892 </v>
   <v>      -0.00006396      -0.00005097       0.00799143 </v>
   <v>      -0.00053175      -0.00049996       0.00999837 </v>
   <v>      -0.00021521      -0.00094207       0.00973314 </v>
   <v>       0.00018234       0.00040251       0.00640513 </v>
   <v>      -0.00074025       0.00011169       0.00468352 </v>
   <v>       0.00028014      -0.00023669       0.00485068 </v>
   <v>       0.00017494      -0.00021448       0.00429630 </v>
   <v>      -0.00189927       0.00014678       0.00901585 </v>
   <v>       0.00013417      -0.00007426       0.00537158 </v>
   <v>      -0.00009002       0.00030639       0.00534189 </v>
   <v>      -0.00003537       0.00029892       0.00330947 </v>
   <v>      -0.00067004      -0.00028185       0.00561745 </v>
   <v>       0.00047615      -0.00005344       0.00671919 </v>
   <v>      -0.00077112       0.00046929       0.00487893 </v>
   <v>      -0.00042701       0.00100844       0.00190649 </v>
   <v>       0.00009267       0.00043140       0.00388032 </v>
   <v>       0.00250562      -0.00029597       0.00623583 </v>
   <v>      -0.00012824      -0.00106053       0.00158300 </v>
   <v>      -0.00167404      -0.00114785       0.00539458 </v>
   <v>      -0.00019199      -0.00048570       0.00325587 </v>
   <v>      -0.00100701      -0.00047026       0.00320403 </v>
   <v>       0.00045607       0.00076374       0.00190312 </v>
   <v>       0.00058543       0.00018090       0.00387705 </v>
   <v>      -0.00021506      -0.00126530       0.00781648 </v>
   <v>      -0.00105397      -0.00143902       0.00867939 </v>
   <v>      -0.00008449      -0.00093123       0.00481596 </v>
   <v>       0.00054967      -0.00100207       0.00251741 </v>
   <v>      -0.00034236      -0.00195262       0.00077563 </v>
   <v>      -0.00064082      -0.00101857       0.00045388 </v>
   <v>       0.00051314       0.00106258       0.00259325 </v>
   <v>      -0.00081092       0.00032897       0.00684308 </v>
   <v>      -0.00165437      -0.00134339       0.00523854 </v>
   <v>      -0.00004628      -0.00015449       0.00407194 </v>
   <v>      -0.00002902      -0.00007028       0.00352160 </v>
   <v>       0.00043366      -0.00106650       0.00536382 </v>
   <v>       0.00076809      -0.00199434       0.00563756 </v>
   <v>      -0.00027513      -0.00037461       0.00363680 </v>
   <v>      -0.00023472       0.00090548       0.00479915 </v>
   <v>      -0.00115535       0.00032213       0.00587635 </v>
   <v>      -0.00037583      -0.00006135       0.00529759 </v>
   <v>      -0.00037436       0.00004166       0.00345325 </v>
   <v>      -0.00053688       0.00101329       0.00756527 </v>
   <v>       0.00326794       0.00063057       0.01667650 </v>
   <v>       0.00013437      -0.00028604       0.00905921 </v>
   <v>      -0.00028060       0.00046588       0.00506867 </v>
   <v>      -0.00041054       0.00235169       0.00284309 </v>
   <v>       0.00025091      -0.00020003       0.00392659 </v>
   <v>      -0.00032154      -0.00054089       0.00603624 </v>
   <v>      -0.00070108      -0.00002768       0.00820574 </v>
   <v>       0.00011969       0.00011930       0.00615927 </v>
   <v>      -0.00045356       0.00042137       0.00237729 </v>
   <v>      -0.00081307       0.00021535       0.00440556 </v>
   <v>       0.00000733      -0.00053514       0.00871388 </v>
   <v>      -0.00023667      -0.00027700       0.00487758 </v>
   <v>      -0.00124707      -0.00004239       0.00432354 </v>
   <v>      -0.00044987       0.00082023       0.00150400 </v>
   <v>      -0.00001930      -0.00004403       0.00480407 </v>
   <v>      -0.00120696      -0.00078789       0.00585732 </v>
   <v>      -0.00215506      -0.00200055       0.00678323 </v>
   <v>      -0.00087279       0.00033345       0.00410658 </v>
   <v>      -0.00028743       0.00005355       0.00373374 </v>
   <v>      -0.00091820      -0.00136278       0.00221533 </v>
   <v>      -0.00057715      -0.00082326       0.00180160 </v>
   <v>      -0.00007552       0.00092408       0.00150298 </v>
   <v>      -0.00177714       0.00009307       0.00771369 </v>
   <v>      -0.00102728      -0.00138155       0.00990662 </v>
   <v>      -0.00046264      -0.00073168       0.00725105 </v>
   <v>       0.00034719      -0.00084901       0.00349946 </v>
   <v>      -0.00528241      -0.00082738       0.02509347 </v>
   <v>      -0.00198203      -0.00009149       0.03136405 </v>
   <v>      -0.01052766      -0.00832795      -0.00940983 </v>
   <v>      -0.00104158       0.00139609       0.01562841 </v>
   <v>       0.00019173      -0.00051193       0.01018631 </v>
   <v>      -0.00227924      -0.00100111       0.00464592 </v>
   <v>       0.00054035      -0.00039208       0.01289092 </v>
   <v>      -0.00095736      -0.00055797       0.00659980 </v>
   <v>       0.05604770      -0.07662651      -0.07470060 </v>
   <v>       0.04321116       0.02477156      -0.02301792 </v>
   <v>      -0.04769445       0.08109368      -0.41293000 </v>
  </varray>
  <varray name="stress" >
   <v>      -0.50765364       0.53145253      -0.01806485 </v>
   <v>       0.53145178     -11.00568751      -0.01643333 </v>
   <v>      -0.01806546      -0.01643335      -0.19421948 </v>
  </varray>
  <energy>
   <i name="e_fr_energy">   -840.03705396 </i>
   <i name="e_wo_entrp">   -840.03705378 </i>
   <i name="e_0_energy">   -840.03705387 </i>
  </energy>
  <time name="totalsc">  472.46  475.99</time>
 </calculation>
 <calculation>
  <scstep>
   <time name="dav">   74.97   75.46</time>
   <time name="total">   86.23   86.79</time>
   <energy>
    <i name="alphaZ">    196.22536771 </i>
    <i name="ewald">  39489.90280411 </i>
    <i name="hartreedc"> -53690.16985782 </i>
    <i name="XCdc">   1420.03012684 </i>
    <i name="pawpsdc">  39631.16065270 </i>
    <i name="pawaedc"> -39716.86674767 </i>
    <i name="eentropy">     -0.00000018 </i>
    <i name="bandstr">  -4677.09152250 </i>
    <i name="atom">  16514.44393368 </i>
    <i name="e_fr_energy">   -832.36524312 </i>
    <i name="e_wo_entrp">   -832.36524294 </i>
    <i name="e_0_energy">   -832.36524303 </i>
   </energy>
  </scstep>
  <scstep>
   <time name="dav">   74.54   75.03</time>
   <time name="total">   85.61   86.20</time>
   <energy>
    <i name="e_fr_energy">   -832.36559819 </i>
    <i name="e_wo_entrp">   -832.36559802 </i>
    <i name="e_0_energy">   -832.36559810 </i>
   </energy>
  </scstep>
  <scstep>
   <time name="dav">   72.74   73.23</time>
   <time name="total">   83.27   83.85</time>
   <energy>
    <i name="e_fr_energy">   -832.36558093 </i>
    <i name="e_wo_entrp">   -832.36558075 </i>
    <i name="e_0_energy">   -832.36558084 </i>
   </energy>
  </scstep>
  <scstep>
   <time name="dav">   58.97   59.31</time>
   <time name="total">   68.60   69.05</time>
   <energy>
    <i name="e_fr_energy">   -832.36562808 </i>
    <i name="e_wo_entrp">   -832.36562790 </i>
    <i name="e_0_energy">   -832.36562799 </i>
   </energy>
  </scstep>
  <scstep>
   <time name="dav">   54.35   54.69</time>
   <time name="total">   64.63   65.08</time>
   <energy>
    <i name="e_fr_energy">   -832.36564723 </i>
    <i name="e_wo_entrp">   -832.36564705 </i>
    <i name="e_0_energy">   -832.36564714 </i>
   </energy>
  </scstep>
  <scstep>
   <time name="dav">   47.86   48.17</time>
   <time name="total">   52.98   53.35</time>
   <energy>
    <i name="alphaZ">    196.22536771 </i>
    <i name="ewald">  39489.90280411 </i>
    <i name="hartreedc"> -53689.90125171 </i>
    <i name="XCdc">   1420.02176507 </i>
    <i name="pawpsdc">  39629.56365440 </i>
    <i name="pawaedc"> -39715.26559021 </i>
    <i name="eentropy">     -0.00000018 </i>
    <i name="bandstr">  -4677.35632993 </i>
    <i name="atom">  16514.44393368 </i>
    <i name="e_fr_energy">   -832.36564705 </i>
    <i name="e_wo_entrp">   -832.36564688 </i>
    <i name="e_0_energy">   -832.36564696 </i>
   </energy>
  </scstep>
  <structure>
   <crystal>
[...]
       <r>   -18.0227     5.5911    33.9683 </r>
       <r>   -17.8997     7.2405    34.8589 </r>
       <r>   -17.7766     6.4691    35.6547 </r>
       <r>   -17.6536    11.7506    37.1001 </r>
       <r>   -17.5306    12.9375    38.6915 </r>
       <r>   -17.4076    10.2610    39.9536 </r>
       <r>   -17.2846     6.4428    40.7462 </r>
       <r>   -17.1616     6.2562    41.5157 </r>
       <r>   -17.0386     5.6439    42.2099 </r>
       <r>   -16.9156     5.0378    42.8296 </r>
       <r>   -16.7926     5.9227    43.5582 </r>
       <r>   -16.6696     9.3657    44.7102 </r>
       <r>   -16.5466    19.3913    47.0955 </r>
       <r>   -16.4236     5.1228    47.7256 </r>
       <r>   -16.3006     2.2289    47.9998 </r>
       <r>   -16.1776     0.0019    48.0000 </r>
       <r>   -16.0546     0.2589    48.0319 </r>
       <r>   -15.9315     3.2575    48.4325 </r>
       <r>   -15.8085     6.4343    49.2240 </r>
       <r>   -15.6855     4.0886    49.7269 </r>
       <r>   -15.5625     8.1196    50.7257 </r>
       <r>   -15.4395     5.8796    51.4489 </r>
       <r>   -15.3165     9.4760    52.6145 </r>
       <r>   -15.1935    13.5119    54.2766 </r>
       <r>   -15.0705     5.7694    54.9862 </r>
       <r>   -14.9475     5.6649    55.6831 </r>
       <r>   -14.8245    11.2136    57.0624 </r>
       <r>   -14.7015     7.9023    58.0344 </r>
       <r>   -14.5785    10.4848    59.3241 </r>
       <r>   -14.4555    14.5417    61.1129 </r>
       <r>   -14.3325     5.0975    61.7399 </r>
       <r>   -14.2095     6.1944    62.5018 </r>
       <r>   -14.0865     2.7309    62.8377 </r>
       <r>   -13.9634     5.0895    63.4638 </r>
       <r>   -13.8404     8.3557    64.4916 </r>
       <r>   -13.7174    11.8345    65.9473 </r>
       <r>   -13.5944     9.1804    67.0766 </r>
       <r>   -13.4714     7.1292    67.9535 </r>
       <r>   -13.3484     4.1719    68.4667 </r>
       <r>   -13.2254     2.7799    68.8086 </r>
       <r>   -13.1024     5.6224    69.5002 </r>
       <r>   -12.9794     6.2336    70.2670 </r>
       <r>   -12.8564     9.2914    71.4099 </r>
       <r>   -12.7334    19.0289    73.7505 </r>
       <r>   -12.6104     6.5814    74.5601 </r>
       <r>   -12.4874     9.3186    75.7063 </r>
       <r>   -12.3644     8.8094    76.7899 </r>
       <r>   -12.2414     7.6976    77.7368 </r>
       <r>   -12.1184     2.9025    78.0938 </r>
       <r>   -11.9953    10.0924    79.3352 </r>
       <r>   -11.8723     9.5834    80.5141 </r>
       <r>   -11.7493    12.8893    82.0995 </r>
       <r>   -11.6263    11.0839    83.4629 </r>
       <r>   -11.5033    13.5385    85.1283 </r>
       <r>   -11.3803     9.6440    86.3145 </r>
       <r>   -11.2573    11.7768    87.7631 </r>
       <r>   -11.1343    10.5952    89.0664 </r>
       <r>   -11.0113     9.7845    90.2700 </r>
       <r>   -10.8883     7.5125    91.1941 </r>
       <r>   -10.7653     3.9101    91.6750 </r>
       <r>   -10.6423     7.9043    92.6473 </r>
       <r>   -10.5193    12.9539    94.2407 </r>
       <r>   -10.3963    14.0906    95.9739 </r>
       <r>   -10.2733    15.8492    97.9235 </r>
       <r>   -10.1502    19.2921   100.2966 </r>
       <r>   -10.0272    19.6575   102.7146 </r>
       <r>    -9.9042    17.9356   104.9208 </r>
       <r>    -9.7812    18.7534   107.2275 </r>
       <r>    -9.6582    24.3735   110.2256 </r>
       <r>    -9.5352    22.2343   112.9606 </r>
       <r>    -9.4122    21.6005   115.6176 </r>
       <r>    -9.2892    20.8144   118.1779 </r>
       <r>    -9.1662    21.3466   120.8037 </r>
       <r>    -9.0432    22.9032   123.6209 </r>
       <r>    -8.9202    20.8394   126.1843 </r>
       <r>    -8.7972    29.0514   129.7578 </r>
       <r>    -8.6742    11.8464   131.2150 </r>
       <r>    -8.5512    10.4463   132.4999 </r>
       <r>    -8.4282    20.6351   135.0382 </r>
       <r>    -8.3052    24.2758   138.0242 </r>
       <r>    -8.1821    19.3278   140.4017 </r>
       <r>    -8.0591    15.6956   142.3323 </r>
       <r>    -7.9361     8.6109   143.3915 </r>
       <r>    -7.8131    14.6809   145.1974 </r>
       <r>    -7.6901     9.3140   146.3431 </r>
       <r>    -7.5671    11.1405   147.7134 </r>
       <r>    -7.4441    26.4520   150.9672 </r>
       <r>    -7.3211    20.5167   153.4909 </r>
       <r>    -7.1981    20.5581   156.0196 </r>
       <r>    -7.0751    14.0201   157.7442 </r>
       <r>    -6.9521    16.1903   159.7357 </r>
       <r>    -6.8291     7.0758   160.6061 </r>
       <r>    -6.7061    10.4366   161.8899 </r>
       <r>    -6.5831    14.0685   163.6204 </r>
       <r>    -6.4601     9.8650   164.8338 </r>
       <r>    -6.3371    20.1548   167.3130 </r>
       <r>    -6.2140    15.8618   169.2641 </r>
       <r>    -6.0910    10.1265   170.5097 </r>
       <r>    -5.9680    12.4264   172.0383 </r>
       <r>    -5.8450    12.2189   173.5413 </r>
       <r>    -5.7220    10.4174   174.8227 </r>
       <r>    -5.5990     6.4062   175.6107 </r>
       <r>    -5.4760     1.4030   175.7832 </r>
       <r>    -5.3530     4.2864   176.3105 </r>
       <r>    -5.2300    16.3416   178.3206 </r>
       <r>    -5.1070    17.4333   180.4650 </r>
       <r>    -4.9840    15.0673   182.3184 </r>
       <r>    -4.8610     9.5388   183.4917 </r>
       <r>    -4.7380     4.0952   183.9955 </r>
       <r>    -4.6150     2.3313   184.2822 </r>
       <r>    -4.4920     8.7864   185.3630 </r>
       <r>    -4.3689    18.0847   187.5876 </r>
       <r>    -4.2459     9.8682   188.8014 </r>
       <r>    -4.1229    11.4485   190.2097 </r>
       <r>    -3.9999    18.2935   192.4599 </r>
       <r>    -3.8769     4.7278   193.0414 </r>
       <r>    -3.7539     8.7970   194.1235 </r>
       <r>    -3.6309     2.0230   194.3724 </r>
       <r>    -3.5079     3.1231   194.7565 </r>
       <r>    -3.3849     3.3819   195.1725 </r>
       <r>    -3.2619     0.8513   195.2773 </r>
       <r>    -3.1389     1.7859   195.4969 </r>
       <r>    -3.0159     0.4306   195.5499 </r>
       <r>    -2.8929     1.9406   195.7886 </r>
       <r>    -2.7699     1.7052   195.9984 </r>
       <r>    -2.6469     0.0139   196.0001 </r>
       <r>    -2.5239     1.1442   196.1408 </r>
       <r>    -2.4008     2.8690   196.4937 </r>
       <r>    -2.2778     0.0519   196.5001 </r>
       <r>    -2.1548     1.1194   196.6378 </r>
       <r>    -2.0318     2.5344   196.9495 </r>
       <r>    -1.9088     2.2792   197.2299 </r>
       <r>    -1.7858     4.4777   197.7807 </r>
       <r>    -1.6628     1.7814   197.9998 </r>
       <r>    -1.5398     0.1303   198.0158 </r>
       <r>    -1.4168     5.4584   198.6872 </r>
       <r>    -1.2938     5.3268   199.3425 </r>
       <r>    -1.1708     4.4592   199.8910 </r>
       <r>    -1.0478    17.0762   201.9915 </r>
       <r>    -0.9248     7.1431   202.8701 </r>
       <r>    -0.8018     5.5227   203.5494 </r>
       <r>    -0.6788    14.2186   205.2984 </r>
       <r>    -0.5558     5.8411   206.0169 </r>
       <r>    -0.4327     4.9693   206.6282 </r>
       <r>    -0.3097     7.6131   207.5646 </r>
       <r>    -0.1867     8.6243   208.6255 </r>
       <r>    -0.0637    11.8544   210.0836 </r>
       <r>     0.0593    12.2098   211.5855 </r>
       <r>     0.1823     3.3589   211.9987 </r>
       <r>     0.3053     1.2314   212.1502 </r>
       <r>     0.4283     6.7313   212.9781 </r>
       <r>     0.5513     7.2973   213.8758 </r>
       <r>     0.6743     5.6415   214.5697 </r>
       <r>     0.7973     4.3020   215.0989 </r>
       <r>     0.9203     7.7730   216.0550 </r>
       <r>     1.0433    11.5183   217.4718 </r>
       <r>     1.1663     3.6870   217.9253 </r>
       <r>     1.2893    13.9594   219.6424 </r>
       <r>     1.4124    20.4412   222.1568 </r>
       <r>     1.5354    10.7280   223.4765 </r>
       <r>     1.6584     6.9061   224.3260 </r>
       <r>     1.7814     7.0681   225.1954 </r>
       <r>     1.9044    13.0708   226.8032 </r>
       <r>     2.0274    27.5168   230.1879 </r>
       <r>     2.1504    10.1695   231.4388 </r>
       <r>     2.2734    11.3219   232.8315 </r>
       <r>     2.3964    22.3303   235.5783 </r>
       <r>     2.5194    19.6045   237.9897 </r>
       <r>     2.6424    10.0216   239.2225 </r>
       <r>     2.7654    17.1711   241.3346 </r>
       <r>     2.8884    35.6698   245.7222 </r>
       <r>     3.0114    43.6099   251.0865 </r>
       <r>     3.1344    11.8839   252.5483 </r>
       <r>     3.2574    13.9718   254.2670 </r>
       <r>     3.3805    18.4650   256.5383 </r>
       <r>     3.5035    23.6745   259.4504 </r>
       <r>     3.6265    14.0556   261.1793 </r>
       <r>     3.7495    18.0731   263.4024 </r>
       <r>     3.8725    29.2661   267.0023 </r>
       <r>     3.9955    30.4641   270.7496 </r>
       <r>     4.1185    15.9350   272.7097 </r>
       <r>     4.2415    11.8297   274.1648 </r>
       <r>     4.3645     6.7419   274.9941 </r>
       <r>     4.4875     0.0476   275.0000 </r>
       <r>     4.6105     0.0000   275.0000 </r>
       <r>     4.7335     0.0000   275.0000 </r>
       <r>     4.8565     0.0000   275.0000 </r>
       <r>     4.9795     0.0000   275.0000 </r>
       <r>     5.1025     0.0000   275.0000 </r>
       <r>     5.2255     0.0000   275.0000 </r>
       <r>     5.3486     0.0000   275.0000 </r>
       <r>     5.4716     0.0000   275.0000 </r>
       <r>     5.5946     0.0000   275.0000 </r>
       <r>     5.7176     0.0000   275.0000 </r>
       <r>     5.8406     0.0000   275.0000 </r>
       <r>     5.9636     0.0000   275.0000 </r>
      </set>
     </set>
    </array>
   </total>
  </dos>
 </calculation>
 <structure name="finalpos" >
  <crystal>
   <varray name="basis" >
    <v>      17.27103806       0.00000000       0.00000000 </v>
    <v>      -8.63551903      14.95715771       0.00000000 </v>
    <v>       0.00000000       0.00000000      15.00000000 </v>
   </varray>
   <i name="volume">   3874.88459904 </i>
   <varray name="rec_basis" >
    <v>       0.05790040       0.03342881       0.00000000 </v>
    <v>       0.00000000       0.06685762       0.00000000 </v>
    <v>       0.00000000       0.00000000       0.06666667 </v>
   </varray>
  </crystal>
  <varray name="positions" >
   <v>       0.99914742       0.99953870       0.50356062 </v>
   <v>       0.99779981       0.14131911       0.49991606 </v>
   <v>       0.99785010       0.28459611       0.49868546 </v>
   <v>       0.99841056       0.42790566       0.50046405 </v>
   <v>       0.99876445       0.57108058       0.50318862 </v>
   <v>       0.99979164       0.71417263       0.50578405 </v>
   <v>       0.00085836       0.85787229       0.50587069 </v>
   <v>       0.14313155       0.00137000       0.49563594 </v>
   <v>       0.14178537       0.14318320       0.49130477 </v>
   <v>       0.13950658       0.28426444       0.48781715 </v>
   <v>       0.14067820       0.42815957       0.48850334 </v>
   <v>       0.14177431       0.57098468       0.49271725 </v>
   <v>       0.14208430       0.71425647       0.49559703 </v>
   <v>       0.14276184       0.85788974       0.49700342 </v>
   <v>       0.28587805       0.00184228       0.49365378 </v>
   <v>       0.28620411       0.14566072       0.48865223 </v>
   <v>       0.28427766       0.29026491       0.47762384 </v>
   <v>       0.28061954       0.42344090       0.47186420 </v>
   <v>       0.28578582       0.57117111       0.47830710 </v>
   <v>       0.28443775       0.71461836       0.48910923 </v>
   <v>       0.28476097       0.85804734       0.49342711 </v>
   <v>       0.42806384       0.00069524       0.49741849 </v>
   <v>       0.42943973       0.14539828       0.49653283 </v>
   <v>       0.42786382       0.28485940       0.48511428 </v>
   <v>       0.42660877       0.85666289       0.49584715 </v>
   <v>       0.56984893       0.99844297       0.50303088 </v>
   <v>       0.57080385       0.14246550       0.50415541 </v>
   <v>       0.57523368       0.28962710       0.50822911 </v>
   <v>       0.56778609       0.85316183       0.50822701 </v>
   <v>       0.71183603       0.99656853       0.51004011 </v>
   <v>       0.71295834       0.14108192       0.50731856 </v>
   <v>       0.71382194       0.28485251       0.51123882 </v>
   <v>       0.71039563       0.42476402       0.52359071 </v>
   <v>       0.72049243       0.57584566       0.55054475 </v>
   <v>       0.71195651       0.85286239       0.52273104 </v>
   <v>       0.85519129       0.99781038       0.51103476 </v>
   <v>       0.85503920       0.14089386       0.50632001 </v>
   <v>       0.85571505       0.28449872       0.50674195 </v>
   <v>       0.85616383       0.42792909       0.51116592 </v>
   <v>       0.85563225       0.57082941       0.51758039 </v>
   <v>       0.85918863       0.71527910       0.52153653 </v>
   <v>       0.85748263       0.85623274       0.51823951 </v>
   <v>       0.04648275       0.09475244       0.49805031 </v>
   <v>       0.04462514       0.23637107       0.49552993 </v>
   <v>       0.04553042       0.38018060       0.49599483 </v>
   <v>       0.04645117       0.52334045       0.49876574 </v>
   <v>       0.04691386       0.66649062       0.50115500 </v>
   <v>       0.04764502       0.80973964       0.50254199 </v>
   <v>       0.04774879       0.95291535       0.50141153 </v>
   <v>       0.19053770       0.09656253       0.49129573 </v>
   <v>       0.18827573       0.23819529       0.48531479 </v>
   <v>       0.18623811       0.37904072       0.48322274 </v>
   <v>       0.18959828       0.52362892       0.48689347 </v>
   <v>       0.18927328       0.66656047       0.49184293 </v>
   <v>       0.18985802       0.80995252       0.49476076 </v>
   <v>       0.19061791       0.95350877       0.49492258 </v>
   <v>       0.33394375       0.09789341       0.49247524 </v>
   <v>       0.33387734       0.24160299       0.48246725 </v>
   <v>       0.32636242       0.51906995       0.46579395 </v>
   <v>       0.33520513       0.66980982       0.48460563 </v>
   <v>       0.33184335       0.80975560       0.49228504 </v>
   <v>       0.33275311       0.95344295       0.49462299 </v>
   <v>       0.47588607       0.09605699       0.49987889 </v>
   <v>       0.47799194       0.24134925       0.49708965 </v>
   <v>       0.47049229       0.80508160       0.49803324 </v>
   <v>       0.47492950       0.95212568       0.49891169 </v>
   <v>       0.61766740       0.09385158       0.50504243 </v>
   <v>       0.61908698       0.23796293       0.50826236 </v>
   <v>       0.61795588       0.80973035       0.52113164 </v>
   <v>       0.61635617       0.94910424       0.50681884 </v>
   <v>       0.75983049       0.09263005       0.50794117 </v>
   <v>       0.76086899       0.23648701       0.50862051 </v>
   <v>       0.76107493       0.37997252       0.51545643 </v>
   <v>       0.75988529       0.52346476       0.53124496 </v>
   <v>       0.76551412       0.67124795       0.53842955 </v>
   <v>       0.76179619       0.80438214       0.52891635 </v>
   <v>       0.75953613       0.94874524       0.51455323 </v>
   <v>       0.90248155       0.09295463       0.50583136 </v>
   <v>       0.90278037       0.23649870       0.50406400 </v>
   <v>       0.90329371       0.38017025       0.50620989 </v>
   <v>       0.90344774       0.52347660       0.51006379 </v>
   <v>       0.90474237       0.66626640       0.51497247 </v>
   <v>       0.90602372       0.81000884       0.51507748 </v>
   <v>       0.90390715       0.95116805       0.51097954 </v>
   <v>       0.47374737       0.37372403       0.47568657 </v>
   <v>       0.41368808       0.55944327       0.44705469 </v>
   <v>       0.63812523       0.53706740       0.58496392 </v>
   <v>       0.57213613       0.72091194       0.53336617 </v>
   <v>       0.42470624       0.71512526       0.48997673 </v>
   <v>       0.71931849       0.71569109       0.54235331 </v>
   <v>       0.32736622       0.37953601       0.46860050 </v>
   <v>       0.62080405       0.37935682       0.51927231 </v>
   <v>       0.57416088       0.60546106       0.47234610 </v>
   <v>       0.50984002       0.50894032       0.44373417 </v>
   <v>       0.56783273       0.56032086       0.42948214 </v>
  </varray>
  <varray name="selective"  type="logical" >
   <v type="logical" >  T  T  T </v>
   <v type="logical" >  T  T  T </v>
   <v type="logical" >  T  T  T </v>
   <v type="logical" >  T  T  T </v>
   <v type="logical" >  T  T  T </v>
   <v type="logical" >  T  T  T </v>
   <v type="logical" >  T  T  T </v>
   <v type="logical" >  T  T  T </v>
   <v type="logical" >  T  T  T </v>
   <v type="logical" >  T  T  T </v>
   <v type="logical" >  T  T  T </v>
   <v type="logical" >  T  T  T </v>
   <v type="logical" >  T  T  T </v>
   <v type="logical" >  T  T  T </v>
   <v type="logical" >  T  T  T </v>
   <v type="logical" >  T  T  T </v>
   <v type="logical" >  T  T  T </v>
   <v type="logical" >  T  T  T </v>
   <v type="logical" >  T  T  T </v>
   <v type="logical" >  T  T  T </v>
   <v type="logical" >  T  T  T </v>
   <v type="logical" >  T  T  T </v>
   <v type="logical" >  T  T  T </v>
   <v type="logical" >  T  T  T </v>
   <v type="logical" >  T  T  T </v>
   <v type="logical" >  T  T  T </v>
   <v type="logical" >  T  T  T </v>
   <v type="logical" >  T  T  T </v>
   <v type="logical" >  T  T  T </v>
   <v type="logical" >  T  T  T </v>
   <v type="logical" >  T  T  T </v>
   <v type="logical" >  T  T  T </v>
   <v type="logical" >  T  T  T </v>
   <v type="logical" >  T  T  T </v>
   <v type="logical" >  T  T  T </v>
   <v type="logical" >  T  T  T </v>
   <v type="logical" >  T  T  T </v>
   <v type="logical" >  T  T  T </v>
   <v type="logical" >  T  T  T </v>
   <v type="logical" >  T  T  T </v>
   <v type="logical" >  T  T  T </v>
   <v type="logical" >  T  T  T </v>
   <v type="logical" >  T  T  T </v>
   <v type="logical" >  T  T  T </v>
   <v type="logical" >  T  T  T </v>
   <v type="logical" >  T  T  T </v>
   <v type="logical" >  T  T  T </v>
   <v type="logical" >  T  T  T </v>
   <v type="logical" >  T  T  T </v>
   <v type="logical" >  T  T  T </v>
   <v type="logical" >  T  T  T </v>
   <v type="logical" >  T  T  T </v>
   <v type="logical" >  T  T  T </v>
   <v type="logical" >  T  T  T </v>
   <v type="logical" >  T  T  T </v>
   <v type="logical" >  T  T  T </v>
   <v type="logical" >  T  T  T </v>
   <v type="logical" >  T  T  T </v>
   <v type="logical" >  T  T  T </v>
   <v type="logical" >  T  T  T </v>
   <v type="logical" >  T  T  T </v>
   <v type="logical" >  T  T  T </v>
   <v type="logical" >  T  T  T </v>
   <v type="logical" >  T  T  T </v>
   <v type="logical" >  T  T  T </v>
   <v type="logical" >  T  T  T </v>
   <v type="logical" >  T  T  T </v>
   <v type="logical" >  T  T  T </v>
   <v type="logical" >  T  T  T </v>
   <v type="logical" >  T  T  T </v>
   <v type="logical" >  T  T  T </v>
   <v type="logical" >  T  T  T </v>
   <v type="logical" >  T  T  T </v>
   <v type="logical" >  T  T  T </v>
   <v type="logical" >  T  T  T </v>
   <v type="logical" >  T  T  T </v>
   <v type="logical" >  T  T  T </v>
   <v type="logical" >  T  T  T </v>
   <v type="logical" >  T  T  T </v>
   <v type="logical" >  T  T  T </v>
   <v type="logical" >  T  T  T </v>
   <v type="logical" >  T  T  T </v>
   <v type="logical" >  T  T  T </v>
   <v type="logical" >  T  T  T </v>
   <v type="logical" >  T  T  T </v>
   <v type="logical" >  T  T  T </v>
   <v type="logical" >  T  T  T </v>
   <v type="logical" >  T  T  T </v>
   <v type="logical" >  T  T  T </v>
   <v type="logical" >  T  T  T </v>
   <v type="logical" >  T  T  T </v>
   <v type="logical" >  T  T  T </v>
   <v type="logical" >  T  T  T </v>
   <v type="logical" >  T  T  T </v>
   <v type="logical" >  T  T  T </v>
  </varray>
  <nose>
   <v>      -3.00000000       0.00000000       0.00010000       0.00010000 </v>
  </nose>
 </structure>
</modeling>
