unknown system                          
           1
    17.271038    0.000000    0.000000
    -8.635519   14.957158    0.000000
     0.000000    0.000000   15.000000
   C    F    N    H    O 
    84     4     4     2     1
Direct configuration=     1
   0.99836849  0.99908338  0.50499740
   0.99694946  0.14087177  0.50129177
   0.99698785  0.28418094  0.49904956
   0.99764432  0.42753461  0.50000990
   0.99808197  0.57073694  0.50245344
   0.99910585  0.71380956  0.50544186
   0.00008208  0.85742592  0.50636677
   0.14241587  0.00099015  0.49839789
   0.14106574  0.14279048  0.49655715
   0.13874236  0.28385101  0.49364571
   0.14012007  0.42783339  0.49287699
   0.14123301  0.57066165  0.49471525
   0.14145451  0.71394554  0.49626409
   0.14209024  0.85757733  0.49785963
   0.28528890  0.00156686  0.49790009
   0.28554552  0.14531356  0.49679425
   0.28373670  0.28997422  0.49105840
   0.28061982  0.42323141  0.48759169
   0.28584088  0.57090371  0.49014849
   0.28390816  0.71436552  0.49460627
   0.28413507  0.85777135  0.49650588
   0.42742606  0.00049164  0.50223099
   0.42879075  0.14523247  0.50424320
   0.42711515  0.28493377  0.49927819
   0.42596842  0.85648489  0.50161209
   0.56924044  0.99824076  0.50685256
   0.57018146  0.14228894  0.50875457
   0.57480242  0.28947968  0.51711332
   0.56730815  0.85313025  0.51441492
   0.71127280  0.99627663  0.51227806
   0.71230563  0.14080302  0.50851841
   0.71330217  0.28465630  0.51426072
   0.71037498  0.42465870  0.53074591
   0.72288287  0.57639730  0.56309778
   0.71158204  0.85269517  0.52774228
   0.85447384  0.99740116  0.51233952
   0.85423735  0.14047929  0.50610351
   0.85495435  0.28415496  0.50621765
   0.85555055  0.42762990  0.51192295
   0.85528877  0.57058769  0.51971676
   0.85881246  0.71496311  0.52460764
   0.85694248  0.85592634  0.52087061
   0.04566702  0.09431367  0.50052322
   0.04372211  0.23591367  0.49757855
   0.04476249  0.37979214  0.49686206
   0.04577070  0.52298297  0.49853565
   0.04624594  0.66614885  0.50060328
   0.04694610  0.80938693  0.50254865
   0.04699116  0.95249083  0.50272727
   0.18985545  0.09621723  0.49668586
   0.18757050  0.23786614  0.49346232
   0.18571165  0.37868535  0.49114214
   0.18922526  0.52329940  0.49229998
   0.18870678  0.66625723  0.49438209
   0.18921273  0.80964756  0.49614291
   0.18998808  0.95320765  0.49741717
   0.33332862  0.09763184  0.49930008
   0.33319357  0.24132877  0.49490099
   0.32730391  0.51890744  0.48606887
   0.33472235  0.66950254  0.49432242
   0.33123635  0.80949368  0.49698092
   0.33213809  0.95316286  0.49862084
   0.47522653  0.09586822  0.50549190
   0.47737007  0.24119570  0.50760899
   0.46991260  0.80501545  0.50557718
   0.47430889  0.95194719  0.50367089
   0.61702580  0.09364056  0.50799381
   0.61855076  0.23778198  0.51365634
   0.61760731  0.80986780  0.52786250
   0.61582131  0.94895971  0.51077217
   0.75911895  0.09227556  0.50860784
   0.76018941  0.23620984  0.50939544
   0.76064475  0.37977162  0.51886377
   0.76042708  0.52350242  0.53835771
   0.76621862  0.67141042  0.54679951
   0.76168604  0.80436957  0.53462032
   0.75896311  0.94840028  0.51714808
   0.90162927  0.09249496  0.50623531
   0.90191876  0.23607691  0.50338411
   0.90254033  0.37981955  0.50563158
   0.90284817  0.52315257  0.51029074
   0.90427241  0.66597720  0.51617091
   0.90536838  0.80961877  0.51674660
   0.90318219  0.95075747  0.51247038
   0.47262011  0.37410091  0.49466901
   0.41647991  0.55879361  0.48105806
   0.64639077  0.53869631  0.60928511
   0.57188381  0.72139675  0.54228887
   0.42413443  0.71497453  0.50021687
   0.72033578  0.71626854  0.55202109
   0.32738614  0.37947600  0.48727322
   0.62067926  0.37916403  0.52931618
   0.59062408  0.61403377  0.50297649
   0.51694601  0.51768729  0.47835441
   0.57804662  0.56325480  0.46481452
Direct configuration=     2
   0.99837342  0.99908504  0.50499819
   0.99695318  0.14087118  0.50129447
   0.99699088  0.28418075  0.49905198
   0.99764842  0.42753844  0.50001271
   0.99808536  0.57073998  0.50246197
   0.99910776  0.71380920  0.50544887
   0.00008460  0.85742816  0.50636794
   0.14242003  0.00099374  0.49839753
   0.14106978  0.14279163  0.49655045
   0.13874758  0.28384878  0.49364100
   0.14012382  0.42783418  0.49287302
   0.14123750  0.57066531  0.49471432
   0.14145731  0.71394835  0.49626668
   0.14209142  0.85757903  0.49786293
   0.28529139  0.00156960  0.49789881
   0.28554826  0.14531634  0.49678281
   0.28374024  0.28997440  0.49103509
   0.28062279  0.42323206  0.48756150
   0.28584148  0.57090466  0.49012789
   0.28391236  0.71436825  0.49460081
   0.28413802  0.85777345  0.49650649
   0.42742930  0.00049265  0.50223065
   0.42879368  0.14523314  0.50423561
   0.42711787  0.28493333  0.49924908
   0.42597176  0.85648592  0.50160675
   0.56924389  0.99824228  0.50685306
   0.57018453  0.14229108  0.50875199
   0.57480365  0.28948132  0.51710236
   0.56731228  0.85313148  0.51440867
   0.71127538  0.99627842  0.51228011
   0.71230751  0.14080519  0.50851970
   0.71330348  0.28465790  0.51426104
   0.71037567  0.42465911  0.53074093
   0.72288406  0.57639704  0.56308953
   0.71158538  0.85269679  0.52773826
   0.85447708  0.99740120  0.51234141
   0.85423888  0.14047873  0.50611002
   0.85495743  0.28415733  0.50622317
   0.85555333  0.42763267  0.51192592
   0.85529072  0.57058829  0.51971858
   0.85881351  0.71496356  0.52460948
   0.85694558  0.85592698  0.52086960
   0.04566971  0.09431552  0.50052213
   0.04372298  0.23591558  0.49757841
   0.04476411  0.37979194  0.49686365
   0.04577516  0.52298441  0.49853916
   0.04624840  0.66615076  0.50060938
   0.04694638  0.80938632  0.50255125
   0.04699353  0.95249134  0.50272776
   0.18985922  0.09621887  0.49668004
   0.18757324  0.23787004  0.49345184
   0.18571143  0.37868673  0.49113194
   0.18922531  0.52329919  0.49229338
   0.18870966  0.66625931  0.49438151
   0.18921465  0.80964909  0.49614667
   0.18999057  0.95320767  0.49741913
   0.33333197  0.09763256  0.49929279
   0.33319814  0.24133154  0.49487997
   0.32730091  0.51890791  0.48602708
   0.33472467  0.66950346  0.49430732
   0.33123940  0.80949552  0.49697742
   0.33214212  0.95316556  0.49861968
   0.47523037  0.09586887  0.50548905
   0.47737362  0.24119542  0.50759348
   0.46991517  0.80501563  0.50556814
   0.47431255  0.95194813  0.50367092
   0.61703009  0.09364308  0.50799255
   0.61855488  0.23778356  0.51365268
   0.61760984  0.80986897  0.52785769
   0.61582377  0.94896051  0.51077009
   0.75912257  0.09227819  0.50861321
   0.76019532  0.23621372  0.50939708
   0.76064995  0.37977284  0.51886344
   0.76042848  0.52350224  0.53835255
   0.76621704  0.67140959  0.54679699
   0.76168790  0.80437116  0.53461556
   0.75896655  0.94840300  0.51714756
   0.90163074  0.09249717  0.50623860
   0.90192274  0.23607914  0.50339036
   0.90254576  0.37982214  0.50563548
   0.90285145  0.52315347  0.51029627
   0.90427324  0.66597662  0.51617652
   0.90537041  0.80961885  0.51674898
   0.90318526  0.95075886  0.51247071
   0.47262373  0.37409806  0.49462558
   0.41646959  0.55879790  0.48097527
   0.64637825  0.53868530  0.60926332
   0.57188570  0.72139597  0.54228710
   0.42413727  0.71497447  0.50020166
   0.72033518  0.71626896  0.55201538
   0.32738763  0.37947897  0.48723835
   0.62068147  0.37916590  0.52930482
   0.59052727  0.61394052  0.50291174
   0.51690625  0.51766262  0.47833006
   0.57796443  0.56326817  0.46428259
Direct configuration=     3
   0.99837875  0.99908709  0.50499951
   0.99695650  0.14087319  0.50129821
   0.99699463  0.28418235  0.49905565
   0.99765344  0.42754089  0.50001641
   0.99809053  0.57074243  0.50247318
   0.99910937  0.71380881  0.50545837
   0.00008742  0.85742905  0.50637022
   0.14242517  0.00099600  0.49839720
   0.14107571  0.14279461  0.49654239
   0.13875075  0.28385026  0.49363398
   0.14012535  0.42783446  0.49286729
   0.14124250  0.57066863  0.49471323
   0.14146146  0.71395154  0.49627095
   0.14209304  0.85757994  0.49786810
   0.28529422  0.00157161  0.49789721
   0.28555422  0.14531995  0.49676749
   0.28374611  0.28997747  0.49100232
   0.28062283  0.42323297  0.48751792
   0.28583956  0.57090463  0.49009921
   0.28391746  0.71437127  0.49459290
   0.28414215  0.85777628  0.49650762
   0.42743474  0.00049401  0.50223029
   0.42879878  0.14523356  0.50422450
   0.42712223  0.28493186  0.49920769
   0.42597697  0.85648736  0.50159932
   0.56924924  0.99824485  0.50685379
   0.57018996  0.14229365  0.50874829
   0.57480717  0.28948318  0.51708653
   0.56731542  0.85313075  0.51440003
   0.71127980  0.99628172  0.51228320
   0.71231352  0.14081023  0.50852059
   0.71330921  0.28466079  0.51426137
   0.71038076  0.42465991  0.53073374
   0.72288829  0.57639756  0.56307454
   0.71158818  0.85269751  0.52773409
   0.85448196  0.99740348  0.51234402
   0.85424297  0.14048137  0.50611955
   0.85496439  0.28416211  0.50622989
   0.85555969  0.42763523  0.51193030
   0.85529406  0.57058844  0.51972177
   0.85881473  0.71496313  0.52461284
   0.85694954  0.85592787  0.52086844
   0.04567426  0.09431713  0.50052284
   0.04372783  0.23591516  0.49757850
   0.04476814  0.37979318  0.49686586
   0.04578054  0.52298959  0.49854575
   0.04625262  0.66615369  0.50061893
   0.04694769  0.80938655  0.50255563
   0.04699919  0.95249410  0.50272859
   0.18986481  0.09622205  0.49667149
   0.18757974  0.23787104  0.49343648
   0.18571548  0.37868594  0.49111876
   0.18922806  0.52330107  0.49228371
   0.18871513  0.66626382  0.49438075
   0.18921819  0.80965234  0.49615225
   0.18999454  0.95321011  0.49742206
   0.33333620  0.09763525  0.49928223
   0.33320230  0.24133377  0.49485034
   0.32729612  0.51890684  0.48596662
   0.33472858  0.66950534  0.49428768
   0.33124437  0.80949867  0.49697258
   0.33214709  0.95316857  0.49861893
   0.47523564  0.09587029  0.50548505
   0.47737855  0.24119732  0.50757182
   0.46991937  0.80501593  0.50555571
   0.47431754  0.95195023  0.50366988
   0.61703487  0.09364597  0.50799106
   0.61855851  0.23778628  0.51364746
   0.61761389  0.80986846  0.52785132
   0.61582819  0.94896205  0.51076746
   0.75912570  0.09228060  0.50862119
   0.76020027  0.23621754  0.50939992
   0.76065201  0.37977646  0.51886381
   0.76042985  0.52350238  0.53834621
   0.76621486  0.67140841  0.54679327
   0.76169056  0.80437288  0.53460894
   0.75897138  0.94840565  0.51714715
   0.90163458  0.09249780  0.50624386
   0.90192686  0.23608037  0.50339960
   0.90255197  0.37982670  0.50564156
   0.90285533  0.52315624  0.51030511
   0.90427489  0.66597655  0.51618516
   0.90537398  0.80961981  0.51675253
   0.90319100  0.95076032  0.51247138
   0.47262882  0.37409590  0.49456632
   0.41645418  0.55880479  0.48085593
   0.64635288  0.53866968  0.60922171
   0.57188995  0.72139797  0.54228499
   0.42414165  0.71497467  0.50018016
   0.72033211  0.71626706  0.55200745
   0.32739075  0.37948010  0.48718864
   0.62068328  0.37916793  0.52928873
   0.59038483  0.61371085  0.50272307
   0.51690186  0.51765048  0.47826463
   0.57780277  0.56336444  0.46360954
Direct configuration=     4
   0.99838430  0.99909002  0.50500241
   0.99696041  0.14087659  0.50130272
   0.99699993  0.28418482  0.49906077
   0.99766041  0.42754352  0.50002142
   0.99809728  0.57074518  0.50248691
   0.99911179  0.71380961  0.50547006
   0.00008980  0.85742791  0.50637272
   0.14243161  0.00099780  0.49839653
   0.14108390  0.14279844  0.49653382
   0.13875366  0.28385391  0.49362395
   0.14012661  0.42783447  0.49285937
   0.14124791  0.57067230  0.49471201
   0.14146742  0.71395548  0.49627697
   0.14209472  0.85757938  0.49787411
   0.28529871  0.00157333  0.49789493
   0.28556278  0.14532396  0.49674741
   0.28375397  0.28998294  0.49095827
   0.28062104  0.42323285  0.48745916
   0.28583537  0.57090484  0.49006205
   0.28392377  0.71437503  0.49458185
   0.28414796  0.85778017  0.49650905
   0.42744212  0.00049605  0.50222939
   0.42880593  0.14523439  0.50420916
   0.42712831  0.28492959  0.49915265
   0.42598419  0.85648963  0.50158934
   0.56925656  0.99824840  0.50685406
   0.57019748  0.14229673  0.50874312
   0.57481306  0.28948571  0.51706508
   0.56731883  0.85312937  0.51438835
   0.71128617  0.99628584  0.51228699
   0.71232077  0.14081523  0.50852400
   0.71331774  0.28466517  0.51426137
   0.71038454  0.42466018  0.53072292
   0.72289810  0.57640040  0.56304993
   0.71159215  0.85269870  0.52772899
   0.85448858  0.99740704  0.51234713
   0.85424947  0.14048601  0.50613213
   0.85497416  0.28416816  0.50623803
   0.85556793  0.42763807  0.51193639
   0.85529924  0.57058912  0.51972624
   0.85881703  0.71496257  0.52461713
   0.85695429  0.85592934  0.52086681
   0.04568123  0.09431939  0.50052495
   0.04373583  0.23591429  0.49757910
   0.04477440  0.37979600  0.49686857
   0.04578840  0.52299640  0.49855400
   0.04625859  0.66615711  0.50063183
   0.04695057  0.80938746  0.50256185
   0.04700762  0.95249820  0.50272960
   0.18987230  0.09622619  0.49665981
   0.18758901  0.23787066  0.49341523
   0.18572201  0.37868429  0.49110138
   0.18923258  0.52330535  0.49227184
   0.18872288  0.66626989  0.49437933
   0.18922352  0.80965699  0.49615924
   0.18999966  0.95321398  0.49742547
   0.33334203  0.09763956  0.49926805
   0.33320740  0.24133540  0.49481173
   0.32728983  0.51890526  0.48588519
   0.33473367  0.66950739  0.49426299
   0.33125141  0.80950300  0.49696596
   0.33215285  0.95317172  0.49861845
   0.47524260  0.09587247  0.50547955
   0.47738399  0.24119877  0.50754326
   0.46992537  0.80501608  0.50553882
   0.47432437  0.95195300  0.50366733
   0.61704121  0.09364958  0.50798933
   0.61856338  0.23779020  0.51364002
   0.61761782  0.80986488  0.52784273
   0.61583433  0.94896374  0.51076406
   0.75912950  0.09228353  0.50863003
   0.76020611  0.23622213  0.50940397
   0.76065422  0.37978151  0.51886416
   0.76043103  0.52350295  0.53834040
   0.76621238  0.67140759  0.54678743
   0.76169292  0.80437279  0.53460057
   0.75897731  0.94840788  0.51714681
   0.90164096  0.09249829  0.50625131
   0.90193194  0.23608192  0.50341171
   0.90255926  0.37983252  0.50564979
   0.90286094  0.52316011  0.51031663
   0.90427739  0.66597698  0.51619624
   0.90537865  0.80962089  0.51675675
   0.90319873  0.95076186  0.51247227
   0.47263633  0.37409532  0.49448579
   0.41643359  0.55881750  0.48069486
   0.64630470  0.53865259  0.60915323
   0.57189741  0.72140310  0.54228164
   0.42414725  0.71497520  0.50015215
   0.72032617  0.71626205  0.55199695
   0.32739564  0.37948092  0.48712325
   0.62068608  0.37917085  0.52926769
   0.59021550  0.61337117  0.50240938
   0.51694565  0.51764774  0.47813780
   0.57752810  0.56351547  0.46283252
Direct configuration=     5
   0.99839300  0.99909445  0.50500603
   0.99696805  0.14087923  0.50130782
   0.99700844  0.28418691  0.49906792
   0.99766724  0.42754710  0.50002821
   0.99810581  0.57075010  0.50250314
   0.99911713  0.71381259  0.50548349
   0.00009444  0.85742872  0.50637495
   0.14244042  0.00100195  0.49839427
   0.14109411  0.14280213  0.49652255
   0.13876127  0.28385564  0.49360876
   0.14013229  0.42783602  0.49284774
   0.14125488  0.57067863  0.49471028
   0.14147604  0.71396128  0.49628456
   0.14209906  0.85758086  0.49788071
   0.28530604  0.00157653  0.49789075
   0.28557192  0.14532919  0.49672029
   0.28376342  0.28998855  0.49089676
   0.28062256  0.42323052  0.48738031
   0.28583230  0.57090594  0.49001127
   0.28393261  0.71438081  0.49456532
   0.28415622  0.85778553  0.49650988
   0.42745103  0.00049938  0.50222653
   0.42881559  0.14523673  0.50418840
   0.42713601  0.28492899  0.49907794
   0.42599379  0.85649327  0.50157474
   0.56926617  0.99825283  0.50685229
   0.57020667  0.14230107  0.50873517
   0.57482033  0.28948943  0.51703477
   0.56732525  0.85312950  0.51437105
   0.71129368  0.99628950  0.51228908
   0.71232867  0.14082072  0.50852841
   0.71332629  0.28467146  0.51426012
   0.71038563  0.42466126  0.53070677
   0.72290911  0.57640566  0.56301486
   0.71159923  0.85270141  0.52772073
   0.85449721  0.99741008  0.51235033
   0.85425767  0.14049013  0.50614812
   0.85498425  0.28417420  0.50624847
   0.85557552  0.42764280  0.51194454
   0.85530661  0.57059165  0.51973142
   0.85882244  0.71496454  0.52461956
   0.85695841  0.85593081  0.52086489
   0.04569044  0.09432412  0.50052759
   0.04374436  0.23591700  0.49758038
   0.04478220  0.37979969  0.49687176
   0.04579793  0.52300189  0.49856388
   0.04626616  0.66616112  0.50064790
   0.04695495  0.80938822  0.50256959
   0.04701638  0.95250132  0.50273027
   0.18988215  0.09623030  0.49664344
   0.18759886  0.23787360  0.49338479
   0.18572689  0.37868479  0.49107600
   0.18923559  0.52330941  0.49225565
   0.18873203  0.66627626  0.49437597
   0.18923050  0.80966261  0.49616533
   0.19000600  0.95321679  0.49742821
   0.33335068  0.09764473  0.49924967
   0.33321602  0.24133788  0.49475927
   0.32728092  0.51890476  0.48577171
   0.33473823  0.66950609  0.49423026
   0.33126070  0.80950855  0.49695581
   0.33216049  0.95317555  0.49861741
   0.47525224  0.09587546  0.50547105
   0.47739134  0.24119986  0.50750278
   0.46993408  0.80501828  0.50551548
   0.47433401  0.95195634  0.50366184
   0.61705066  0.09365451  0.50798700
   0.61857253  0.23779555  0.51362837
   0.61762014  0.80985801  0.52782946
   0.61584184  0.94896507  0.51075866
   0.75913697  0.09228865  0.50863971
   0.76021646  0.23622888  0.50940932
   0.76066411  0.37978552  0.51886247
   0.76043374  0.52350315  0.53833286
   0.76621092  0.67140829  0.54677660
   0.76169372  0.80436888  0.53458949
   0.75898481  0.94841047  0.51714584
   0.90164940  0.09250183  0.50626124
   0.90194052  0.23608645  0.50342707
   0.90256876  0.37983957  0.50565895
   0.90286969  0.52316402  0.51032986
   0.90428104  0.66597787  0.51620841
   0.90538372  0.80962134  0.51676037
   0.90320685  0.95076411  0.51247287
   0.47264818  0.37409357  0.49437905
   0.41639987  0.55882709  0.48047369
   0.64623185  0.53863677  0.60904002
   0.57190930  0.72141099  0.54227351
   0.42415379  0.71497598  0.50011376
   0.72031717  0.71625368  0.55198141
   0.32740208  0.37948494  0.48703394
   0.62069057  0.37917523  0.52923834
   0.59004475  0.61302918  0.50203445
   0.51698425  0.51760337  0.47794010
   0.57713893  0.56364263  0.46191073
Direct configuration=     6
   0.99840598  0.99910009  0.50500939
   0.99698078  0.14088245  0.50131351
   0.99702077  0.28419020  0.49907769
   0.99767686  0.42755374  0.50003752
   0.99811685  0.57075683  0.50252170
   0.99912638  0.71381718  0.50549829
   0.00010272  0.85743300  0.50637660
   0.14245196  0.00100840  0.49838908
   0.14110487  0.14280244  0.49650685
   0.13877412  0.28385583  0.49358599
   0.14014269  0.42784050  0.49283085
   0.14126366  0.57068719  0.49470748
   0.14148403  0.71396432  0.49629089
   0.14210760  0.85758614  0.49788752
   0.28531654  0.00158206  0.49788340
   0.28558076  0.14533752  0.49668298
   0.28377380  0.28999222  0.49081421
   0.28062286  0.42322710  0.48727554
   0.28582898  0.57090726  0.48993978
   0.28394448  0.71438798  0.49454099
   0.28416718  0.85779203  0.49650887
   0.42746058  0.00050311  0.50221894
   0.42882721  0.14524052  0.50415913
   0.42714492  0.28492686  0.49898041
   0.42600474  0.85649894  0.50155458
   0.56927867  0.99825805  0.50684674
   0.57021769  0.14230674  0.50872453
   0.57482822  0.28949361  0.51699371
   0.56733633  0.85313237  0.51434675
   0.71130338  0.99629324  0.51228870
   0.71233926  0.14082788  0.50853364
   0.71333395  0.28467921  0.51425598
   0.71039243  0.42466570  0.53068563
   0.72291357  0.57641074  0.56297244
   0.71160861  0.85270448  0.52770693
   0.85450849  0.99741397  0.51235158
   0.85426843  0.14049454  0.50616762
   0.85499521  0.28418081  0.50626200
   0.85558461  0.42765013  0.51195428
   0.85531644  0.57059562  0.51973698
   0.85882858  0.71496799  0.52462059
   0.85696258  0.85593088  0.52086134
   0.04570297  0.09433123  0.50052960
   0.04375377  0.23592308  0.49758223
   0.04479144  0.37980367  0.49687536
   0.04580806  0.52300596  0.49857536
   0.04627698  0.66616753  0.50066517
   0.04696158  0.80938981  0.50257823
   0.04702505  0.95250373  0.50272993
   0.18989166  0.09623261  0.49662381
   0.18760837  0.23787966  0.49334298
   0.18573090  0.37868745  0.49103818
   0.18923736  0.52331481  0.49223558
   0.18874278  0.66628360  0.49436928
   0.18924007  0.80966876  0.49616994
   0.19001477  0.95321887  0.49742887
   0.33336206  0.09764876  0.49922624
   0.33323109  0.24134267  0.49468678
   0.32726646  0.51890510  0.48561557
   0.33474442  0.66950524  0.49418278
   0.33127235  0.80951471  0.49694170
   0.33217147  0.95318115  0.49861466
   0.47526514  0.09587967  0.50545781
   0.47740213  0.24120247  0.50744479
   0.46994457  0.80502108  0.50548168
   0.47434687  0.95196092  0.50365178
   0.61706331  0.09366079  0.50798352
   0.61858578  0.23780257  0.51361036
   0.61762358  0.80985263  0.52780984
   0.61585138  0.94896667  0.51074950
   0.75914863  0.09229533  0.50865036
   0.76023089  0.23623516  0.50941512
   0.76067610  0.37979172  0.51885826
   0.76044021  0.52350411  0.53832238
   0.76621379  0.67141111  0.54675732
   0.76169420  0.80436328  0.53457476
   0.75899479  0.94841399  0.51714320
   0.90166030  0.09250858  0.50627386
   0.90195359  0.23609414  0.50344454
   0.90257789  0.37984462  0.50566905
   0.90288182  0.52316880  0.51034401
   0.90428712  0.66598014  0.51621988
   0.90539011  0.80962300  0.51676178
   0.90321523  0.95076742  0.51247271
   0.47267068  0.37409037  0.49424090
   0.41635514  0.55883922  0.48018813
   0.64613753  0.53862414  0.60886207
   0.57192467  0.72141762  0.54225655
   0.42416147  0.71497722  0.50006082
   0.72030376  0.71624031  0.55195724
   0.32741008  0.37949157  0.48691158
   0.62069613  0.37918078  0.52919675
   0.58988853  0.61276388  0.50164591
   0.51693640  0.51744936  0.47767436
   0.57667338  0.56371740  0.46082774
Direct configuration=     7
   0.99842254  0.99910639  0.50501259
   0.99699917  0.14089082  0.50132114
   0.99703733  0.28419954  0.49909008
   0.99769134  0.42756206  0.50005143
   0.99813296  0.57076491  0.50254500
   0.99913822  0.71382804  0.50551529
   0.00011489  0.85743938  0.50637841
   0.14246537  0.00101465  0.49838097
   0.14111831  0.14280470  0.49648204
   0.13878887  0.28385911  0.49355049
   0.14015476  0.42784833  0.49280743
   0.14127412  0.57069688  0.49470345
   0.14149600  0.71396937  0.49629654
   0.14212187  0.85759419  0.49789535
   0.28533153  0.00158946  0.49787130
   0.28558660  0.14533978  0.49662848
   0.28379011  0.28999838  0.49069783
   0.28061885  0.42322501  0.48712849
   0.28582203  0.57090876  0.48983414
   0.28395988  0.71439456  0.49450762
   0.28418209  0.85779947  0.49650496
   0.42747554  0.00050879  0.50220462
   0.42884349  0.14524555  0.50411668
   0.42716613  0.28492436  0.49884687
   0.42602057  0.85650499  0.50152631
   0.56929648  0.99826491  0.50683520
   0.57023133  0.14231150  0.50870794
   0.57483858  0.28950007  0.51693683
   0.56735250  0.85313635  0.51431208
   0.71131838  0.99629902  0.51228545
   0.71235719  0.14083786  0.50854044
   0.71334688  0.28468772  0.51424871
   0.71040577  0.42467181  0.53065660
   0.72291338  0.57641596  0.56290955
   0.71161910  0.85270602  0.52768627
   0.85452269  0.99741982  0.51235331
   0.85428566  0.14050368  0.50619309
   0.85501112  0.28418894  0.50628081
   0.85559895  0.42765846  0.51196448
   0.85533184  0.57060175  0.51974489
   0.85883879  0.71497438  0.52461959
   0.85696580  0.85592744  0.52085625
   0.04572176  0.09433877  0.50053046
   0.04376784  0.23592837  0.49758665
   0.04480573  0.37981033  0.49687989
   0.04581814  0.52301301  0.49859196
   0.04629167  0.66617629  0.50068595
   0.04697192  0.80939528  0.50258713
   0.04703783  0.95250896  0.50272817
   0.18990369  0.09623618  0.49659898
   0.18762231  0.23788468  0.49328167
   0.18573810  0.37868963  0.49097871
   0.18924115  0.52332444  0.49220998
   0.18875551  0.66629121  0.49435901
   0.18925395  0.80967517  0.49617342
   0.19002942  0.95322445  0.49742637
   0.33337486  0.09765611  0.49919419
   0.33324796  0.24134980  0.49457938
   0.32723793  0.51890220  0.48539014
   0.33475542  0.66950889  0.49410790
   0.33128560  0.80952267  0.49692154
   0.33218750  0.95318962  0.49860875
   0.47528219  0.09588596  0.50543650
   0.47741773  0.24120505  0.50735808
   0.46995286  0.80502260  0.50543245
   0.47436467  0.95196777  0.50363614
   0.61708007  0.09366895  0.50797826
   0.61860153  0.23781148  0.51358191
   0.61763398  0.80985278  0.52777890
   0.61586631  0.94897087  0.51073387
   0.75916476  0.09230240  0.50866371
   0.76024708  0.23624289  0.50942290
   0.76068835  0.37980179  0.51885066
   0.76045011  0.52350776  0.53830768
   0.76621989  0.67141323  0.54672542
   0.76169223  0.80435523  0.53455343
   0.75900590  0.94841850  0.51713704
   0.90167691  0.09251684  0.50628910
   0.90197235  0.23610383  0.50346729
   0.90258913  0.37985096  0.50568266
   0.90289892  0.52317717  0.51036096
   0.90429943  0.66598577  0.51622930
   0.90540001  0.80962896  0.51675837
   0.90322685  0.95077174  0.51247167
   0.47271283  0.37409619  0.49404535
   0.41630091  0.55885838  0.47978404
   0.64599804  0.53861055  0.60857211
   0.57194456  0.72142080  0.54222526
   0.42417261  0.71498027  0.49998440
   0.72028367  0.71621933  0.55191616
   0.32741957  0.37949758  0.48673463
   0.62070496  0.37918870  0.52913523
   0.58973051  0.61252878  0.50115440
   0.51674465  0.51711447  0.47729448
   0.57610771  0.56380149  0.45952340
Direct configuration=     8
   0.99843994  0.99911278  0.50501611
   0.99702105  0.14090323  0.50133067
   0.99705801  0.28421440  0.49910477
   0.99770718  0.42756951  0.50007020
   0.99814659  0.57077386  0.50257312
   0.99915721  0.71384231  0.50553543
   0.00012860  0.85744931  0.50637919
   0.14247778  0.00101377  0.49836928
   0.14113816  0.14281524  0.49644480
   0.13880261  0.28386635  0.49349869
   0.14016616  0.42785884  0.49277612
   0.14128309  0.57070642  0.49470009
   0.14150525  0.71397809  0.49630255
   0.14214224  0.85760258  0.49790480
   0.28535260  0.00159923  0.49785441
   0.28560049  0.14534279  0.49655893
   0.28381317  0.29000657  0.49054195
   0.28061159  0.42322274  0.48692498
   0.28580977  0.57091637  0.48968829
   0.28397833  0.71440002  0.49446398
   0.28420143  0.85780876  0.49649785
   0.42750025  0.00051796  0.50218311
   0.42886181  0.14524847  0.50405808
   0.42719571  0.28492290  0.49867320
   0.42604049  0.85651226  0.50148729
   0.56932094  0.99827468  0.50681642
   0.57025329  0.14231930  0.50868339
   0.57485713  0.28951100  0.51685738
   0.56736729  0.85313852  0.51426568
   0.71134017  0.99630847  0.51227974
   0.71238299  0.14084900  0.50854998
   0.71336949  0.28469778  0.51423726
   0.71041616  0.42467731  0.53061527
   0.72291679  0.57642632  0.56280868
   0.71163218  0.85270790  0.52765680
   0.85454008  0.99742884  0.51235684
   0.85431217  0.14051852  0.50622585
   0.85502867  0.28419423  0.50630621
   0.85562129  0.42766837  0.51197369
   0.85535571  0.57061210  0.51975925
   0.85885550  0.71498467  0.52461617
   0.85697052  0.85592485  0.52084900
   0.04574527  0.09434509  0.50052988
   0.04379110  0.23593548  0.49759377
   0.04482798  0.37982396  0.49688653
   0.04583543  0.52302451  0.49861311
   0.04630484  0.66619052  0.50071202
   0.04699133  0.80940983  0.50259761
   0.04705829  0.95251878  0.50272574
   0.18991510  0.09624033  0.49656791
   0.18764395  0.23788640  0.49319851
   0.18574787  0.37869024  0.49089167
   0.18924492  0.52333415  0.49217642
   0.18876865  0.66629866  0.49434640
   0.18927318  0.80968297  0.49617666
   0.19005162  0.95323669  0.49742026
   0.33339222  0.09766595  0.49915541
   0.33327609  0.24136207  0.49443033
   0.32719937  0.51889162  0.48508479
   0.33477264  0.66951793  0.49399568
   0.33130545  0.80953263  0.49689590
   0.33220925  0.95320044  0.49859842
   0.47530225  0.09589340  0.50540483
   0.47743874  0.24120918  0.50723995
   0.46996857  0.80502484  0.50536630
   0.47438813  0.95197736  0.50361310
   0.61710293  0.09367887  0.50797120
   0.61861941  0.23781890  0.51354357
   0.61765130  0.80985420  0.52773480
   0.61588904  0.94897890  0.51071002
   0.75918754  0.09231127  0.50868146
   0.76026594  0.23625473  0.50943476
   0.76070368  0.37981413  0.51883932
   0.76046224  0.52351596  0.53828976
   0.76622609  0.67141193  0.54667850
   0.76168461  0.80434160  0.53452386
   0.75901821  0.94842140  0.51713059
   0.90170201  0.09252658  0.50630874
   0.90199202  0.23611159  0.50349734
   0.90260833  0.37986196  0.50570266
   0.90291973  0.52319010  0.51038124
   0.90431405  0.66599696  0.51623784
   0.90541595  0.80963882  0.51675077
   0.90324213  0.95077425  0.51247118
   0.47277084  0.37410176  0.49377089
   0.41623298  0.55889763  0.47923042
   0.64577657  0.53858375  0.60811812
   0.57197138  0.72142317  0.54217401
   0.42418836  0.71498565  0.49988027
   0.72025772  0.71619006  0.55184892
   0.32742871  0.37950354  0.48649372
   0.62072062  0.37920042  0.52905138
   0.58954607  0.61222550  0.50043033
   0.51648758  0.51664427  0.47673241
   0.57536841  0.56393069  0.45812257
Direct configuration=     9
   0.99846171  0.99912085  0.50501949
   0.99705171  0.14091211  0.50134460
   0.99708711  0.28422798  0.49912463
   0.99773196  0.42758565  0.50009098
   0.99816592  0.57079073  0.50260714
   0.99918113  0.71385598  0.50555859
   0.00015025  0.85746617  0.50637861
   0.14249568  0.00101590  0.49835351
   0.14116453  0.14282150  0.49639474
   0.13882594  0.28387071  0.49342482
   0.14018302  0.42786906  0.49273296
   0.14129150  0.57071744  0.49469943
   0.14152077  0.71398878  0.49631011
   0.14217218  0.85761700  0.49791522
   0.28538147  0.00161314  0.49783235
   0.28562984  0.14535674  0.49646750