  95  95   0   0
  0.4078826E+02  0.1727104E-08  0.1727104E-08  0.1500000E-08  0.0000000E+00
  1.000000000000000E-004
  CAR 
 unknown system                          
      5.70207949    -24.03342415  301     -2.74740068      1.00000000
    -24.033  0.0000E+00  0.0000E+00  0.0000E+00  0.0000E+00
    -23.934  0.0000E+00  0.0000E+00  0.0000E+00  0.0000E+00
    -23.835  0.0000E+00  0.0000E+00  0.0000E+00  0.0000E+00
    -23.736  0.0000E+00  0.0000E+00  0.0000E+00  0.0000E+00
    -23.637  0.0000E+00  0.0000E+00  0.0000E+00  0.0000E+00
    -23.538  0.0000E+00  0.0000E+00  0.0000E+00  0.0000E+00
    -23.439  0.0000E+00  0.0000E+00  0.0000E+00  0.0000E+00
    -23.340  0.0000E+00  0.0000E+00  0.0000E+00  0.0000E+00
    -23.240  0.0000E+00  0.0000E+00  0.0000E+00  0.0000E+00
    -23.141  0.0000E+00  0.0000E+00  0.0000E+00  0.0000E+00
    -23.042  0.0000E+00  0.0000E+00  0.0000E+00  0.0000E+00
    -22.943  0.7124E-15  0.7124E-15  0.7061E-16  0.7061E-16
    -22.844  0.2218E-07  0.2218E-07  0.2198E-08  0.2198E-08
    -22.745  0.3720E-03  0.3720E-03  0.3687E-04  0.3687E-04
    -22.646  0.8153E-02  0.8153E-02  0.8450E-03  0.8450E-03
    -22.547  0.1563E-02  0.1563E-02  0.1000E-02  0.1000E-02
    -22.448  0.9795E-03  0.9795E-03  0.1097E-02  0.1097E-02
    -22.348  0.1527E-01  0.1527E-01  0.2611E-02  0.2611E-02
    -22.249  0.1749E-01  0.1749E-01  0.4344E-02  0.4344E-02
    -22.150  0.6576E-02  0.6576E-02  0.4996E-02  0.4996E-02
    -22.051  0.3895E-04  0.3895E-04  0.5000E-02  0.5000E-02
    -21.952  0.3752E-09  0.3752E-09  0.5000E-02  0.5000E-02
    -21.853  0.4480E-06  0.4480E-06  0.5000E-02  0.5000E-02
    -21.754  0.1261E-02  0.1261E-02  0.5125E-02  0.5125E-02
    -21.655  0.1251E-01  0.1251E-01  0.6365E-02  0.6365E-02
    -21.555  0.6682E-02  0.6682E-02  0.7028E-02  0.7028E-02
    -21.456  0.4589E-02  0.4589E-02  0.7483E-02  0.7483E-02
    -21.357  0.3616E-02  0.3616E-02  0.7841E-02  0.7841E-02
    -21.258  0.4595E-02  0.4595E-02  0.8296E-02  0.8296E-02
    -21.159  0.5187E-02  0.5187E-02  0.8811E-02  0.8811E-02
    -21.060  0.6898E-02  0.6898E-02  0.9494E-02  0.9494E-02
    -20.961  0.5808E-02  0.5808E-02  0.1007E-01  0.1007E-01
    -20.862  0.5069E-02  0.5069E-02  0.1057E-01  0.1057E-01
    -20.763  0.7764E-02  0.7764E-02  0.1134E-01  0.1134E-01
    -20.663  0.7228E-02  0.7228E-02  0.1206E-01  0.1206E-01
    -20.564  0.5278E-02  0.5278E-02  0.1258E-01  0.1258E-01
    -20.465  0.8107E-02  0.8107E-02  0.1339E-01  0.1339E-01
    -20.366  0.7461E-02  0.7461E-02  0.1412E-01  0.1412E-01
    -20.267  0.8079E-02  0.8079E-02  0.1493E-01  0.1493E-01
    -20.168  0.5138E-02  0.5138E-02  0.1543E-01  0.1543E-01
    -20.069  0.6655E-03  0.6655E-03  0.1550E-01  0.1550E-01
    -19.970  0.3889E-02  0.3889E-02  0.1589E-01  0.1589E-01
    -19.870  0.1289E-01  0.1289E-01  0.1716E-01  0.1716E-01
    -19.771  0.2753E-02  0.2753E-02  0.1744E-01  0.1744E-01
    -19.672  0.8437E-02  0.8437E-02  0.1827E-01  0.1827E-01
    -19.573  0.1338E-01  0.1338E-01  0.1960E-01  0.1960E-01
    -19.474  0.7535E-02  0.7535E-02  0.2035E-01  0.2035E-01
    -19.375  0.6648E-02  0.6648E-02  0.2101E-01  0.2101E-01
    -19.276  0.4762E-02  0.4762E-02  0.2148E-01  0.2148E-01
    -19.177  0.2993E-02  0.2993E-02  0.2177E-01  0.2177E-01
    -19.078  0.7105E-02  0.7105E-02  0.2248E-01  0.2248E-01
    -18.978  0.2511E-02  0.2511E-02  0.2273E-01  0.2273E-01
    -18.879  0.3608E-02  0.3608E-02  0.2308E-01  0.2308E-01
    -18.780  0.1121E-01  0.1121E-01  0.2420E-01  0.2420E-01
    -18.681  0.1770E-01  0.1770E-01  0.2595E-01  0.2595E-01
    -18.582  0.8041E-02  0.8041E-02  0.2675E-01  0.2675E-01
    -18.483  0.2343E-02  0.2343E-02  0.2698E-01  0.2698E-01
    -18.384  0.7061E-02  0.7061E-02  0.2768E-01  0.2768E-01
    -18.285  0.9637E-02  0.9637E-02  0.2863E-01  0.2863E-01
    -18.185  0.5097E-02  0.5097E-02  0.2914E-01  0.2914E-01
    -18.086  0.2188E-02  0.2188E-02  0.2936E-01  0.2936E-01
    -17.987  0.5193E-02  0.5193E-02  0.2987E-01  0.2987E-01
    -17.888  0.7508E-02  0.7508E-02  0.3062E-01  0.3062E-01
    -17.789  0.7820E-02  0.7820E-02  0.3139E-01  0.3139E-01
    -17.690  0.7488E-02  0.7488E-02  0.3213E-01  0.3213E-01
    -17.591  0.1417E-01  0.1417E-01  0.3354E-01  0.3354E-01
    -17.492  0.1171E-01  0.1171E-01  0.3470E-01  0.3470E-01
    -17.392  0.1159E-01  0.1159E-01  0.3585E-01  0.3585E-01
    -17.293  0.5556E-02  0.5556E-02  0.3640E-01  0.3640E-01
    -17.194  0.5054E-02  0.5054E-02  0.3690E-01  0.3690E-01
    -17.095  0.9454E-02  0.9454E-02  0.3784E-01  0.3784E-01
    -16.996  0.4463E-02  0.4463E-02  0.3828E-01  0.3828E-01
    -16.897  0.3304E-02  0.3304E-02  0.3861E-01  0.3861E-01
    -16.798  0.7125E-02  0.7125E-02  0.3931E-01  0.3931E-01
    -16.699  0.5384E-02  0.5384E-02  0.3985E-01  0.3985E-01
    -16.600  0.1294E-01  0.1294E-01  0.4113E-01  0.4113E-01
    -16.500  0.1918E-01  0.1918E-01  0.4303E-01  0.4303E-01
    -16.401  0.5639E-02  0.5639E-02  0.4359E-01  0.4359E-01
    -16.302  0.3272E-02  0.3272E-02  0.4391E-01  0.4391E-01
    -16.203  0.8892E-03  0.8892E-03  0.4400E-01  0.4400E-01
    -16.104  0.1757E-05  0.1757E-05  0.4400E-01  0.4400E-01
    -16.005  0.1395E-03  0.1395E-03  0.4401E-01  0.4401E-01
    -15.906  0.2446E-02  0.2446E-02  0.4426E-01  0.4426E-01
    -15.807  0.5706E-02  0.5706E-02  0.4482E-01  0.4482E-01
    -15.707  0.5644E-02  0.5644E-02  0.4538E-01  0.4538E-01
    -15.608  0.6446E-02  0.6446E-02  0.4602E-01  0.4602E-01
    -15.509  0.6245E-02  0.6245E-02  0.4664E-01  0.4664E-01
    -15.410  0.7095E-02  0.7095E-02  0.4734E-01  0.4734E-01
    -15.311  0.4307E-02  0.4307E-02  0.4777E-01  0.4777E-01
    -15.212  0.1573E-01  0.1573E-01  0.4933E-01  0.4933E-01
    -15.113  0.1312E-01  0.1312E-01  0.5063E-01  0.5063E-01
    -15.014  0.4469E-02  0.4469E-02  0.5107E-01  0.5107E-01
    -14.915  0.5594E-02  0.5594E-02  0.5163E-01  0.5163E-01
    -14.815  0.1027E-01  0.1027E-01  0.5264E-01  0.5264E-01
    -14.716  0.1035E-01  0.1035E-01  0.5367E-01  0.5367E-01
    -14.617  0.6346E-02  0.6346E-02  0.5430E-01  0.5430E-01
    -14.518  0.7563E-02  0.7563E-02  0.5505E-01  0.5505E-01
    -14.419  0.1145E-01  0.1145E-01  0.5618E-01  0.5618E-01
    -14.320  0.1266E-01  0.1266E-01  0.5744E-01  0.5744E-01
    -14.221  0.5790E-02  0.5790E-02  0.5801E-01  0.5801E-01
    -14.122  0.6166E-02  0.6166E-02  0.5862E-01  0.5862E-01
    -14.022  0.2194E-02  0.2194E-02  0.5884E-01  0.5884E-01
    -13.923  0.4263E-02  0.4263E-02  0.5926E-01  0.5926E-01
    -13.824  0.5248E-02  0.5248E-02  0.5978E-01  0.5978E-01
    -13.725  0.8819E-02  0.8819E-02  0.6066E-01  0.6066E-01
    -13.626  0.1293E-01  0.1293E-01  0.6194E-01  0.6194E-01
    -13.527  0.8300E-02  0.8300E-02  0.6276E-01  0.6276E-01
    -13.428  0.6620E-02  0.6620E-02  0.6342E-01  0.6342E-01
    -13.329  0.4787E-02  0.4787E-02  0.6389E-01  0.6389E-01
    -13.230  0.5712E-02  0.5712E-02  0.6446E-01  0.6446E-01
    -13.130  0.1139E-02  0.1139E-02  0.6457E-01  0.6457E-01
    -13.031  0.6137E-02  0.6137E-02  0.6518E-01  0.6518E-01
    -12.932  0.5718E-02  0.5718E-02  0.6575E-01  0.6575E-01
    -12.833  0.8205E-02  0.8205E-02  0.6656E-01  0.6656E-01
    -12.734  0.7071E-02  0.7071E-02  0.6726E-01  0.6726E-01
    -12.635  0.1758E-01  0.1758E-01  0.6900E-01  0.6900E-01
    -12.536  0.1150E-01  0.1150E-01  0.7014E-01  0.7014E-01
    -12.437  0.9882E-02  0.9882E-02  0.7112E-01  0.7112E-01
    -12.337  0.6215E-02  0.6215E-02  0.7174E-01  0.7174E-01
    -12.238  0.4455E-02  0.4455E-02  0.7218E-01  0.7218E-01
    -12.139  0.4029E-02  0.4029E-02  0.7258E-01  0.7258E-01
    -12.040  0.7530E-02  0.7530E-02  0.7333E-01  0.7333E-01
    -11.941  0.5681E-02  0.5681E-02  0.7389E-01  0.7389E-01
    -11.842  0.7550E-02  0.7550E-02  0.7464E-01  0.7464E-01
    -11.743  0.9059E-02  0.9059E-02  0.7553E-01  0.7553E-01
    -11.644  0.1122E-01  0.1122E-01  0.7665E-01  0.7665E-01
    -11.545  0.9364E-02  0.9364E-02  0.7758E-01  0.7758E-01
    -11.445  0.1515E-01  0.1515E-01  0.7908E-01  0.7908E-01
    -11.346  0.9879E-02  0.9879E-02  0.8006E-01  0.8006E-01
    -11.247  0.8667E-02  0.8667E-02  0.8091E-01  0.8091E-01
    -11.148  0.1010E-01  0.1010E-01  0.8192E-01  0.8192E-01
    -11.049  0.1226E-01  0.1226E-01  0.8313E-01  0.8313E-01
    -10.950  0.7924E-02  0.7924E-02  0.8392E-01  0.8392E-01
    -10.851  0.7660E-02  0.7660E-02  0.8468E-01  0.8468E-01
    -10.752  0.9273E-02  0.9273E-02  0.8559E-01  0.8559E-01
    -10.652  0.1010E-01  0.1010E-01  0.8660E-01  0.8660E-01
    -10.553  0.4795E-02  0.4795E-02  0.8707E-01  0.8707E-01
    -10.454  0.8302E-02  0.8302E-02  0.8789E-01  0.8789E-01
    -10.355  0.1218E-01  0.1218E-01  0.8910E-01  0.8910E-01
    -10.256  0.1536E-01  0.1536E-01  0.9062E-01  0.9062E-01
    -10.157  0.1465E-01  0.1465E-01  0.9208E-01  0.9208E-01
    -10.058  0.2016E-01  0.2016E-01  0.9407E-01  0.9407E-01
     -9.959  0.1646E-01  0.1646E-01  0.9571E-01  0.9571E-01
     -9.860  0.1630E-01  0.1630E-01  0.9732E-01  0.9732E-01
     -9.760  0.1300E-01  0.1300E-01  0.9861E-01  0.9861E-01
     -9.661  0.1840E-01  0.1840E-01  0.1004E+00  0.1004E+00
     -9.562  0.1868E-01  0.1868E-01  0.1023E+00  0.1023E+00
     -9.463  0.1828E-01  0.1828E-01  0.1041E+00  0.1041E+00
     -9.364  0.1499E-01  0.1499E-01  0.1056E+00  0.1056E+00
     -9.265  0.1536E-01  0.1536E-01  0.1071E+00  0.1071E+00
     -9.166  0.2320E-01  0.2320E-01  0.1094E+00  0.1094E+00
     -9.067  0.2746E-01  0.2746E-01  0.1121E+00  0.1121E+00
     -8.967  0.2569E-01  0.2569E-01  0.1147E+00  0.1147E+00
     -8.868  0.2338E-01  0.2338E-01  0.1170E+00  0.1170E+00
     -8.769  0.1670E-01  0.1670E-01  0.1186E+00  0.1186E+00
     -8.670  0.1558E-01  0.1558E-01  0.1202E+00  0.1202E+00
     -8.571  0.1643E-01  0.1643E-01  0.1218E+00  0.1218E+00
     -8.472  0.1573E-01  0.1573E-01  0.1234E+00  0.1234E+00
     -8.373  0.1814E-01  0.1814E-01  0.1252E+00  0.1252E+00
     -8.274  0.2580E-01  0.2580E-01  0.1277E+00  0.1277E+00
     -8.174  0.1816E-01  0.1816E-01  0.1295E+00  0.1295E+00
     -8.075  0.1560E-01  0.1560E-01  0.1311E+00  0.1311E+00
     -7.976  0.1619E-01  0.1619E-01  0.1327E+00  0.1327E+00
     -7.877  0.1857E-01  0.1857E-01  0.1345E+00  0.1345E+00
     -7.778  0.5265E-02  0.5265E-02  0.1350E+00  0.1350E+00
     -7.679  0.9999E-02  0.9999E-02  0.1360E+00  0.1360E+00
     -7.580  0.1291E-01  0.1291E-01  0.1373E+00  0.1373E+00
     -7.481  0.1974E-01  0.1974E-01  0.1393E+00  0.1393E+00
     -7.382  0.2073E-01  0.2073E-01  0.1413E+00  0.1413E+00
     -7.282  0.1862E-01  0.1862E-01  0.1432E+00  0.1432E+00
     -7.183  0.1343E-01  0.1343E-01  0.1445E+00  0.1445E+00
     -7.084  0.1353E-01  0.1353E-01  0.1458E+00  0.1458E+00
     -6.985  0.1507E-01  0.1507E-01  0.1473E+00  0.1473E+00
     -6.886  0.1020E-01  0.1020E-01  0.1484E+00  0.1484E+00
     -6.787  0.8737E-02  0.8737E-02  0.1492E+00  0.1492E+00
     -6.688  0.1263E-01  0.1263E-01  0.1505E+00  0.1505E+00
     -6.589  0.1721E-01  0.1721E-01  0.1522E+00  0.1522E+00
     -6.489  0.1273E-01  0.1273E-01  0.1534E+00  0.1534E+00
     -6.390  0.1577E-01  0.1577E-01  0.1550E+00  0.1550E+00
     -6.291  0.2254E-01  0.2254E-01  0.1572E+00  0.1572E+00
     -6.192  0.1572E-01  0.1572E-01  0.1588E+00  0.1588E+00
     -6.093  0.6517E-02  0.6517E-02  0.1594E+00  0.1594E+00
     -5.994  0.1159E-01  0.1159E-01  0.1606E+00  0.1606E+00
     -5.895  0.1320E-01  0.1320E-01  0.1619E+00  0.1619E+00
     -5.796  0.9583E-02  0.9583E-02  0.1628E+00  0.1628E+00
     -5.697  0.3904E-02  0.3904E-02  0.1632E+00  0.1632E+00
     -5.597  0.4957E-02  0.4957E-02  0.1637E+00  0.1637E+00
     -5.498  0.2025E-02  0.2025E-02  0.1639E+00  0.1639E+00
     -5.399  0.4462E-02  0.4462E-02  0.1644E+00  0.1644E+00
     -5.300  0.7789E-02  0.7789E-02  0.1651E+00  0.1651E+00
     -5.201  0.2073E-01  0.2073E-01  0.1672E+00  0.1672E+00
     -5.102  0.1430E-01  0.1430E-01  0.1686E+00  0.1686E+00
     -5.003  0.1919E-01  0.1919E-01  0.1705E+00  0.1705E+00
     -4.904  0.1376E-01  0.1376E-01  0.1719E+00  0.1719E+00
     -4.804  0.8809E-02  0.8809E-02  0.1727E+00  0.1727E+00
     -4.705  0.1079E-01  0.1079E-01  0.1738E+00  0.1738E+00
     -4.606  0.1081E-01  0.1081E-01  0.1749E+00  0.1749E+00
     -4.507  0.2512E-01  0.2512E-01  0.1774E+00  0.1774E+00
     -4.408  0.1276E-01  0.1276E-01  0.1786E+00  0.1786E+00
     -4.309  0.5657E-02  0.5657E-02  0.1792E+00  0.1792E+00
     -4.210  0.1137E-01  0.1137E-01  0.1803E+00  0.1803E+00
     -4.111  0.7966E-02  0.7966E-02  0.1811E+00  0.1811E+00
     -4.012  0.8327E-02  0.8327E-02  0.1819E+00  0.1819E+00
     -3.912  0.5286E-03  0.5286E-03  0.1820E+00  0.1820E+00
     -3.813  0.7982E-03  0.7982E-03  0.1821E+00  0.1821E+00
     -3.714  0.1754E-02  0.1754E-02  0.1823E+00  0.1823E+00
     -3.615  0.3999E-02  0.3999E-02  0.1826E+00  0.1826E+00
     -3.516  0.3622E-02  0.3622E-02  0.1830E+00  0.1830E+00
     -3.417  0.2124E-02  0.2124E-02  0.1832E+00  0.1832E+00
     -3.318  0.5554E-03  0.5554E-03  0.1833E+00  0.1833E+00
     -3.219  0.2111E-02  0.2111E-02  0.1835E+00  0.1835E+00
     -3.119  0.1688E-03  0.1688E-03  0.1835E+00  0.1835E+00
     -3.020  0.6702E-03  0.6702E-03  0.1836E+00  0.1836E+00
     -2.921  0.2523E-02  0.2523E-02  0.1838E+00  0.1838E+00
     -2.822  0.1818E-02  0.1818E-02  0.1840E+00  0.1840E+00
     -2.723  0.3337E-04  0.3337E-04  0.1840E+00  0.1840E+00
     -2.624  0.5227E-03  0.5227E-03  0.1841E+00  0.1841E+00
     -2.525  0.3560E-02  0.3560E-02  0.1844E+00  0.1844E+00
     -2.426  0.9598E-03  0.9598E-03  0.1845E+00  0.1845E+00
     -2.327  0.1914E-05  0.1914E-05  0.1845E+00  0.1845E+00
     -2.227  0.2342E-04  0.2342E-04  0.1845E+00  0.1845E+00
     -2.128  0.2883E-02  0.2883E-02  0.1848E+00  0.1848E+00
     -2.029  0.2154E-02  0.2154E-02  0.1850E+00  0.1850E+00
     -1.930  0.2741E-02  0.2741E-02  0.1853E+00  0.1853E+00
     -1.831  0.4247E-02  0.4247E-02  0.1857E+00  0.1857E+00
     -1.732  0.2843E-02  0.2843E-02  0.1860E+00  0.1860E+00
     -1.633  0.2740E-03  0.2740E-03  0.1860E+00  0.1860E+00
     -1.534  0.4132E-02  0.4132E-02  0.1864E+00  0.1864E+00
     -1.434  0.8562E-02  0.8562E-02  0.1873E+00  0.1873E+00
     -1.335  0.2348E-02  0.2348E-02  0.1875E+00  0.1875E+00
     -1.236  0.2203E-03  0.2203E-03  0.1875E+00  0.1875E+00
     -1.137  0.5746E-02  0.5746E-02  0.1881E+00  0.1881E+00
     -1.038  0.1631E-01  0.1631E-01  0.1897E+00  0.1897E+00
     -0.939  0.1191E-01  0.1191E-01  0.1909E+00  0.1909E+00
     -0.840  0.5220E-02  0.5220E-02  0.1914E+00  0.1914E+00
     -0.741  0.1047E-01  0.1047E-01  0.1924E+00  0.1924E+00
     -0.641  0.1111E-01  0.1111E-01  0.1935E+00  0.1935E+00
     -0.542  0.5325E-02  0.5325E-02  0.1941E+00  0.1941E+00
     -0.443  0.3428E-02  0.3428E-02  0.1944E+00  0.1944E+00
     -0.344  0.8584E-02  0.8584E-02  0.1953E+00  0.1953E+00
     -0.245  0.9431E-02  0.9431E-02  0.1962E+00  0.1962E+00
     -0.146  0.1071E-01  0.1071E-01  0.1973E+00  0.1973E+00
     -0.047  0.1020E-01  0.1020E-01  0.1983E+00  0.1983E+00
      0.052  0.1154E-01  0.1154E-01  0.1994E+00  0.1994E+00
      0.151  0.4620E-02  0.4620E-02  0.1999E+00  0.1999E+00
      0.251  0.1354E-02  0.1354E-02  0.2000E+00  0.2000E+00
      0.350  0.1828E-02  0.1828E-02  0.2002E+00  0.2002E+00
      0.449  0.7972E-02  0.7972E-02  0.2010E+00  0.2010E+00
      0.548  0.8803E-02  0.8803E-02  0.2018E+00  0.2018E+00
      0.647  0.6351E-02  0.6351E-02  0.2025E+00  0.2025E+00
      0.746  0.4933E-02  0.4933E-02  0.2030E+00  0.2030E+00
      0.845  0.5422E-02  0.5422E-02  0.2035E+00  0.2035E+00
      0.944  0.8450E-02  0.8450E-02  0.2043E+00  0.2043E+00
      1.044  0.1202E-01  0.1202E-01  0.2055E+00  0.2055E+00
      1.143  0.3206E-02  0.3206E-02  0.2058E+00  0.2058E+00
      1.242  0.8911E-02  0.8911E-02  0.2067E+00  0.2067E+00
      1.341  0.1790E-01  0.1790E-01  0.2085E+00  0.2085E+00
      1.440  0.2169E-01  0.2169E-01  0.2107E+00  0.2107E+00
      1.539  0.7943E-02  0.7943E-02  0.2114E+00  0.2114E+00
      1.638  0.8042E-02  0.8042E-02  0.2122E+00  0.2122E+00
      1.737  0.6944E-02  0.6944E-02  0.2129E+00  0.2129E+00
      1.836  0.9715E-02  0.9715E-02  0.2139E+00  0.2139E+00
      1.936  0.1784E-01  0.1784E-01  0.2157E+00  0.2157E+00
      2.035  0.2906E-01  0.2906E-01  0.2185E+00  0.2185E+00
      2.134  0.9542E-02  0.9542E-02  0.2195E+00  0.2195E+00
      2.233  0.1338E-01  0.1338E-01  0.2208E+00  0.2208E+00
      2.332  0.1924E-01  0.1924E-01  0.2227E+00  0.2227E+00
      2.431  0.2407E-01  0.2407E-01  0.2251E+00  0.2251E+00
      2.530  0.1243E-01  0.1243E-01  0.2263E+00  0.2263E+00
      2.629  0.8703E-02  0.8704E-02  0.2272E+00  0.2272E+00
      2.729  0.1524E-01  0.1524E-01  0.2287E+00  0.2287E+00
      2.828  0.2578E-01  0.2578E-01  0.2313E+00  0.2313E+00
      2.927  0.5616E-01  0.5616E-01  0.2368E+00  0.2368E+00
      3.026  0.2386E-01  0.2386E-01  0.2392E+00  0.2392E+00
      3.125  0.9656E-02  0.9656E-02  0.2402E+00  0.2402E+00
      3.224  0.1252E-01  0.1252E-01  0.2414E+00  0.2414E+00
      3.323  0.1549E-01  0.1549E-01  0.2429E+00  0.2429E+00
      3.422  0.2295E-01  0.2295E-01  0.2452E+00  0.2452E+00
      3.521  0.2339E-01  0.2339E-01  0.2475E+00  0.2475E+00
      3.621  0.8947E-02  0.8947E-02  0.2484E+00  0.2484E+00
      3.720  0.1764E-01  0.1764E-01  0.2502E+00  0.2502E+00
      3.819  0.2897E-01  0.2897E-01  0.2530E+00  0.2530E+00
      3.918  0.2866E-01  0.2866E-01  0.2559E+00  0.2559E+00
      4.017  0.1813E-01  0.1813E-01  0.2577E+00  0.2577E+00
      4.116  0.1715E-01  0.1715E-01  0.2594E+00  0.2594E+00
      4.215  0.1427E-01  0.1427E-01  0.2608E+00  0.2608E+00
      4.314  0.3297E-01  0.3297E-01  0.2640E+00  0.2640E+00
      4.414  0.9492E-02  0.9492E-02  0.2650E+00  0.2650E+00
      4.513  0.1255E-03  0.1255E-03  0.2650E+00  0.2650E+00
      4.612  0.5837E-08  0.5832E-08  0.2650E+00  0.2650E+00
      4.711  0.1843E-15  0.1843E-15  0.2650E+00  0.2650E+00
      4.810  0.0000E+00  0.0000E+00  0.2650E+00  0.2650E+00
      4.909  0.0000E+00  0.0000E+00  0.2650E+00  0.2650E+00
      5.008  0.0000E+00  0.0000E+00  0.2650E+00  0.2650E+00
      5.107  0.0000E+00  0.0000E+00  0.2650E+00  0.2650E+00
      5.206  0.0000E+00  0.0000E+00  0.2650E+00  0.2650E+00
      5.306  0.0000E+00  0.0000E+00  0.2650E+00  0.2650E+00
      5.405  0.0000E+00  0.0000E+00  0.2650E+00  0.2650E+00
      5.504  0.0000E+00  0.0000E+00  0.2650E+00  0.2650E+00
      5.603  0.0000E+00  0.0000E+00  0.2650E+00  0.2650E+00
      5.702  0.0000E+00  0.0000E+00  0.2650E+00  0.2650E+00
