       N       E                     dE             d eps       ncg     rms          rms(c)
DAV:   1     0.327510553462E+04    0.32751E+04   -0.13760E+05  4590   0.105E+03
DAV:   2    -0.235362257371E+03   -0.35105E+04   -0.33065E+04  6420   0.257E+02
DAV:   3    -0.853051643389E+03   -0.61769E+03   -0.61481E+03  5370   0.112E+02
DAV:   4    -0.875162096424E+03   -0.22110E+02   -0.22027E+02  5380   0.266E+01
DAV:   5    -0.875804294988E+03   -0.64220E+00   -0.64139E+00  6030   0.382E+00    0.513E+01
DAV:   6    -0.859368619726E+03    0.16436E+02   -0.21072E+01  5120   0.701E+00    0.334E+01
DAV:   7    -0.838306651868E+03    0.21062E+02   -0.30678E+01  4970   0.824E+00    0.202E+01
DAV:   8    -0.833612158574E+03    0.46945E+01   -0.23446E+01  5060   0.708E+00    0.795E+00
DAV:   9    -0.833520644091E+03    0.91514E-01   -0.10189E+00  5000   0.176E+00    0.319E+00
DAV:  10    -0.833425134456E+03    0.95510E-01   -0.36625E-01  4950   0.997E-01    0.842E-01
DAV:  11    -0.833414114965E+03    0.11019E-01   -0.64563E-02  4890   0.424E-01    0.259E-01
DAV:  12    -0.833413639491E+03    0.47547E-03   -0.65147E-03  5300   0.156E-01    0.130E-01
DAV:  13    -0.833413542656E+03    0.96835E-04   -0.14339E-03  5230   0.763E-02    0.699E-02
DAV:  14    -0.833413608632E+03   -0.65976E-04   -0.25882E-04  5100   0.318E-02    0.431E-02
DAV:  15    -0.833413642664E+03   -0.34032E-04   -0.55075E-05  4860   0.150E-02    0.178E-02
DAV:  16    -0.833413644422E+03   -0.17576E-05   -0.11225E-05  5080   0.669E-03    0.895E-03
DAV:  17    -0.833413643777E+03    0.64532E-06   -0.60350E-06  5100   0.510E-03
   1 F= -.84103867E+03 E0= -.84103867E+03  d E =-.841039E+03  mag=     0.0001
       N       E                     dE             d eps       ncg     rms          rms(c)
DAV:   1    -0.833413644960E+03   -0.53837E-06   -0.48683E-04  4610   0.269E-02    0.577E-03
DAV:   2    -0.833413645295E+03   -0.33509E-06   -0.90608E-06  3590   0.355E-03
   2 F= -.84103868E+03 E0= -.84103868E+03  d E =-.457281E-05  mag=    -0.0000
       N       E                     dE             d eps       ncg     rms          rms(c)
DAV:   1    -0.833413639614E+03    0.53467E-05   -0.11489E-03  4520   0.401E-02    0.976E-03
DAV:   2    -0.833413640040E+03   -0.42626E-06   -0.18805E-05  4120   0.493E-03    0.651E-03
DAV:   3    -0.833413639775E+03    0.26502E-06   -0.12586E-06  3590   0.162E-03
   3 F= -.84103868E+03 E0= -.84103868E+03  d E =-.854098E-06  mag=     0.0000
       N       E                     dE             d eps       ncg     rms          rms(c)
DAV:   1    -0.833413634243E+03    0.57966E-05   -0.10453E-03  4500   0.470E-02    0.775E-03
DAV:   2    -0.833413635085E+03   -0.84140E-06   -0.15687E-05  4450   0.559E-03    0.590E-03
DAV:   3    -0.833413634980E+03    0.10419E-06   -0.42620E-07  3340   0.126E-03
   4 F= -.84103868E+03 E0= -.84103868E+03  d E =-.309914E-05  mag=    -0.0000
       N       E                     dE             d eps       ncg     rms          rms(c)
DAV:   1    -0.833413632949E+03    0.21357E-05   -0.96515E-04  4400   0.530E-02    0.689E-03
DAV:   2    -0.833413633931E+03   -0.98212E-06   -0.14737E-05  4580   0.626E-03    0.598E-03
DAV:   3    -0.833413633732E+03    0.19938E-06   -0.52936E-07  3430   0.141E-03
   5 F= -.84103869E+03 E0= -.84103869E+03  d E =-.610731E-05  mag=     0.0000
       N       E                     dE             d eps       ncg     rms          rms(c)
DAV:   1    -0.833413632213E+03    0.17176E-05   -0.12326E-03  4380   0.628E-02    0.768E-03
DAV:   2    -0.833413633531E+03   -0.13177E-05   -0.19257E-05  4560   0.747E-03    0.672E-03
DAV:   3    -0.833413633290E+03    0.24097E-06   -0.69266E-07  3500   0.170E-03
   6 F= -.84103869E+03 E0= -.84103869E+03  d E =-.525069E-05  mag=    -0.0000
       N       E                     dE             d eps       ncg     rms          rms(c)
DAV:   1    -0.833413639072E+03   -0.55409E-05   -0.15301E-03  4380   0.719E-02    0.799E-03
DAV:   2    -0.833413640623E+03   -0.15507E-05   -0.22599E-05  4480   0.843E-03    0.696E-03
DAV:   3    -0.833413640367E+03    0.25566E-06   -0.70722E-07  3190   0.181E-03
   7 F= -.84103870E+03 E0= -.84103870E+03  d E =-.939683E-05  mag=     0.0000
       N       E                     dE             d eps       ncg     rms          rms(c)
DAV:   1    -0.833413659889E+03   -0.19266E-04   -0.23954E-03  4360   0.902E-02    0.994E-03
DAV:   2    -0.833413662390E+03   -0.25013E-05   -0.36314E-05  4460   0.107E-02    0.880E-03
DAV:   3    -0.833413661926E+03    0.46440E-06   -0.13377E-06  3830   0.237E-03
   8 F= -.84103872E+03 E0= -.84103872E+03  d E =-.186207E-04  mag=     0.0000
       N       E                     dE             d eps       ncg     rms          rms(c)
DAV:   1    -0.833413694468E+03   -0.32078E-04   -0.45058E-03  4340   0.118E-01    0.148E-02
DAV:   2    -0.833413699575E+03   -0.51066E-05   -0.73725E-05  4420   0.143E-02    0.124E-02
DAV:   3    -0.833413698869E+03    0.70657E-06   -0.21680E-06  3970   0.298E-03
   9 F= -.84103875E+03 E0= -.84103875E+03  d E =-.260427E-04  mag=     0.0000
       N       E                     dE             d eps       ncg     rms          rms(c)
DAV:   1    -0.833413744182E+03   -0.44607E-04   -0.11452E-02  4340   0.164E-01    0.245E-02
DAV:   2    -0.833413756837E+03   -0.12655E-04   -0.19796E-04  4400   0.196E-02    0.174E-02
DAV:   3    -0.833413755987E+03    0.84982E-06   -0.50763E-06  4140   0.406E-03
  10 F= -.84103878E+03 E0= -.84103878E+03  d E =-.384121E-04  mag=     0.0000
       N       E                     dE             d eps       ncg     rms          rms(c)
DAV:   1    -0.833413810267E+03   -0.53430E-04   -0.22829E-02  4330   0.215E-01    0.359E-02
DAV:   2    -0.833413832502E+03   -0.22235E-04   -0.40053E-04  4380   0.260E-02    0.250E-02
DAV:   3    -0.833413831913E+03    0.58905E-06   -0.96105E-06  4565   0.544E-03
  11 F= -.84103883E+03 E0= -.84103883E+03  d E =-.466367E-04  mag=     0.0000
       N       E                     dE             d eps       ncg     rms          rms(c)
DAV:   1    -0.833413911845E+03   -0.79343E-04   -0.27988E-02  4300   0.251E-01    0.394E-02
DAV:   2    -0.833413939110E+03   -0.27264E-04   -0.47825E-04  4380   0.302E-02    0.299E-02
DAV:   3    -0.833413938310E+03    0.79934E-06   -0.10796E-05  4665   0.610E-03    0.219E-02
DAV:   4    -0.833413950382E+03   -0.12072E-04   -0.22052E-05  4240   0.813E-03    0.578E-03
DAV:   5    -0.833413950090E+03    0.29227E-06   -0.38498E-06  3720   0.340E-03
  12 F= -.84103891E+03 E0= -.84103891E+03  d E =-.759104E-04  mag=    -0.0000
       N       E                     dE             d eps       ncg     rms          rms(c)
DAV:   1    -0.833413999303E+03   -0.48921E-04   -0.37175E-02  4310   0.297E-01    0.422E-02
DAV:   2    -0.833414044196E+03   -0.44893E-04   -0.68725E-04  4390   0.372E-02    0.318E-02
DAV:   3    -0.833414040140E+03    0.40556E-05   -0.15250E-05  4880   0.743E-03    0.237E-02
DAV:   4    -0.833414051307E+03   -0.11167E-04   -0.30891E-05  4280   0.101E-02    0.691E-03
DAV:   5    -0.833414051138E+03    0.16927E-06   -0.55230E-06  4280   0.421E-03
  13 F= -.84103897E+03 E0= -.84103897E+03  d E =-.617486E-04  mag=    -0.0000
       N       E                     dE             d eps       ncg     rms          rms(c)
DAV:   1    -0.833414071606E+03   -0.20299E-04   -0.77398E-04  4440   0.539E-02    0.662E-03
DAV:   2    -0.833414073013E+03   -0.14066E-05   -0.20134E-05  4880   0.785E-03    0.569E-03
DAV:   3    -0.833414072635E+03    0.37746E-06   -0.67380E-07  2960   0.176E-03
  14 F= -.84103899E+03 E0= -.84103899E+03  d E =-.207989E-04  mag=     0.0000
       N       E                     dE             d eps       ncg     rms          rms(c)
DAV:   1    -0.833414069871E+03    0.31419E-05   -0.12121E-03  4350   0.651E-02    0.914E-03
DAV:   2    -0.833414071787E+03   -0.19158E-05   -0.28146E-05  5000   0.898E-03    0.757E-03
DAV:   3    -0.833414071227E+03    0.55965E-06   -0.11355E-06  3660   0.219E-03
  15 F= -.84103898E+03 E0= -.84103898E+03  d E =0.431842E-05  mag=     0.0000
       N       E                     dE             d eps       ncg     rms          rms(c)
DAV:   1    -0.833414076558E+03   -0.47715E-05   -0.34062E-05  4320   0.117E-02    0.199E-03
DAV:   2    -0.833414076665E+03   -0.10696E-06   -0.14831E-06  2660   0.226E-03
  16 F= -.84103899E+03 E0= -.84103899E+03  d E =-.527517E-05  mag=    -0.0000
       N       E                     dE             d eps       ncg     rms          rms(c)
DAV:   1    -0.833414084316E+03   -0.77580E-05   -0.91005E-05  4480   0.189E-02    0.251E-03
DAV:   2    -0.833414084427E+03   -0.11071E-06   -0.21941E-06  3300   0.277E-03
  17 F= -.84103900E+03 E0= -.84103900E+03  d E =-.741594E-05  mag=    -0.0000
       N       E                     dE             d eps       ncg     rms          rms(c)
DAV:   1    -0.833414089875E+03   -0.55592E-05   -0.14487E-04  4460   0.238E-02    0.406E-03
DAV:   2    -0.833414089984E+03   -0.10885E-06   -0.33235E-06  4070   0.342E-03
  18 F= -.84103900E+03 E0= -.84103900E+03  d E =-.493184E-05  mag=    -0.0000
       N       E                     dE             d eps       ncg     rms          rms(c)
DAV:   1    -0.833414092228E+03   -0.23525E-05   -0.13049E-04  4450   0.221E-02    0.452E-03
DAV:   2    -0.833414092280E+03   -0.51550E-07   -0.26478E-06  3740   0.301E-03
  19 F= -.84103900E+03 E0= -.84103900E+03  d E =-.118643E-05  mag=    -0.0000
       N       E                     dE             d eps       ncg     rms          rms(c)
DAV:   1    -0.833414092684E+03   -0.45569E-06   -0.13881E-06  2960   0.245E-03    0.192E-03
DAV:   2    -0.833414092689E+03   -0.51223E-08   -0.17396E-07  2240   0.836E-04
  20 F= -.84103900E+03 E0= -.84103900E+03  d E =-.310716E-06  mag=     0.0000
       N       E                     dE             d eps       ncg     rms          rms(c)
DAV:   1    -0.833414093744E+03   -0.10605E-05   -0.25431E-06  3380   0.306E-03    0.618E-04
DAV:   2    -0.833414093753E+03   -0.84401E-08   -0.92116E-08  2240   0.601E-04
  21 F= -.84103900E+03 E0= -.84103900E+03  d E =-.862380E-06  mag=     0.0000
       N       E                     dE             d eps       ncg     rms          rms(c)
DAV:   1    -0.833414095227E+03   -0.14832E-05   -0.48732E-06  3900   0.416E-03    0.682E-04
DAV:   2    -0.833414095235E+03   -0.77416E-08   -0.12376E-07  2300   0.669E-04
  22 F= -.84103901E+03 E0= -.84103901E+03  d E =-.117078E-05  mag=     0.0000
       N       E                     dE             d eps       ncg     rms          rms(c)
DAV:   1    -0.833414096997E+03   -0.17696E-05   -0.78021E-06  4080   0.518E-03    0.935E-04
DAV:   2    -0.833414097007E+03   -0.10179E-07   -0.18258E-07  2320   0.782E-04
  23 F= -.84103901E+03 E0= -.84103901E+03  d E =-.135114E-05  mag=     0.0000
       N       E                     dE             d eps       ncg     rms          rms(c)
DAV:   1    -0.833414098926E+03   -0.19290E-05   -0.10854E-05  4080   0.601E-03    0.115E-03
DAV:   2    -0.833414098938E+03   -0.12413E-07   -0.24416E-07  2340   0.889E-04
  24 F= -.84103901E+03 E0= -.84103901E+03  d E =-.140309E-05  mag=     0.0000
       N       E                     dE             d eps       ncg     rms          rms(c)
DAV:   1    -0.833414100906E+03   -0.19801E-05   -0.13570E-05  4110   0.657E-03    0.131E-03
DAV:   2    -0.833414100923E+03   -0.16465E-07   -0.29746E-07  2400   0.957E-04
  25 F= -.84103901E+03 E0= -.84103901E+03  d E =-.138367E-05  mag=     0.0000
       N       E                     dE             d eps       ncg     rms          rms(c)
DAV:   1    -0.833414103287E+03   -0.23812E-05   -0.19204E-05  4115   0.753E-03    0.152E-03
DAV:   2    -0.833414103311E+03   -0.23567E-07   -0.39835E-07  2485   0.106E-03
  26 F= -.84103901E+03 E0= -.84103901E+03  d E =-.157829E-05  mag=     0.0000
       N       E                     dE             d eps       ncg     rms          rms(c)
DAV:   1    -0.833414106011E+03   -0.27241E-05   -0.26004E-05  4075   0.835E-03    0.177E-03
DAV:   2    -0.833414106042E+03   -0.30748E-07   -0.50894E-07  2670   0.115E-03
  27 F= -.84103901E+03 E0= -.84103901E+03  d E =-.169809E-05  mag=     0.0000
       N       E                     dE             d eps       ncg     rms          rms(c)
DAV:   1    -0.833414109371E+03   -0.33595E-05   -0.34182E-05  4115   0.904E-03    0.201E-03
DAV:   2    -0.833414109407E+03   -0.36416E-07   -0.60563E-07  2745   0.119E-03
  28 F= -.84103902E+03 E0= -.84103902E+03  d E =-.210249E-05  mag=     0.0000
       N       E                     dE             d eps       ncg     rms          rms(c)
DAV:   1    -0.833414113743E+03   -0.43721E-05   -0.47399E-05  4195   0.104E-02    0.231E-03
DAV:   2    -0.833414113786E+03   -0.42528E-07   -0.79753E-07  2930   0.130E-03
  29 F= -.84103902E+03 E0= -.84103902E+03  d E =-.286519E-05  mag=     0.0000
       N       E                     dE             d eps       ncg     rms          rms(c)
DAV:   1    -0.833414119286E+03   -0.55428E-05   -0.69448E-05  4275   0.129E-02    0.276E-03
DAV:   2    -0.833414119345E+03   -0.58921E-07   -0.11590E-06  3000   0.157E-03
  30 F= -.84103902E+03 E0= -.84103902E+03  d E =-.377403E-05  mag=     0.0000
       N       E                     dE             d eps       ncg     rms          rms(c)
DAV:   1    -0.833414125890E+03   -0.66045E-05   -0.10418E-04  4260   0.162E-02    0.339E-03
DAV:   2    -0.833414125974E+03   -0.84197E-07   -0.17627E-06  3000   0.199E-03
  31 F= -.84103903E+03 E0= -.84103903E+03  d E =-.447011E-05  mag=     0.0000
       N       E                     dE             d eps       ncg     rms          rms(c)
DAV:   1    -0.833414133529E+03   -0.76384E-05   -0.15255E-04  4260   0.197E-02    0.413E-03
DAV:   2    -0.833414133643E+03   -0.11465E-06   -0.25485E-06  3000   0.242E-03
  32 F= -.84103903E+03 E0= -.84103903E+03  d E =-.501457E-05  mag=     0.0000
       N       E                     dE             d eps       ncg     rms          rms(c)
DAV:   1    -0.833414142548E+03   -0.90198E-05   -0.21774E-04  4260   0.233E-02    0.492E-03
DAV:   2    -0.833414142713E+03   -0.16472E-06   -0.35539E-06  3180   0.283E-03
  33 F= -.84103904E+03 E0= -.84103904E+03  d E =-.602186E-05  mag=     0.0000
       N       E                     dE             d eps       ncg     rms          rms(c)
DAV:   1    -0.833414152949E+03   -0.10401E-04   -0.31498E-04  4280   0.280E-02    0.584E-03
DAV:   2    -0.833414153165E+03   -0.21594E-06   -0.50994E-06  3430   0.335E-03
  34 F= -.84103904E+03 E0= -.84103904E+03  d E =-.677698E-05  mag=     0.0000
       N       E                     dE             d eps       ncg     rms          rms(c)
DAV:   1    -0.833414165620E+03   -0.12670E-04   -0.46667E-04  4280   0.337E-02    0.698E-03
DAV:   2    -0.833414165915E+03   -0.29503E-06   -0.74402E-06  3700   0.402E-03
  35 F= -.84103905E+03 E0= -.84103905E+03  d E =-.819292E-05  mag=     0.0000
       N       E                     dE             d eps       ncg     rms          rms(c)
DAV:   1    -0.833414180090E+03   -0.14471E-04   -0.68311E-04  4260   0.411E-02    0.833E-03
DAV:   2    -0.833414180511E+03   -0.42115E-06   -0.10853E-05  3980   0.491E-03    0.657E-03
DAV:   3    -0.833414180633E+03   -0.12108E-06   -0.50479E-07  2900   0.149E-03
  36 F= -.84103906E+03 E0= -.84103906E+03  d E =-.963515E-05  mag=     0.0000
       N       E                     dE             d eps       ncg     rms          rms(c)
DAV:   1    -0.833414196268E+03   -0.15757E-04   -0.97012E-04  4280   0.490E-02    0.673E-03
DAV:   2    -0.833414197404E+03   -0.11356E-05   -0.15356E-05  4320   0.576E-03    0.504E-03
DAV:   3    -0.833414197381E+03    0.23072E-07   -0.32437E-07  3140   0.114E-03
  37 F= -.84103907E+03 E0= -.84103907E+03  d E =-.113132E-04  mag=     0.0000
       N       E                     dE             d eps       ncg     rms          rms(c)
DAV:   1    -0.833414213990E+03   -0.16586E-04   -0.13779E-03  4260   0.585E-02    0.780E-03
DAV:   2    -0.833414215563E+03   -0.15727E-05   -0.21805E-05  4360   0.689E-03    0.590E-03
DAV:   3    -0.833414215493E+03    0.69966E-07   -0.48561E-07  3230   0.137E-03
  38 F= -.84103909E+03 E0= -.84103909E+03  d E =-.125278E-04  mag=     0.0000
       N       E                     dE             d eps       ncg     rms          rms(c)
DAV:   1    -0.833414233435E+03   -0.17872E-04   -0.18759E-03  4260   0.692E-02    0.903E-03
DAV:   2    -0.833414235550E+03   -0.21152E-05   -0.29382E-05  4400   0.812E-03    0.696E-03
DAV:   3    -0.833414235426E+03    0.12368E-06   -0.65569E-07  3480   0.161E-03
  39 F= -.84103910E+03 E0= -.84103910E+03  d E =-.141653E-04  mag=     0.0000
       N       E                     dE             d eps       ncg     rms          rms(c)
DAV:   1    -0.833414254340E+03   -0.18790E-04   -0.26946E-03  4260   0.829E-02    0.106E-02
DAV:   2    -0.833414257366E+03   -0.30263E-05   -0.41478E-05  4380   0.969E-03    0.825E-03
DAV:   3    -0.833414257156E+03    0.21025E-06   -0.93505E-07  3540   0.190E-03
  40 F= -.84103912E+03 E0= -.84103912E+03  d E =-.152871E-04  mag=     0.0000
       N       E                     dE             d eps       ncg     rms          rms(c)
DAV:   1    -0.833414277508E+03   -0.20141E-04   -0.38075E-03  4240   0.988E-02    0.122E-02
DAV:   2    -0.833414281772E+03   -0.42646E-05   -0.57499E-05  4360   0.115E-02    0.970E-03
DAV:   3    -0.833414281450E+03    0.32192E-06   -0.13208E-06  3700   0.225E-03
  41 F= -.84103913E+03 E0= -.84103913E+03  d E =-.175260E-04  mag=     0.0000
       N       E                     dE             d eps       ncg     rms          rms(c)
DAV:   1    -0.833414300939E+03   -0.19167E-04   -0.57850E-03  4240   0.121E-01    0.148E-02
DAV:   2    -0.833414307515E+03   -0.65762E-05   -0.87954E-05  4380   0.141E-02    0.117E-02
DAV:   3    -0.833414307006E+03    0.50954E-06   -0.21097E-06  3920   0.281E-03
  42 F= -.84103915E+03 E0= -.84103915E+03  d E =-.187616E-04  mag=     0.0000
       N       E                     dE             d eps       ncg     rms          rms(c)
DAV:   1    -0.833414324955E+03   -0.17440E-04   -0.82777E-03  4240   0.143E-01    0.179E-02
DAV:   2    -0.833414334163E+03   -0.92086E-05   -0.12595E-04  4380   0.169E-02    0.141E-02
DAV:   3    -0.833414333386E+03    0.77689E-06   -0.32346E-06  4040   0.344E-03
  43 F= -.84103917E+03 E0= -.84103917E+03  d E =-.204611E-04  mag=     0.0000
       N       E                     dE             d eps       ncg     rms          rms(c)
DAV:   1    -0.833414353471E+03   -0.19307E-04   -0.11126E-02  4240   0.170E-01    0.210E-02
DAV:   2    -0.833414365856E+03   -0.12385E-04   -0.17048E-04  4380   0.201E-02    0.168E-02
DAV:   3    -0.833414364679E+03    0.11765E-05   -0.45272E-06  4360   0.416E-03    0.124E-02
DAV:   4    -0.833414365858E+03   -0.11788E-05   -0.66775E-06  4040   0.518E-03    0.297E-03
DAV:   5    -0.833414365968E+03   -0.11019E-06   -0.15217E-06  3330   0.219E-03
  44 F= -.84103920E+03 E0= -.84103920E+03  d E =-.268038E-04  mag=    -0.0000
       N       E                     dE             d eps       ncg     rms          rms(c)
DAV:   1    -0.833414383833E+03   -0.17975E-04   -0.14707E-02  4260   0.198E-01    0.223E-02
DAV:   2    -0.833414402147E+03   -0.18314E-04   -0.24192E-04  4360   0.243E-02    0.182E-02
DAV:   3    -0.833414400100E+03    0.20476E-05   -0.60879E-06  4560   0.482E-03    0.139E-02
DAV:   4    -0.833414400606E+03   -0.50631E-06   -0.10596E-05  4180   0.653E-03    0.340E-03
DAV:   5    -0.833414400650E+03   -0.44543E-07   -0.22825E-06  3550   0.272E-03
  45 F= -.84103923E+03 E0= -.84103923E+03  d E =-.290021E-04  mag=    -0.0000
       N       E                     dE             d eps       ncg     rms          rms(c)
DAV:   1    -0.833414414670E+03   -0.14065E-04   -0.20508E-02  4260   0.236E-01    0.266E-02
DAV:   2    -0.833414440711E+03   -0.26040E-04   -0.34249E-04  4360   0.291E-02    0.217E-02
DAV:   3    -0.833414437755E+03    0.29555E-05   -0.88238E-06  4890   0.578E-03    0.165E-02
DAV:   4    -0.833414438056E+03   -0.30053E-06   -0.13486E-05  4180   0.746E-03    0.421E-03
DAV:   5    -0.833414438274E+03   -0.21829E-06   -0.30969E-06  3640   0.307E-03
  46 F= -.84103926E+03 E0= -.84103926E+03  d E =-.313243E-04  mag=    -0.0000
       N       E                     dE             d eps       ncg     rms          rms(c)
DAV:   1    -0.833414436029E+03    0.20271E-05   -0.26919E-02  4260   0.280E-01    0.311E-02
DAV:   2    -0.833414470641E+03   -0.34612E-04   -0.46126E-04  4360   0.351E-02    0.257E-02
DAV:   3    -0.833414466364E+03    0.42772E-05   -0.14253E-05  5320   0.729E-03    0.194E-02
DAV:   4    -0.833414465947E+03    0.41736E-06   -0.15559E-05  4280   0.839E-03    0.598E-03
DAV:   5    -0.833414466475E+03   -0.52852E-06   -0.41882E-06  3820   0.360E-03
  47 F= -.84103928E+03 E0= -.84103928E+03  d E =-.198747E-04  mag=    -0.0000
       N       E                     dE             d eps       ncg     rms          rms(c)
DAV:   1    -0.833414484288E+03   -0.18341E-04   -0.84493E-04  4260   0.591E-02    0.683E-03
DAV:   2    -0.833414485571E+03   -0.12834E-05   -0.20865E-05  5320   0.862E-03    0.598E-03
DAV:   3    -0.833414485068E+03    0.50341E-06   -0.10215E-06  2560   0.216E-03
  48 F= -.84103930E+03 E0= -.84103930E+03  d E =-.204922E-04  mag=    -0.0000
       N       E                     dE             d eps       ncg     rms          rms(c)
DAV:   1    -0.833414469813E+03    0.15758E-04   -0.12039E-03  4250   0.698E-02    0.901E-03
DAV:   2    -0.833414471558E+03   -0.17457E-05   -0.26758E-05  5440   0.963E-03    0.778E-03
DAV:   3    -0.833414470870E+03    0.68854E-06   -0.12098E-06  2950   0.241E-03
  49 F= -.84103929E+03 E0= -.84103929E+03  d E =0.113570E-04  mag=    -0.0000
       N       E                     dE             d eps       ncg     rms          rms(c)
DAV:   1    -0.833414476588E+03   -0.50292E-05   -0.43931E-05  4260   0.136E-02    0.224E-03
DAV:   2    -0.833414476662E+03   -0.73844E-07   -0.19380E-06  2720   0.269E-03
  50 F= -.84103929E+03 E0= -.84103929E+03  d E =-.557313E-05  mag=    -0.0000
       N       E                     dE             d eps       ncg     rms          rms(c)
DAV:   1    -0.833414484105E+03   -0.75173E-05   -0.11222E-04  4360   0.217E-02    0.283E-03
DAV:   2    -0.833414484197E+03   -0.91852E-07   -0.25328E-06  3530   0.313E-03
  51 F= -.84103930E+03 E0= -.84103930E+03  d E =-.712404E-05  mag=     0.0000
       N       E                     dE             d eps       ncg     rms          rms(c)
DAV:   1    -0.833414487569E+03   -0.34645E-05   -0.16888E-04  4300   0.266E-02    0.426E-03
DAV:   2    -0.833414487699E+03   -0.12985E-06   -0.37640E-06  4800   0.377E-03
  52 F= -.84103930E+03 E0= -.84103930E+03  d E =-.293103E-05  mag=    -0.0000
       N       E                     dE             d eps       ncg     rms          rms(c)
DAV:   1    -0.833414486487E+03    0.10827E-05   -0.14044E-04  4260   0.242E-02    0.450E-03
DAV:   2    -0.833414486549E+03   -0.62566E-07   -0.26944E-06  3780   0.325E-03
  53 F= -.84103930E+03 E0= -.84103930E+03  d E =0.172112E-05  mag=     0.0000
       N       E                     dE             d eps       ncg     rms          rms(c)
DAV:   1    -0.833414486755E+03   -0.26839E-06   -0.16177E-06  2630   0.276E-03    0.164E-03
DAV:   2    -0.833414486770E+03   -0.15272E-07   -0.23511E-07  2150   0.989E-04
  54 F= -.84103930E+03 E0= -.84103930E+03  d E =-.237515E-06  mag=    -0.0000
       N       E                     dE             d eps       ncg     rms          rms(c)
DAV:   1    -0.833414487519E+03   -0.76383E-06   -0.23325E-06  3030   0.311E-03    0.552E-04
DAV:   2    -0.833414487528E+03   -0.86002E-08   -0.79926E-08  2150   0.581E-04
  55 F= -.84103930E+03 E0= -.84103930E+03  d E =-.779334E-06  mag=    -0.0000
       N       E                     dE             d eps       ncg     rms          rms(c)
DAV:   1    -0.833414488543E+03   -0.10243E-05   -0.45311E-06  3830   0.436E-03    0.559E-04
DAV:   2    -0.833414488553E+03   -0.93860E-08   -0.11877E-07  2150   0.702E-04
  56 F= -.84103930E+03 E0= -.84103930E+03  d E =-.102889E-05  mag=    -0.0000
       N       E                     dE             d eps       ncg     rms          rms(c)
DAV:   1    -0.833414489730E+03   -0.11869E-05   -0.72445E-06  3960   0.550E-03    0.866E-04
DAV:   2    -0.833414489740E+03   -0.95970E-08   -0.17842E-07  2150   0.858E-04
  57 F= -.84103931E+03 E0= -.84103931E+03  d E =-.114440E-05  mag=     0.0000
       N       E                     dE             d eps       ncg     rms          rms(c)
DAV:   1    -0.833414490983E+03   -0.12531E-05   -0.97854E-06  4100   0.636E-03    0.104E-03
DAV:   2    -0.833414490996E+03   -0.12740E-07   -0.22130E-07  2150   0.948E-04
  58 F= -.84103931E+03 E0= -.84103931E+03  d E =-.113487E-05  mag=    -0.0000
       N       E                     dE             d eps       ncg     rms          rms(c)
DAV:   1    -0.833414492139E+03   -0.11559E-05   -0.11991E-05  4160   0.696E-03    0.116E-03
DAV:   2    -0.833414492156E+03   -0.17200E-07   -0.25369E-07  2150   0.100E-03
  59 F= -.84103931E+03 E0= -.84103931E+03  d E =-.912696E-06  mag=     0.0000
       N       E                     dE             d eps       ncg     rms          rms(c)
DAV:   1    -0.833414493551E+03   -0.14119E-05   -0.16373E-05  4160   0.790E-03    0.132E-03
DAV:   2    -0.833414493577E+03   -0.26004E-07   -0.34004E-07  2240   0.111E-03
  60 F= -.84103931E+03 E0= -.84103931E+03  d E =-.948730E-06  mag=    -0.0000
       N       E                     dE             d eps       ncg     rms          rms(c)
DAV:   1    -0.833414495342E+03   -0.17913E-05   -0.21751E-05  4180   0.863E-03    0.154E-03
DAV:   2    -0.833414495370E+03   -0.27489E-07   -0.41676E-07  2460   0.117E-03
  61 F= -.84103931E+03 E0= -.84103931E+03  d E =-.102155E-05  mag=     0.0000
       N       E                     dE             d eps       ncg     rms          rms(c)
DAV:   1    -0.833414497892E+03   -0.25499E-05   -0.30791E-05  4100   0.943E-03    0.181E-03
DAV:   2    -0.833414497926E+03   -0.33710E-07   -0.55870E-07  2560   0.125E-03
  62 F= -.84103931E+03 E0= -.84103931E+03  d E =-.139848E-05  mag=    -0.0000
       N       E                     dE             d eps       ncg     rms          rms(c)
DAV:   1    -0.833414501734E+03   -0.38417E-05   -0.49126E-05  4180   0.109E-02    0.224E-03
DAV:   2    -0.833414501780E+03   -0.46406E-07   -0.83347E-07  2850   0.136E-03
  63 F= -.84103931E+03 E0= -.84103931E+03  d E =-.215224E-05  mag=     0.0000
       N       E                     dE             d eps       ncg     rms          rms(c)
DAV:   1    -0.833414507368E+03   -0.56337E-05   -0.86145E-05  4250   0.137E-02    0.295E-03
DAV:   2    -0.833414507444E+03   -0.76783E-07   -0.14509E-06  2980   0.165E-03
  64 F= -.84103932E+03 E0= -.84103932E+03  d E =-.323099E-05  mag=    -0.0000
       N       E                     dE             d eps       ncg     rms          rms(c)
DAV:   1    -0.833414514932E+03   -0.75640E-05   -0.15556E-04  4250   0.180E-02    0.402E-03
DAV:   2    -0.833414515024E+03   -0.92434E-07   -0.26417E-06  2980   0.220E-03
  65 F= -.84103932E+03 E0= -.84103932E+03  d E =-.427448E-05  mag=     0.0000
       N       E                     dE             d eps       ncg     rms          rms(c)
DAV:   1    -0.833414524774E+03   -0.98424E-05   -0.27445E-04  4260   0.232E-02    0.542E-03
DAV:   2    -0.833414524893E+03   -0.11937E-06   -0.47311E-06  3080   0.287E-03
  66 F= -.84103933E+03 E0= -.84103933E+03  d E =-.547081E-05  mag=    -0.0000
       N       E                     dE             d eps       ncg     rms          rms(c)
DAV:   1    -0.833414536843E+03   -0.12069E-04   -0.46804E-04  4260   0.292E-02    0.720E-03
DAV:   2    -0.833414537054E+03   -0.21049E-06   -0.80024E-06  3320   0.356E-03
  67 F= -.84103933E+03 E0= -.84103933E+03  d E =-.640589E-05  mag=    -0.0000
       N       E                     dE             d eps       ncg     rms          rms(c)
DAV:   1    -0.833414552189E+03   -0.15346E-04   -0.77789E-04  4310   0.359E-02    0.937E-03
DAV:   2    -0.833414552423E+03   -0.23349E-06   -0.12926E-05  3620   0.427E-03    0.703E-03
DAV:   3    -0.833414552845E+03   -0.42245E-06   -0.47611E-07  3000   0.131E-03
  68 F= -.84103934E+03 E0= -.84103934E+03  d E =-.833901E-05  mag=    -0.0000
       N       E                     dE             d eps       ncg     rms          rms(c)
DAV:   1    -0.833414572336E+03   -0.19914E-04   -0.12301E-03  4260   0.428E-02    0.851E-03
DAV:   2    -0.833414573612E+03   -0.12753E-05   -0.20335E-05  3860   0.501E-03    0.576E-03
DAV:   3    -0.833414573702E+03   -0.90178E-07   -0.37171E-07  3230   0.106E-03
  69 F= -.84103935E+03 E0= -.84103935E+03  d E =-.109701E-04  mag=     0.0000
       N       E                     dE             d eps       ncg     rms          rms(c)
DAV:   1    -0.833414597795E+03   -0.24183E-04   -0.18645E-03  4260   0.525E-02    0.103E-02
DAV:   2    -0.833414599709E+03   -0.19139E-05   -0.30938E-05  4260   0.621E-03    0.702E-03
DAV:   3    -0.833414599781E+03   -0.72527E-07   -0.49599E-07  3270   0.117E-03
  70 F= -.84103937E+03 E0= -.84103937E+03  d E =-.137124E-04  mag=     0.0000
       N       E                     dE             d eps       ncg     rms          rms(c)
DAV:   1    -0.833414628574E+03   -0.28866E-04   -0.26919E-03  4260   0.644E-02    0.124E-02
DAV:   2    -0.833414631209E+03   -0.26351E-05   -0.44297E-05  4350   0.758E-03    0.851E-03
DAV:   3    -0.833414631311E+03   -0.10118E-06   -0.72755E-07  3340   0.144E-03
  71 F= -.84103938E+03 E0= -.84103938E+03  d E =-.164922E-04  mag=     0.0000
       N       E                     dE             d eps       ncg     rms          rms(c)
DAV:   1    -0.833414664333E+03   -0.33124E-04   -0.35818E-03  4260   0.770E-02    0.143E-02
DAV:   2    -0.833414667792E+03   -0.34591E-05   -0.58737E-05  4365   0.903E-03    0.982E-03
DAV:   3    -0.833414667903E+03   -0.11092E-06   -0.99118E-07  3320   0.173E-03
  72 F= -.84103940E+03 E0= -.84103940E+03  d E =-.195620E-04  mag=     0.0000
       N       E                     dE             d eps       ncg     rms          rms(c)
DAV:   1    -0.833414701443E+03   -0.33651E-04   -0.42030E-03  4260   0.915E-02    0.153E-02
DAV:   2    -0.833414705693E+03   -0.42494E-05   -0.70552E-05  4390   0.109E-02    0.107E-02
DAV:   3    -0.833414705714E+03   -0.21602E-07   -0.13292E-06  3460   0.215E-03
  73 F= -.84103942E+03 E0= -.84103942E+03  d E =-.209659E-04  mag=     0.0000
       N       E                     dE             d eps       ncg     rms          rms(c)
DAV:   1    -0.833414707167E+03   -0.14745E-05   -0.61627E-06  3780   0.442E-03    0.160E-03
DAV:   2    -0.833414707171E+03   -0.40745E-08   -0.48195E-07  3120   0.124E-03
  74 F= -.84103942E+03 E0= -.84103942E+03  d E =-.181128E-05  mag=    -0.0000
       N       E                     dE             d eps       ncg     rms          rms(c)
DAV:   1    -0.833414706816E+03    0.35143E-06   -0.12754E-05  4040   0.691E-03    0.971E-04
DAV:   2    -0.833414706831E+03   -0.15563E-07   -0.26762E-07  2300   0.101E-03
  75 F= -.84103942E+03 E0= -.84103942E+03  d E =-.390047E-06  mag=    -0.0000
       N       E                     dE             d eps       ncg     rms          rms(c)
DAV:   1    -0.833414706048E+03    0.76791E-06   -0.23687E-05  4180   0.912E-03    0.137E-03
DAV:   2    -0.833414706060E+03   -0.11823E-07   -0.43228E-07  2450   0.121E-03
  76 F= -.84103943E+03 E0= -.84103942E+03  d E =-.220075E-06  mag=    -0.0000
       N       E                     dE             d eps       ncg     rms          rms(c)
DAV:   1    -0.833414704816E+03    0.12316E-05   -0.35262E-05  4220   0.108E-02    0.181E-03
DAV:   2    -0.833414704821E+03   -0.49549E-08   -0.57401E-07  2540   0.135E-03
  77 F= -.84103943E+03 E0= -.84103942E+03  d E =-.272327E-07  mag=    -0.0000
       N       E                     dE             d eps       ncg     rms          rms(c)
DAV:   1    -0.833414703439E+03    0.13777E-05   -0.46573E-05  4240   0.122E-02    0.208E-03
DAV:   2    -0.833414703451E+03   -0.12282E-07   -0.71920E-07  2730   0.147E-03
  78 F= -.84103943E+03 E0= -.84103942E+03  d E =-.978288E-07  mag=     0.0000
       N       E                     dE             d eps       ncg     rms          rms(c)
DAV:   1    -0.833414702183E+03    0.12558E-05   -0.61064E-05  4240   0.140E-02    0.238E-03
DAV:   2    -0.833414702202E+03   -0.19128E-07   -0.92652E-07  2900   0.168E-03
  79 F= -.84103943E+03 E0= -.84103942E+03  d E =-.357910E-06  mag=    -0.0000
       N       E                     dE             d eps       ncg     rms          rms(c)
DAV:   1    -0.833414700870E+03    0.13124E-05   -0.96433E-05  4260   0.178E-02    0.290E-03
DAV:   2    -0.833414700910E+03   -0.39530E-07   -0.14612E-06  2980   0.214E-03
  80 F= -.84103943E+03 E0= -.84103943E+03  d E =-.506633E-06  mag=    -0.0000
       N       E                     dE             d eps       ncg     rms          rms(c)
DAV:   1    -0.833414699472E+03    0.13981E-05   -0.14637E-04  4240   0.221E-02    0.358E-03
DAV:   2    -0.833414699543E+03   -0.70846E-07   -0.22816E-06  3200   0.266E-03
  81 F= -.84103943E+03 E0= -.84103943E+03  d E =-.633403E-06  mag=     0.0000
       N       E                     dE             d eps       ncg     rms          rms(c)
DAV:   1    -0.833414697883E+03    0.15897E-05   -0.21118E-04  4280   0.269E-02    0.434E-03
DAV:   2    -0.833414697964E+03   -0.81876E-07   -0.30888E-06  3560   0.317E-03
  82 F= -.84103943E+03 E0= -.84103943E+03  d E =-.722001E-06  mag=     0.0000
       N       E                     dE             d eps       ncg     rms          rms(c)
DAV:   1    -0.833414696851E+03    0.10317E-05   -0.30280E-04  4280   0.326E-02    0.506E-03
DAV:   2    -0.833414696980E+03   -0.12865E-06   -0.43315E-06  3760   0.383E-03
  83 F= -.84103943E+03 E0= -.84103943E+03  d E =-.155637E-05  mag=    -0.0000
       N       E                     dE             d eps       ncg     rms          rms(c)
DAV:   1    -0.833414696666E+03    0.18477E-06   -0.44482E-04  4240   0.400E-02    0.594E-03
DAV:   2    -0.833414696912E+03   -0.24609E-06   -0.66373E-06  4280   0.474E-03
  84 F= -.84103943E+03 E0= -.84103943E+03  d E =-.240767E-05  mag=     0.0000
       N       E                     dE             d eps       ncg     rms          rms(c)
DAV:   1    -0.833414697530E+03   -0.86407E-06   -0.62867E-04  4240   0.477E-02    0.707E-03
DAV:   2    -0.833414697877E+03   -0.34632E-06   -0.93779E-06  4540   0.569E-03
  85 F= -.84103943E+03 E0= -.84103943E+03  d E =-.350267E-05  mag=    -0.0000
       N       E                     dE             d eps       ncg     rms          rms(c)
DAV:   1    -0.833414700891E+03   -0.33607E-05   -0.89043E-04  4240   0.571E-02    0.822E-03
DAV:   2    -0.833414701416E+03   -0.52469E-06   -0.13097E-05  4480   0.678E-03    0.711E-03
DAV:   3    -0.833414701225E+03    0.19043E-06   -0.99593E-07  2960   0.236E-03
  86 F= -.84103944E+03 E0= -.84103944E+03  d E =-.488040E-05  mag=    -0.0000
       N       E                     dE             d eps       ncg     rms          rms(c)
DAV:   1    -0.833414706110E+03   -0.46945E-05   -0.12479E-03  4280   0.674E-02    0.697E-03
DAV:   2    -0.833414707327E+03   -0.12173E-05   -0.18173E-05  4430   0.794E-03    0.624E-03
DAV:   3    -0.833414707117E+03    0.21062E-06   -0.59590E-07  3260   0.176E-03
  87 F= -.84103945E+03 E0= -.84103945E+03  d E =-.689656E-05  mag=     0.0000
       N       E                     dE             d eps       ncg     rms          rms(c)
DAV:   1    -0.833414715066E+03   -0.77381E-05   -0.18196E-03  4260   0.815E-02    0.836E-03
DAV:   2    -0.833414716845E+03   -0.17796E-05   -0.26756E-05  4490   0.957E-03    0.745E-03
DAV:   3    -0.833414716494E+03    0.35124E-06   -0.91170E-07  3400   0.214E-03
  88 F= -.84103946E+03 E0= -.84103946E+03  d E =-.942365E-05  mag=     0.0000
       N       E                     dE             d eps       ncg     rms          rms(c)
DAV:   1    -0.833414727119E+03   -0.10274E-04   -0.27180E-03  4280   0.989E-02    0.104E-02
DAV:   2    -0.833414729757E+03   -0.26375E-05   -0.39998E-05  4415   0.116E-02    0.913E-03
DAV:   3    -0.833414729249E+03    0.50821E-06   -0.13624E-06  3860   0.258E-03
  89 F= -.84103947E+03 E0= -.84103947E+03  d E =-.118983E-04  mag=     0.0000
       N       E                     dE             d eps       ncg     rms          rms(c)
DAV:   1    -0.833414740967E+03   -0.11210E-04   -0.41013E-03  4280   0.121E-01    0.129E-02
DAV:   2    -0.833414745063E+03   -0.40955E-05   -0.61454E-05  4370   0.142E-02    0.112E-02
DAV:   3    -0.833414744301E+03    0.76197E-06   -0.20707E-06  4160   0.311E-03
  90 F= -.84103948E+03 E0= -.84103948E+03  d E =-.138630E-04  mag=     0.0000
       N       E                     dE             d eps       ncg     rms          rms(c)
DAV:   1    -0.833414761547E+03   -0.16484E-04   -0.59158E-03  4280   0.145E-01    0.156E-02
DAV:   2    -0.833414767431E+03   -0.58840E-05   -0.89021E-05  4370   0.172E-02    0.136E-02
DAV:   3    -0.833414766321E+03    0.11098E-05   -0.33178E-06  4580   0.386E-03    0.941E-03
DAV:   4    -0.833414766749E+03   -0.42741E-06   -0.35114E-06  3890   0.408E-03
  91 F= -.84103950E+03 E0= -.84103950E+03  d E =-.190843E-04  mag=    -0.0000
       N       E                     dE             d eps       ncg     rms          rms(c)
DAV:   1    -0.833414785541E+03   -0.19219E-04   -0.81235E-03  4320   0.170E-01    0.176E-02
DAV:   2    -0.833414793952E+03   -0.84113E-05   -0.12658E-04  4350   0.206E-02    0.152E-02
DAV:   3    -0.833414792211E+03    0.17406E-05   -0.43782E-06  4780   0.445E-03    0.108E-02
DAV:   4    -0.833414792476E+03   -0.26453E-06   -0.50809E-06  4060   0.491E-03
  92 F= -.84103952E+03 E0= -.84103952E+03  d E =-.218875E-04  mag=    -0.0000
       N       E                     dE             d eps       ncg     rms          rms(c)
DAV:   1    -0.833414807090E+03   -0.14879E-04   -0.11633E-02  4320   0.203E-01    0.211E-02
DAV:   2    -0.833414819843E+03   -0.12753E-04   -0.18901E-04  4340   0.249E-02    0.183E-02
DAV:   3    -0.833414817202E+03    0.26408E-05   -0.65378E-06  5160   0.533E-03    0.133E-02
DAV:   4    -0.833414817124E+03    0.78857E-07   -0.76185E-06  4160   0.599E-03
  93 F= -.84103954E+03 E0= -.84103954E+03  d E =-.217920E-04  mag=    -0.0000
       N       E                     dE             d eps       ncg     rms          rms(c)
DAV:   1    -0.833414824013E+03   -0.68104E-05   -0.16747E-04  4340   0.264E-02    0.350E-03
DAV:   2    -0.833414824277E+03   -0.26436E-06   -0.45130E-06  4640   0.403E-03
  94 F= -.84103955E+03 E0= -.84103955E+03  d E =-.654020E-05  mag=    -0.0000
       N       E                     dE             d eps       ncg     rms          rms(c)
DAV:   1    -0.833414825230E+03   -0.12175E-05   -0.29730E-04  4240   0.353E-02    0.567E-03
DAV:   2    -0.833414825470E+03   -0.23968E-06   -0.68081E-06  5400   0.503E-03
  95 F= -.84103955E+03 E0= -.84103955E+03  d E =-.945428E-06  mag=    -0.0000
       N       E                     dE             d eps       ncg     rms          rms(c)
DAV:   1    -0.833414825983E+03   -0.75258E-06   -0.59570E-06  4000   0.505E-03    0.277E-03
DAV:   2    -0.833414825988E+03   -0.54424E-08   -0.43167E-07  2210   0.128E-03
  96 F= -.84103955E+03 E0= -.84103955E+03  d E =-.629321E-06  mag=    -0.0000
       N       E                     dE             d eps       ncg     rms          rms(c)
DAV:   1    -0.833414827422E+03   -0.14387E-05   -0.16739E-05  4220   0.821E-03    0.108E-03
DAV:   2    -0.833414827458E+03   -0.36693E-07   -0.43557E-07  2245   0.128E-03
  97 F= -.84103955E+03 E0= -.84103955E+03  d E =-.159177E-05  mag=    -0.0000
       N       E                     dE             d eps       ncg     rms          rms(c)
DAV:   1    -0.833414829234E+03   -0.18125E-05   -0.29313E-05  4290   0.106E-02    0.161E-03
DAV:   2    -0.833414829262E+03   -0.27751E-07   -0.61606E-07  2380   0.152E-03
  98 F= -.84103956E+03 E0= -.84103956E+03  d E =-.175436E-05  mag=    -0.0000
       N       E                     dE             d eps       ncg     rms          rms(c)
DAV:   1    -0.833414831045E+03   -0.18112E-05   -0.40095E-05  4240   0.117E-02    0.211E-03
DAV:   2    -0.833414831083E+03   -0.37420E-07   -0.77494E-07  2775   0.159E-03
  99 F= -.84103956E+03 E0= -.84103956E+03  d E =-.141699E-05  mag=    -0.0000
       N       E                     dE             d eps       ncg     rms          rms(c)
DAV:   1    -0.833414833702E+03   -0.26567E-05   -0.49173E-05  4220   0.115E-02    0.240E-03
DAV:   2    -0.833414833750E+03   -0.47861E-07   -0.87962E-07  2915   0.148E-03
 100 F= -.84103956E+03 E0= -.84103956E+03  d E =-.173297E-05  mag=    -0.0000
       N       E                     dE             d eps       ncg     rms          rms(c)
DAV:   1    -0.833414837709E+03   -0.40072E-05   -0.64847E-05  4160   0.118E-02    0.274E-03
DAV:   2    -0.833414837752E+03   -0.43139E-07   -0.11167E-06  2990   0.146E-03
 101 F= -.84103956E+03 E0= -.84103956E+03  d E =-.246345E-05  mag=    -0.0000
       N       E                     dE             d eps       ncg     rms          rms(c)
DAV:   1    -0.833414844051E+03   -0.63413E-05   -0.10737E-04  4240   0.150E-02    0.340E-03
DAV:   2    -0.833414844125E+03   -0.74615E-07   -0.18202E-06  2980   0.182E-03
 102 F= -.84103957E+03 E0= -.84103957E+03  d E =-.391144E-05  mag=    -0.0000
       N       E                     dE             d eps       ncg     rms          rms(c)
DAV:   1    -0.833414852489E+03   -0.84382E-05   -0.18307E-04  4240   0.200E-02    0.446E-03
DAV:   2    -0.833414852642E+03   -0.15301E-06   -0.31711E-06  3000   0.249E-03
 103 F= -.84103957E+03 E0= -.84103957E+03  d E =-.505587E-05  mag=    -0.0000
       N       E                     dE             d eps       ncg     rms          rms(c)
DAV:   1    -0.833414862420E+03   -0.99308E-05   -0.29149E-04  4240   0.248E-02    0.576E-03
DAV:   2    -0.833414862650E+03   -0.22996E-06   -0.50788E-06  3280   0.308E-03
 104 F= -.84103958E+03 E0= -.84103958E+03  d E =-.566730E-05  mag=    -0.0000
       N       E                     dE             d eps       ncg     rms          rms(c)
DAV:   1    -0.833414874135E+03   -0.11716E-04   -0.42413E-04  4280   0.287E-02    0.708E-03
DAV:   2    -0.833414874419E+03   -0.28313E-06   -0.70158E-06  3280   0.341E-03
 105 F= -.84103958E+03 E0= -.84103958E+03  d E =-.673691E-05  mag=    -0.0000
       N       E                     dE             d eps       ncg     rms          rms(c)
DAV:   1    -0.833414888468E+03   -0.14332E-04   -0.62620E-04  4280   0.355E-02    0.851E-03
DAV:   2    -0.833414888871E+03   -0.40328E-06   -0.10430E-05  3700   0.424E-03    0.652E-03
DAV:   3    -0.833414889025E+03   -0.15363E-06   -0.42422E-07  2890   0.130E-03
 106 F= -.84103959E+03 E0= -.84103959E+03  d E =-.897313E-05  mag=    -0.0000
       N       E                     dE             d eps       ncg     rms          rms(c)
DAV:   1    -0.833414904108E+03   -0.15237E-04   -0.90999E-04  4260   0.443E-02    0.702E-03
DAV:   2    -0.833414905222E+03   -0.11144E-05   -0.15530E-05  4060   0.528E-03    0.504E-03
DAV:   3    -0.833414905195E+03    0.26761E-07   -0.34008E-07  3170   0.112E-03
 107 F= -.84103960E+03 E0= -.84103960E+03  d E =-.101465E-04  mag=    -0.0000
       N       E                     dE             d eps       ncg     rms          rms(c)
DAV:   1    -0.833414922319E+03   -0.17097E-04   -0.12301E-03  4260   0.526E-02    0.795E-03
DAV:   2    -0.833414923807E+03   -0.14876E-05   -0.20929E-05  4320   0.625E-03    0.584E-03
DAV:   3    -0.833414923728E+03    0.78348E-07   -0.42986E-07  3260   0.125E-03
 108 F= -.84103961E+03 E0= -.84103961E+03  d E =-.118055E-04  mag=    -0.0000
       N       E                     dE             d eps       ncg     rms          rms(c)
DAV:   1    -0.833414940958E+03   -0.17152E-04   -0.15508E-03  4260   0.630E-02    0.877E-03
DAV:   2    -0.833414942771E+03   -0.18125E-05   -0.25734E-05  4410   0.747E-03    0.666E-03
DAV:   3    -0.833414942642E+03    0.12855E-06   -0.58428E-07  3400   0.152E-03
 109 F= -.84103963E+03 E0= -.84103963E+03  d E =-.130029E-04  mag=    -0.0000
       N       E                     dE             d eps       ncg     rms          rms(c)
DAV:   1    -0.833414958742E+03   -0.15971E-04   -0.19872E-03  4280   0.744E-02    0.955E-03
DAV:   2    -0.833414960997E+03   -0.22546E-05   -0.31753E-05  4410   0.871E-03    0.749E-03
DAV:   3    -0.833414960797E+03    0.19986E-06   -0.75125E-07  3400   0.175E-03
 110 F= -.84103964E+03 E0= -.84103964E+03  d E =-.133811E-04  mag=    -0.0000
       N       E                     dE             d eps       ncg     rms          rms(c)
DAV:   1    -0.833414976825E+03   -0.15829E-04   -0.27608E-03  4260   0.901E-02    0.106E-02
DAV:   2    -0.833414980034E+03   -0.32085E-05   -0.43603E-05  4350   0.106E-02    0.867E-03
DAV:   3    -0.833414979687E+03    0.34716E-06   -0.10906E-06  3660   0.213E-03
 111 F= -.84103965E+03 E0= -.84103965E+03  d E =-.145859E-04  mag=    -0.0000
       N       E                     dE             d eps       ncg     rms          rms(c)
DAV:   1    -0.833414994903E+03   -0.14869E-04   -0.41688E-03  4300   0.110E-01    0.126E-02
DAV:   2    -0.833414999651E+03   -0.47480E-05   -0.63857E-05  4400   0.129E-02    0.104E-02
DAV:   3    -0.833414999112E+03    0.53865E-06   -0.15846E-06  3820   0.254E-03
 112 F= -.84103967E+03 E0= -.84103967E+03  d E =-.164883E-04  mag=    -0.0000
       N       E                     dE             d eps       ncg     rms          rms(c)
DAV:   1    -0.833415009385E+03   -0.97345E-05   -0.63364E-03  4260   0.136E-01    0.153E-02
DAV:   2    -0.833415016653E+03   -0.72673E-05   -0.97049E-05  4400   0.159E-02    0.128E-02
DAV:   3    -0.833415015795E+03    0.85808E-06   -0.25440E-06  4200   0.320E-03
 113 F= -.84103969E+03 E0= -.84103969E+03  d E =-.164192E-04  mag=    -0.0000
       N       E                     dE             d eps       ncg     rms          rms(c)
DAV:   1    -0.833415025899E+03   -0.92466E-05   -0.93227E-03  4260   0.166E-01    0.186E-02
DAV:   2    -0.833415036444E+03   -0.10545E-04   -0.14222E-04  4380   0.195E-02    0.156E-02
DAV:   3    -0.833415035085E+03    0.13594E-05   -0.39932E-06  4480   0.398E-03    0.116E-02
DAV:   4    -0.833415035428E+03   -0.34344E-06   -0.62377E-06  4060   0.520E-03
 114 F= -.84103971E+03 E0= -.84103971E+03  d E =-.219930E-04  mag=    -0.0000
       N       E                     dE             d eps       ncg     rms          rms(c)
DAV:   1    -0.833415046310E+03   -0.11225E-04   -0.13956E-02  4320   0.199E-01    0.221E-02
DAV:   2    -0.833415063545E+03   -0.17235E-04   -0.22636E-04  4340   0.240E-02    0.184E-02
DAV:   3    -0.833415061339E+03    0.22063E-05   -0.57736E-06  4680   0.478E-03    0.140E-02
DAV:   4    -0.833415061329E+03    0.98880E-08   -0.95222E-06  4160   0.631E-03
 115 F= -.84103974E+03 E0= -.84103974E+03  d E =-.264223E-04  mag=    -0.0000
       N       E                     dE             d eps       ncg     rms          rms(c)
DAV:   1    -0.833415076083E+03   -0.14744E-04   -0.19420E-02  4320   0.233E-01    0.267E-02
DAV:   2    -0.833415100193E+03   -0.24111E-04   -0.31972E-04  4360   0.282E-02    0.219E-02
DAV:   3    -0.833415097126E+03    0.30674E-05   -0.85272E-06  5000   0.567E-03    0.165E-02
DAV:   4    -0.833415096995E+03    0.13087E-06   -0.11856E-05  4160   0.704E-03    0.447E-03
DAV:   5    -0.833415097303E+03   -0.30766E-06   -0.29066E-06  3600   0.289E-03
 116 F= -.84103977E+03 E0= -.84103977E+03  d E =-.337794E-04  mag=    -0.0000
       N       E                     dE             d eps       ncg     rms          rms(c)
DAV:   1    -0.833415103253E+03   -0.62584E-05   -0.31796E-02  4300   0.296E-01    0.344E-02
DAV:   2    -0.833415146768E+03   -0.43515E-04   -0.57217E-04  4380   0.374E-02    0.278E-02
DAV:   3    -0.833415141276E+03    0.54923E-05   -0.15833E-05  5420   0.755E-03    0.213E-02
DAV:   4    -0.833415140121E+03    0.11546E-05   -0.20426E-05  4280   0.928E-03    0.622E-03
DAV:   5    -0.833415140748E+03   -0.62644E-06   -0.49995E-06  3780   0.382E-03
 117 F= -.84103980E+03 E0= -.84103980E+03  d E =-.298620E-04  mag=    -0.0000
       N       E                     dE             d eps       ncg     rms          rms(c)
DAV:   1    -0.833415175640E+03   -0.35519E-04   -0.15030E-03  4240   0.795E-02    0.928E-03
DAV:   2    -0.833415178230E+03   -0.25897E-05   -0.39598E-05  5340   0.119E-02    0.819E-03
DAV:   3    -0.833415177388E+03    0.84234E-06   -0.17368E-06  3200   0.274E-03
 118 F= -.84103984E+03 E0= -.84103984E+03  d E =-.358336E-04  mag=    -0.0000
       N       E                     dE             d eps       ncg     rms          rms(c)
DAV:   1    -0.833415163216E+03    0.15014E-04   -0.19876E-03  4240   0.886E-02    0.123E-02
DAV:   2    -0.833415166158E+03   -0.29414E-05   -0.45115E-05  5240   0.124E-02    0.103E-02
DAV:   3    -0.833415165013E+03    0.11443E-05   -0.22183E-06  3600   0.317E-03    0.746E-03
DAV:   4    -0.833415164456E+03    0.55793E-06   -0.36337E-06  4000   0.395E-03
 119 F= -.84103982E+03 E0= -.84103982E+03  d E =0.170510E-04  mag=    -0.0000
       N       E                     dE             d eps       ncg     rms          rms(c)
DAV:   1    -0.833415178324E+03   -0.13311E-04   -0.88351E-05  4260   0.192E-02    0.229E-03
DAV:   2    -0.833415178460E+03   -0.13574E-06   -0.24633E-06  3220   0.299E-03
 120 F= -.84103983E+03 E0= -.84103983E+03  d E =-.128305E-04  mag=    -0.0000
       N       E                     dE             d eps       ncg     rms          rms(c)
DAV:   1    -0.833415195977E+03   -0.17653E-04   -0.29062E-04  4240   0.342E-02    0.496E-03
DAV:   2    -0.833415196350E+03   -0.37247E-06   -0.73311E-06  5160   0.509E-03
 121 F= -.84103985E+03 E0= -.84103985E+03  d E =-.153402E-04  mag=    -0.0000
       N       E                     dE             d eps       ncg     rms          rms(c)
DAV:   1    -0.833415206530E+03   -0.10553E-04   -0.45320E-04  4240   0.411E-02    0.752E-03
DAV:   2    -0.833415206900E+03   -0.37051E-06   -0.10433E-05  5140   0.589E-03    0.622E-03
DAV:   3    -0.833415206433E+03    0.46740E-06   -0.99757E-07  2680   0.221E-03
 122 F= -.84103985E+03 E0= -.84103985E+03  d E =-.609820E-05  mag=    -0.0000
       N       E                     dE             d eps       ncg     rms          rms(c)
DAV:   1    -0.833415209684E+03   -0.27836E-05   -0.48297E-04  4240   0.366E-02    0.607E-03
DAV:   2    -0.833415210408E+03   -0.72466E-06   -0.97751E-06  4320   0.491E-03
 123 F= -.84103985E+03 E0= -.84103985E+03  d E =0.161312E-05  mag=    -0.0000
       N       E                     dE             d eps       ncg     rms          rms(c)
DAV:   1    -0.833415219034E+03   -0.93500E-05   -0.53944E-04  4240   0.278E-02    0.814E-03
DAV:   2    -0.833415219268E+03   -0.23468E-06   -0.88160E-06  3200   0.352E-03
 124 F= -.84103985E+03 E0= -.84103985E+03  d E =-.184090E-05  mag=    -0.0000
       N       E                     dE             d eps       ncg     rms          rms(c)
DAV:   1    -0.833415239229E+03   -0.20195E-04   -0.75355E-04  4240   0.275E-02    0.939E-03
DAV:   2    -0.833415239374E+03   -0.14470E-06   -0.10522E-05  3220   0.327E-03    0.698E-03
DAV:   3    -0.833415239739E+03   -0.36549E-06   -0.41126E-07  2990   0.105E-03
 125 F= -.84103987E+03 E0= -.84103986E+03  d E =-.121273E-04  mag=    -0.0000
       N       E                     dE             d eps       ncg     rms          rms(c)
DAV:   1    -0.833415270983E+03   -0.31609E-04   -0.14609E-03  4240   0.460E-02    0.933E-03
DAV:   2    -0.833415272584E+03   -0.16013E-05   -0.24852E-05  4260   0.594E-03    0.641E-03
DAV:   3    -0.833415272555E+03    0.28747E-07   -0.48358E-07  3285   0.126E-03
 126 F= -.84103989E+03 E0= -.84103989E+03  d E =-.218063E-04  mag=    -0.0000
       N       E                     dE             d eps       ncg     rms          rms(c)
DAV:   1    -0.833415304567E+03   -0.31983E-04   -0.27053E-03  4240   0.651E-02    0.129E-02
DAV:   2    -0.833415307544E+03   -0.29778E-05   -0.47196E-05  4420   0.835E-03    0.897E-03
DAV:   3    -0.833415307437E+03    0.10762E-06   -0.94909E-07  3540   0.177E-03
 127 F= -.84103991E+03 E0= -.84103991E+03  d E =-.201362E-04  mag=    -0.0000
       N       E                     dE             d eps       ncg     rms          rms(c)
DAV:   1    -0.833415338707E+03   -0.31163E-04   -0.42375E-03  4240   0.702E-02    0.161E-02
DAV:   2    -0.833415342282E+03   -0.35755E-05   -0.64745E-05  4360   0.847E-03    0.110E-02
DAV:   3    -0.833415342472E+03   -0.18941E-06   -0.11374E-06  3260   0.168E-03
 128 F= -.84103992E+03 E0= -.84103992E+03  d E =-.154280E-04  mag=    -0.0000
       N       E                     dE             d eps       ncg     rms          rms(c)
DAV:   1    -0.833415390477E+03   -0.48194E-04   -0.58863E-03  4240   0.715E-02    0.186E-02
DAV:   2    -0.833415394656E+03   -0.41794E-05   -0.81537E-05  4260   0.810E-03    0.125E-02
DAV:   3    -0.833415394984E+03   -0.32812E-06   -0.13573E-06  3300   0.160E-03
 129 F= -.84103995E+03 E0= -.84103995E+03  d E =-.279884E-04  mag=    -0.0000
       N       E                     dE             d eps       ncg     rms          rms(c)
DAV:   1    -0.833415448643E+03   -0.53987E-04   -0.76363E-03  4240   0.989E-02    0.211E-02
DAV:   2    -0.833415455820E+03   -0.71773E-05   -0.12249E-04  4400   0.123E-02    0.144E-02
DAV:   3    -0.833415455929E+03   -0.10874E-06   -0.23294E-06  3480   0.259E-03
 130 F= -.84103998E+03 E0= -.84103998E+03  d E =-.328909E-04  mag=    -0.0000
       N       E                     dE             d eps       ncg     rms          rms(c)
DAV:   1    -0.833415459477E+03   -0.36562E-05   -0.98673E-06  4000   0.554E-03    0.240E-03
DAV:   2    -0.833415459469E+03    0.79017E-08   -0.72795E-07  3180   0.154E-03
 131 F= -.84103999E+03 E0= -.84103999E+03  d E =-.368935E-05  mag=    -0.0000
       N       E                     dE             d eps       ncg     rms          rms(c)
DAV:   1    -0.833415459984E+03   -0.50743E-06   -0.17579E-05  4240   0.763E-03    0.126E-03
DAV:   2    -0.833415460013E+03   -0.28973E-07   -0.35868E-07  2460   0.110E-03
 132 F= -.84103999E+03 E0= -.84103999E+03  d E =-.108428E-05  mag=    -0.0000
       N       E                     dE             d eps       ncg     rms          rms(c)
DAV:   1    -0.833415459722E+03    0.26199E-06   -0.40498E-05  4240   0.108E-02    0.172E-03
DAV:   2    -0.833415459767E+03   -0.45293E-07   -0.80100E-07  2775   0.149E-03
 133 F= -.84103999E+03 E0= -.84103999E+03  d E =-.831474E-06  mag=    -0.0000
       N       E                     dE             d eps       ncg     rms          rms(c)
DAV:   1    -0.833415458337E+03    0.13852E-05   -0.68250E-05  4240   0.129E-02    0.252E-03
DAV:   2    -0.833415458390E+03   -0.53195E-07   -0.12524E-06  2910   0.172E-03
 134 F= -.84103999E+03 E0= -.84103999E+03  d E =-.193485E-06  mag=    -0.0000
       N       E                     dE             d eps       ncg     rms          rms(c)
DAV:   1    -0.833415456175E+03    0.21617E-05   -0.94409E-05  4240   0.139E-02    0.312E-03
DAV:   2    -0.833415456222E+03   -0.46573E-07   -0.16002E-06  3045   0.177E-03
 135 F= -.84103999E+03 E0= -.84103999E+03  d E =0.169662E-06  mag=    -0.0000
       N       E                     dE             d eps       ncg     rms          rms(c)
DAV:   1    -0.833415453824E+03    0.23512E-05   -0.12010E-04  4160   0.147E-02    0.355E-03
DAV:   2    -0.833415453869E+03   -0.45417E-07   -0.19188E-06  3010   0.181E-03
 136 F= -.84103999E+03 E0= -.84103999E+03  d E =0.932869E-07  mag=    -0.0000
       N       E                     dE             d eps       ncg     rms          rms(c)
DAV:   1    -0.833415451449E+03    0.23748E-05   -0.18502E-04  4240   0.180E-02    0.421E-03
DAV:   2    -0.833415451540E+03   -0.90942E-07   -0.28360E-06  3010   0.216E-03
 137 F= -.84103999E+03 E0= -.84103999E+03  d E =-.450553E-06  mag=    -0.0000
       N       E                     dE             d eps       ncg     rms          rms(c)
DAV:   1    -0.833415448809E+03    0.26398E-05   -0.28679E-04  4240   0.233E-02    0.517E-03
DAV:   2    -0.833415448993E+03   -0.18343E-06   -0.44500E-06  3070   0.283E-03
 138 F= -.84103999E+03 E0= -.84103999E+03  d E =-.878047E-06  mag=    -0.0000
       N       E                     dE             d eps       ncg     rms          rms(c)
DAV:   1    -0.833415445437E+03    0.33729E-05   -0.41691E-04  4240   0.284E-02    0.629E-03
DAV:   2    -0.833415445727E+03   -0.29064E-06   -0.65318E-06  3330   0.345E-03
 139 F= -.84103999E+03 E0= -.84103999E+03  d E =-.976322E-06  mag=    -0.0000
       N       E                     dE             d eps       ncg     rms          rms(c)
DAV:   1    -0.833415442450E+03    0.29863E-05   -0.58726E-04  4260   0.339E-02    0.749E-03
DAV:   2    -0.833415442853E+03   -0.40278E-06   -0.88434E-06  3540   0.400E-03
 140 F= -.84103999E+03 E0= -.84103999E+03  d E =-.156794E-05  mag=    -0.0000
       N       E                     dE             d eps       ncg     rms          rms(c)
DAV:   1    -0.833415440960E+03    0.14899E-05   -0.81271E-04  4260   0.405E-02    0.870E-03
DAV:   2    -0.833415441544E+03   -0.58363E-06   -0.12001E-05  3940   0.473E-03    0.704E-03
DAV:   3    -0.833415441529E+03    0.15047E-07   -0.55786E-07  3080   0.150E-03
 141 F= -.84104000E+03 E0= -.84104000E+03  d E =-.296234E-05  mag=    -0.0000
       N       E                     dE             d eps       ncg     rms          rms(c)
DAV:   1    -0.833415441208E+03    0.33556E-06   -0.10736E-03  4240   0.475E-02    0.643E-03
DAV:   2    -0.833415442434E+03   -0.12258E-05   -0.15821E-05  4170   0.547E-03    0.506E-03
DAV:   3    -0.833415442389E+03    0.44798E-07   -0.33883E-07  3080   0.113E-03
 142 F= -.84104000E+03 E0= -.84104000E+03  d E =-.503504E-05  mag=    -0.0000
       N       E                     dE             d eps       ncg     rms          rms(c)
DAV:   1    -0.833415445701E+03   -0.32665E-05   -0.14774E-03  4240   0.561E-02    0.723E-03
DAV:   2    -0.833415447442E+03   -0.17410E-05   -0.21919E-05  4280   0.647E-03    0.586E-03
DAV:   3    -0.833415447318E+03    0.12414E-06   -0.46049E-07  3180   0.129E-03
 143 F= -.84104001E+03 E0= -.84104001E+03  d E =-.815325E-05  mag=    -0.0000
       N       E                     dE             d eps       ncg     rms          rms(c)
DAV:   1    -0.833415457005E+03   -0.95636E-05   -0.20801E-03  4260   0.657E-02    0.852E-03
DAV:   2    -0.833415459447E+03   -0.24416E-05   -0.30269E-05  4400   0.749E-03    0.698E-03
DAV:   3    -0.833415459252E+03    0.19478E-06   -0.63633E-07  3360   0.148E-03
 144 F= -.84104002E+03 E0= -.84104002E+03  d E =-.124917E-04  mag=    -0.0000
       N       E                     dE             d eps       ncg     rms          rms(c)
DAV:   1    -0.833415477883E+03   -0.18437E-04   -0.30636E-03  4240   0.782E-02    0.106E-02
DAV:   2    -0.833415481590E+03   -0.37070E-05   -0.45787E-05  4360   0.903E-03    0.861E-03
DAV:   3    -0.833415481295E+03    0.29564E-06   -0.94832E-07  3560   0.178E-03
 145 F= -.84104004E+03 E0= -.84104004E+03  d E =-.179937E-04  mag=    -0.0000
       N       E                     dE             d eps       ncg     rms          rms(c)
DAV:   1    -0.833415512152E+03   -0.30561E-04   -0.49186E-03  4240   0.942E-02    0.141E-02
DAV:   2    -0.833415517973E+03   -0.58214E-05   -0.74552E-05  4320   0.108E-02    0.109E-02
DAV:   3    -0.833415517598E+03    0.37482E-06   -0.14779E-06  3640   0.213E-03
 146 F= -.84104007E+03 E0= -.84104007E+03  d E =-.268951E-04  mag=    -0.0000
       N       E                     dE             d eps       ncg     rms          rms(c)
DAV:   1    -0.833415561021E+03   -0.43048E-04   -0.85445E-03  4260   0.117E-01    0.197E-02
DAV:   2    -0.833415570780E+03   -0.97594E-05   -0.13299E-04  4320   0.136E-02    0.146E-02
DAV:   3    -0.833415570307E+03    0.47252E-06   -0.25475E-06  3620   0.267E-03
 147 F= -.84104010E+03 E0= -.84104010E+03  d E =-.367938E-04  mag=    -0.0000
       N       E                     dE             d eps       ncg     rms          rms(c)
DAV:   1    -0.833415621195E+03   -0.50415E-04   -0.14216E-02  4240   0.142E-01    0.266E-02
DAV:   2    -0.833415635923E+03   -0.14727E-04   -0.22007E-04  4340   0.164E-02    0.191E-02
DAV:   3    -0.833415635640E+03    0.28224E-06   -0.40665E-06  3680   0.323E-03
 148 F= -.84104014E+03 E0= -.84104014E+03  d E =-.410713E-04  mag=    -0.0000
       N       E                     dE             d eps       ncg     rms          rms(c)
DAV:   1    -0.833415696611E+03   -0.60688E-04   -0.22581E-02  4240   0.173E-01    0.343E-02
DAV:   2    -0.833415718385E+03   -0.21774E-04   -0.35342E-04  4340   0.201E-02    0.245E-02
DAV:   3    -0.833415718172E+03    0.21259E-06   -0.62613E-06  3850   0.392E-03
 149 F= -.84104019E+03 E0= -.84104019E+03  d E =-.467249E-04  mag=    -0.0000
       N       E                     dE             d eps       ncg     rms          rms(c)
DAV:   1    -0.833415779425E+03   -0.61041E-04   -0.34632E-02  4240   0.212E-01    0.424E-02
DAV:   2    -0.833415814837E+03   -0.35411E-04   -0.55047E-04  4360   0.250E-02    0.307E-02
DAV:   3    -0.833415813704E+03    0.11329E-05   -0.98999E-06  4360   0.491E-03    0.228E-02
DAV:   4    -0.833415826614E+03   -0.12910E-04   -0.23319E-05  3970   0.670E-03    0.503E-03
DAV:   5    -0.833415826620E+03   -0.64683E-08   -0.29775E-06  3360   0.261E-03
 150 F= -.84104025E+03 E0= -.84104025E+03  d E =-.632042E-04  mag=    -0.0000
       N       E                     dE             d eps       ncg     rms          rms(c)
DAV:   1    -0.833415862764E+03   -0.36150E-04   -0.45767E-02  4240   0.251E-01    0.481E-02
DAV:   2    -0.833415915898E+03   -0.53134E-04   -0.78590E-04  4350   0.308E-02    0.337E-02
DAV:   3    -0.833415913021E+03    0.28775E-05   -0.14199E-05  4560   0.612E-03    0.251E-02
DAV:   4    -0.833415926312E+03   -0.13291E-04   -0.28499E-05  4080   0.807E-03    0.559E-03
DAV:   5    -0.833415926640E+03   -0.32771E-06   -0.40684E-06  3660   0.316E-03
 151 F= -.84104031E+03 E0= -.84104031E+03  d E =-.546673E-04  mag=    -0.0000
       N       E                     dE             d eps       ncg     rms          rms(c)
DAV:   1    -0.833415933472E+03   -0.71603E-05   -0.32555E-04  4300   0.316E-02    0.420E-03
DAV:   2    -0.833415934063E+03   -0.59073E-06   -0.81597E-06  4620   0.461E-03
 152 F= -.84104032E+03 E0= -.84104032E+03  d E =-.906578E-05  mag=     0.0000
       N       E                     dE             d eps       ncg     rms          rms(c)
DAV:   1    -0.833415929274E+03    0.41979E-05   -0.74220E-04  4260   0.445E-02    0.801E-03
DAV:   2    -0.833415930130E+03   -0.85549E-06   -0.16848E-05  4860   0.634E-03    0.666E-03
DAV:   3    -0.833415929623E+03    0.50646E-06   -0.83963E-07  3460   0.182E-03
 153 F= -.84104032E+03 E0= -.84104032E+03  d E =0.541019E-06  mag=     0.0000
       N       E                     dE             d eps       ncg     rms          rms(c)
DAV:   1    -0.833415919030E+03    0.11100E-04   -0.77240E-04  4240   0.377E-02    0.699E-03
DAV:   2    -0.833415919879E+03   -0.84881E-06   -0.13349E-05  3920   0.455E-03    0.522E-03
DAV:   3    -0.833415919795E+03    0.83972E-07   -0.38011E-07  3460   0.116E-03
 154 F= -.84104031E+03 E0= -.84104031E+03  d E =0.353581E-05  mag=     0.0000
       N       E                     dE             d eps       ncg     rms          rms(c)
DAV:   1    -0.833415914375E+03    0.55037E-05   -0.11903E-03  4240   0.464E-02    0.823E-03
DAV:   2    -0.833415915712E+03   -0.13365E-05   -0.20386E-05  4220   0.568E-03    0.586E-03
DAV:   3    -0.833415915660E+03    0.51215E-07   -0.43178E-07  3140   0.122E-03
 155 F= -.84104032E+03 E0= -.84104032E+03  d E =-.537635E-05  mag=     0.0000
       N       E                     dE             d eps       ncg     rms          rms(c)
DAV:   1    -0.833415902013E+03    0.13698E-04   -0.22215E-03  4240   0.650E-02    0.114E-02
DAV:   2    -0.833415904697E+03   -0.26837E-05   -0.39587E-05  4320   0.811E-03    0.824E-03
DAV:   3    -0.833415904586E+03    0.11099E-06   -0.83261E-07  3540   0.169E-03
 156 F= -.84104032E+03 E0= -.84104032E+03  d E =-.308961E-05  mag=     0.0000
       N       E                     dE             d eps       ncg     rms          rms(c)
DAV:   1    -0.833415879422E+03    0.25275E-04   -0.31684E-03  4240   0.721E-02    0.136E-02
DAV:   2    -0.833415882862E+03   -0.34405E-05   -0.52213E-05  4380   0.860E-03    0.971E-03
DAV:   3    -0.833415882847E+03    0.15549E-07   -0.96099E-07  3360   0.171E-03
 157 F= -.84104032E+03 E0= -.84104032E+03  d E =0.340338E-05  mag=     0.0000
       N       E                     dE             d eps       ncg     rms          rms(c)
DAV:   1    -0.833415855196E+03    0.27666E-04   -0.52499E-03  4240   0.908E-02    0.167E-02
DAV:   2    -0.833415861039E+03   -0.58422E-05   -0.85065E-05  4380   0.108E-02    0.119E-02
DAV:   3    -0.833415860919E+03    0.11957E-06   -0.15137E-06  3380   0.208E-03
 158 F= -.84104032E+03 E0= -.84104032E+03  d E =-.959050E-06  mag=     0.0000
       N       E                     dE             d eps       ncg     rms          rms(c)
DAV:   1    -0.833415821989E+03    0.39049E-04   -0.82636E-03  4240   0.118E-01    0.207E-02
DAV:   2    -0.833415832157E+03   -0.10167E-04   -0.14192E-04  4440   0.143E-02    0.148E-02
DAV:   3    -0.833415831720E+03    0.43703E-06   -0.26648E-06  3620   0.279E-03
 159 F= -.84104032E+03 E0= -.84104032E+03  d E =0.439044E-05  mag=     0.0000
       N       E                     dE             d eps       ncg     rms          rms(c)
DAV:   1    -0.833415836074E+03   -0.39176E-05   -0.17762E-05  4170   0.808E-03    0.252E-03
DAV:   2    -0.833415836141E+03   -0.66357E-07   -0.13642E-06  3220   0.195E-03
 160 F= -.84104032E+03 E0= -.84104032E+03  d E =-.408820E-05  mag=     0.0000
       N       E                     dE             d eps       ncg     rms          rms(c)
DAV:   1    -0.833415839595E+03   -0.35202E-05   -0.35380E-05  4480   0.120E-02    0.210E-03
DAV:   2    -0.833415839629E+03   -0.34815E-07   -0.83832E-07  2670   0.176E-03
 161 F= -.84104032E+03 E0= -.84104032E+03  d E =-.284244E-05  mag=     0.0000
       N       E                     dE             d eps       ncg     rms          rms(c)
DAV:   1    -0.833415842325E+03   -0.27306E-05   -0.51758E-05  4400   0.145E-02    0.252E-03
DAV:   2    -0.833415842373E+03   -0.47461E-07   -0.11302E-06  2820   0.205E-03
 162 F= -.84104032E+03 E0= -.84104032E+03  d E =-.187828E-05  mag=     0.0000
       N       E                     dE             d eps       ncg     rms          rms(c)
DAV:   1    -0.833415844203E+03   -0.18782E-05   -0.48098E-05  4250   0.138E-02    0.274E-03
DAV:   2    -0.833415844232E+03   -0.28151E-07   -0.91277E-07  3040   0.183E-03
 163 F= -.84104033E+03 E0= -.84104032E+03  d E =-.992245E-06  mag=     0.0000
       N       E                     dE             d eps       ncg     rms          rms(c)
DAV:   1    -0.833415846715E+03   -0.25119E-05   -0.50371E-05  4240   0.127E-02    0.243E-03
DAV:   2    -0.833415846756E+03   -0.40432E-07   -0.75387E-07  2850   0.151E-03
 164 F= -.84104033E+03 E0= -.84104033E+03  d E =-.167063E-05  mag=     0.0000
       N       E                     dE             d eps       ncg     rms          rms(c)
DAV:   1    -0.833415850697E+03   -0.39820E-05   -0.83004E-05  4240   0.149E-02    0.264E-03
DAV:   2    -0.833415850782E+03   -0.84234E-07   -0.12804E-06  2920   0.179E-03
 165 F= -.84104033E+03 E0= -.84104033E+03  d E =-.324579E-05  mag=     0.0000
       N       E                     dE             d eps       ncg     rms          rms(c)
DAV:   1    -0.833415856116E+03   -0.54187E-05   -0.17680E-04  4240   0.211E-02    0.371E-03
DAV:   2    -0.833415856306E+03   -0.18952E-06   -0.29590E-06  3360   0.265E-03
 166 F= -.84104033E+03 E0= -.84104033E+03  d E =-.468284E-05  mag=     0.0000
