<?xml version="1.0" encoding="ISO-8859-1"?>
<modeling>
 <generator>
  <i name="program" type="string">vasp </i>
  <i name="version" type="string">6.4.2  </i>
  <i name="subversion" type="string">20Jul23 (build Aug 26 2025 15:10:52) complex                          parallel </i>
  <i name="platform" type="string">LinuxIFC </i>
  <i name="date" type="string">2025 12 07 </i>
  <i name="time" type="string">12:45:23 </i>
 </generator>
 <incar>
  <i type="int" name="ISTART">     0</i>
  <i type="string" name="ALGO">Normal</i>
  <i type="logical" name="ADDGRID"> T  </i>
  <i type="int" name="ISPIN">     2</i>
  <i type="int" name="IMIX">     4</i>
  <i name="AMIX">      0.20000000</i>
  <i name="BMIX">      0.00010000</i>
  <i name="AMIX_MAG">      0.80000000</i>
  <i name="BMIX_MAG">      0.00010000</i>
  <i type="int" name="ICHARG">     2</i>
  <i type="int" name="NELM">   200</i>
  <i type="int" name="IBRION">     3</i>
  <i name="EDIFF">      0.00000100</i>
  <i name="EDIFFG">     -0.03000000</i>
  <i type="int" name="NSW">  1000</i>
  <i type="int" name="ISIF">     2</i>
  <i type="int" name="ISYM">     0</i>
  <i name="ENCUT">    520.00000000</i>
  <i name="POTIM">      0.00000000</i>
  <v name="MAGMOM">      0.60000000      0.60000000      0.60000000      0.60000000      0.60000000      0.60000000      0.60000000      0.60000000      0.60000000      0.60000000      0.60000000      0.60000000      0.60000000      0.60000000      0.60000000      0.60000000      0.60000000      0.60000000      0.60000000      0.60000000
      0.60000000      0.60000000      0.60000000      0.60000000      0.60000000      0.60000000      0.60000000      0.60000000      0.60000000      0.60000000      0.60000000      0.60000000      0.60000000      0.60000000      0.60000000      0.60000000      0.60000000      0.60000000      0.60000000      0.60000000
      0.60000000      0.60000000      0.60000000      0.60000000      0.60000000      0.60000000      0.60000000      0.60000000      0.60000000      0.60000000      0.60000000      0.60000000      0.60000000      0.60000000      0.60000000      0.60000000      0.60000000      0.60000000      0.60000000      0.60000000
      0.60000000      0.60000000      0.60000000      0.60000000      0.60000000      0.60000000      0.60000000      0.60000000      0.60000000      0.60000000      0.60000000      0.60000000      0.60000000      0.60000000      0.60000000      0.60000000      0.60000000      0.60000000      0.60000000      0.60000000
      0.60000000      0.60000000      0.60000000      0.60000000      0.60000000      0.60000000      0.60000000      0.60000000      0.60000000      0.60000000      0.60000000      0.60000000      0.60000000      0.60000000      0.60000000</v>
  <i type="string" name="LREAL">Auto</i>
  <i type="int" name="ISMEAR">     0</i>
  <i name="SIGMA">      0.05000000</i>
  <i type="logical" name="LWAVE"> F  </i>
  <i type="logical" name="LCHARG"> F  </i>
  <i type="logical" name="LASPH"> T  </i>
  <i type="int" name="IVDW">    12</i>
  <i name="SPRING">     -5.00000000</i>
 </incar>
 <primitive_cell>
  <structure name="primitive_cell" >
   <crystal>
    <varray name="basis" >
     <v>      17.27103806       0.00000000       0.00000000 </v>
     <v>      -8.63551903      14.95715771       0.00000000 </v>
     <v>       0.00000000       0.00000000      15.00000000 </v>
    </varray>
    <i name="volume">   3874.88459904 </i>
    <varray name="rec_basis" >
     <v>       0.05790040       0.03342881       0.00000000 </v>
     <v>       0.00000000       0.06685762       0.00000000 </v>
     <v>       0.00000000       0.00000000       0.06666667 </v>
    </varray>
   </crystal>
   <varray name="positions" >
    <v>       0.99998735       0.99989170       0.49986872 </v>
    <v>       0.99924783       0.14213143       0.49991037 </v>
    <v>       0.99932844       0.28529165       0.49963057 </v>
    <v>       0.99973449       0.42839310       0.49919005 </v>
    <v>       0.99981997       0.57136295       0.49909206 </v>
    <v>       0.00036495       0.71437809       0.49925532 </v>
    <v>       0.00131962       0.85794913       0.49964334 </v>
    <v>       0.14401473       0.00165819       0.50008291 </v>
    <v>       0.14332581       0.14400016       0.49999680 </v>
    <v>       0.14175192       0.28549875       0.49962000 </v>
    <v>       0.14291016       0.42891645       0.49903932 </v>
    <v>       0.14319344       0.57140460       0.49907986 </v>
    <v>       0.14326194       0.71448186       0.49956047 </v>
    <v>       0.14364075       0.85806429       0.49992862 </v>
    <v>       0.28671374       0.00186037       0.50017168 </v>
    <v>       0.28723360       0.14596292       0.50000273 </v>
    <v>       0.28673875       0.29139987       0.49969785 </v>
    <v>       0.28512695       0.42641128       0.49904835 </v>
    <v>       0.28781473       0.57094465       0.49860452 </v>
    <v>       0.28615387       0.71484617       0.49947510 </v>
    <v>       0.28578581       0.85815500       0.50004574 </v>
    <v>       0.42904401       0.00076442       0.50002426 </v>
    <v>       0.43020221       0.14533524       0.49979907 </v>
    <v>       0.42943708       0.28674449       0.49968128 </v>
    <v>       0.42775570       0.85670565       0.49971882 </v>
    <v>       0.57094715       0.99903902       0.49972773 </v>
    <v>       0.57172625       0.14286213       0.49980072 </v>
    <v>       0.57557504       0.28960610       0.49917296 </v>
    <v>       0.56992392       0.85400440       0.49931609 </v>
    <v>       0.71298450       0.99731220       0.49959133 </v>
    <v>       0.71404746       0.14167334       0.49972893 </v>
    <v>       0.71466053       0.28528579       0.49950926 </v>
    <v>       0.71072937       0.42542763       0.49887038 </v>
    <v>       0.71565202       0.57364939       0.49924576 </v>
    <v>       0.71182869       0.85323401       0.49949167 </v>
    <v>       0.85613389       0.99835781       0.49968905 </v>
    <v>       0.85621048       0.14154981       0.49981657 </v>
    <v>       0.85679433       0.28502747       0.49958262 </v>
    <v>       0.85684927       0.42829885       0.49921472 </v>
    <v>       0.85616071       0.57092983       0.49880999 </v>
    <v>       0.85825545       0.71489205       0.49917554 </v>
    <v>       0.85734375       0.85593857       0.49950792 </v>
    <v>       0.04776306       0.09538972       0.49996480 </v>
    <v>       0.04639030       0.23732954       0.49978511 </v>
    <v>       0.04719601       0.38080143       0.49926966 </v>
    <v>       0.04772540       0.52380983       0.49911152 </v>
    <v>       0.04781757       0.66679748       0.49925628 </v>
    <v>       0.04829222       0.80990332       0.49961077 </v>
    <v>       0.04847483       0.95311602       0.49989835 </v>
    <v>       0.19163731       0.09694713       0.50007570 </v>
    <v>       0.19043151       0.23939229       0.49980228 </v>
    <v>       0.18936130       0.38037321       0.49917639 </v>
    <v>       0.19141126       0.52430739       0.49881145 </v>
    <v>       0.19077127       0.66690599       0.49942409 </v>
    <v>       0.19086495       0.81018573       0.49990461 </v>
    <v>       0.19148249       0.95367809       0.50011735 </v>
    <v>       0.33475931       0.09797843       0.50004465 </v>
    <v>       0.33596024       0.24212759       0.49985333 </v>
    <v>       0.33182625       0.52161433       0.49881214 </v>
    <v>       0.33695175       0.66982546       0.49882025 </v>
    <v>       0.33301391       0.80990250       0.49980501 </v>
    <v>       0.33363845       0.95350453       0.50014685 </v>
    <v>       0.47673940       0.09613645       0.49986921 </v>
    <v>       0.47779565       0.24123101       0.49945781 </v>
    <v>       0.47215705       0.80560328       0.49913532 </v>
    <v>       0.47597170       0.95230577       0.49987301 </v>
    <v>       0.61867733       0.09441543       0.49979427 </v>
    <v>       0.61993728       0.23848124       0.49959538 </v>
    <v>       0.61834522       0.80854874       0.49946626 </v>
    <v>       0.61755570       0.94990710       0.49952308 </v>
    <v>       0.76102120       0.09336165       0.49972521 </v>
    <v>       0.76189026       0.23701866       0.49961705 </v>
    <v>       0.76149338       0.38037583       0.49925038 </v>
    <v>       0.75971081       0.52432157       0.49879250 </v>
    <v>       0.76248634       0.66888326       0.49925491 </v>
    <v>       0.76102455       0.80397411       0.49946465 </v>
    <v>       0.76052142       0.94937207       0.49954809 </v>
    <v>       0.90370997       0.09363083       0.49984307 </v>
    <v>       0.90401197       0.23712947       0.49974831 </v>
    <v>       0.90430527       0.38067481       0.49936181 </v>
    <v>       0.90434860       0.52379802       0.49899713 </v>
    <v>       0.90465432       0.66631636       0.49901418 </v>
    <v>       0.90594149       0.80976747       0.49945643 </v>
    <v>       0.90442189       0.95130374       0.49969872 </v>
    <v>       0.46676845       0.35948514       0.49994378 </v>
    <v>       0.40458299       0.55780796       0.50082501 </v>
    <v>       0.64289050       0.53753475       0.50161444 </v>
    <v>       0.58111746       0.73581205       0.49982401 </v>
    <v>       0.56552888       0.59417728       0.53087581 </v>
    <v>       0.47907054       0.49872528       0.53165033 </v>
    <v>       0.42684281       0.71515358       0.49835820 </v>
    <v>       0.71616552       0.71417050       0.49942502 </v>
    <v>       0.33153429       0.38120935       0.49938577 </v>
    <v>       0.62083849       0.38003970       0.49849156 </v>
    <v>       0.52332578       0.54616498       0.56977595 </v>
   </varray>
  </structure>
  <varray name="primitive_index" >
   <v type="int" >        1 </v>
   <v type="int" >        2 </v>
   <v type="int" >        3 </v>
   <v type="int" >        4 </v>
   <v type="int" >        5 </v>
   <v type="int" >        6 </v>
   <v type="int" >        7 </v>
   <v type="int" >        8 </v>
   <v type="int" >        9 </v>
   <v type="int" >       10 </v>
   <v type="int" >       11 </v>
   <v type="int" >       12 </v>
   <v type="int" >       13 </v>
   <v type="int" >       14 </v>
   <v type="int" >       15 </v>
   <v type="int" >       16 </v>
   <v type="int" >       17 </v>
   <v type="int" >       18 </v>
   <v type="int" >       19 </v>
   <v type="int" >       20 </v>
   <v type="int" >       21 </v>
   <v type="int" >       22 </v>
   <v type="int" >       23 </v>
   <v type="int" >       24 </v>
   <v type="int" >       25 </v>
   <v type="int" >       26 </v>
   <v type="int" >       27 </v>
   <v type="int" >       28 </v>
   <v type="int" >       29 </v>
   <v type="int" >       30 </v>
   <v type="int" >       31 </v>
   <v type="int" >       32 </v>
   <v type="int" >       33 </v>
   <v type="int" >       34 </v>
   <v type="int" >       35 </v>
   <v type="int" >       36 </v>
   <v type="int" >       37 </v>
   <v type="int" >       38 </v>
   <v type="int" >       39 </v>
   <v type="int" >       40 </v>
   <v type="int" >       41 </v>
   <v type="int" >       42 </v>
   <v type="int" >       43 </v>
   <v type="int" >       44 </v>
   <v type="int" >       45 </v>
   <v type="int" >       46 </v>
   <v type="int" >       47 </v>
   <v type="int" >       48 </v>
   <v type="int" >       49 </v>
   <v type="int" >       50 </v>
   <v type="int" >       51 </v>
   <v type="int" >       52 </v>
   <v type="int" >       53 </v>
   <v type="int" >       54 </v>
   <v type="int" >       55 </v>
   <v type="int" >       56 </v>
   <v type="int" >       57 </v>
   <v type="int" >       58 </v>
   <v type="int" >       59 </v>
   <v type="int" >       60 </v>
   <v type="int" >       61 </v>
   <v type="int" >       62 </v>
   <v type="int" >       63 </v>
   <v type="int" >       64 </v>
   <v type="int" >       65 </v>
   <v type="int" >       66 </v>
   <v type="int" >       67 </v>
   <v type="int" >       68 </v>
   <v type="int" >       69 </v>
   <v type="int" >       70 </v>
   <v type="int" >       71 </v>
   <v type="int" >       72 </v>
   <v type="int" >       73 </v>
   <v type="int" >       74 </v>
   <v type="int" >       75 </v>
   <v type="int" >       76 </v>
   <v type="int" >       77 </v>
   <v type="int" >       78 </v>
   <v type="int" >       79 </v>
   <v type="int" >       80 </v>
   <v type="int" >       81 </v>
   <v type="int" >       82 </v>
   <v type="int" >       83 </v>
   <v type="int" >       84 </v>
   <v type="int" >       85 </v>
   <v type="int" >       86 </v>
   <v type="int" >       87 </v>
   <v type="int" >       88 </v>
   <v type="int" >       89 </v>
   <v type="int" >       90 </v>
   <v type="int" >       91 </v>
   <v type="int" >       92 </v>
   <v type="int" >       93 </v>
   <v type="int" >       94 </v>
   <v type="int" >       95 </v>
  </varray>
 </primitive_cell>
 <kpoints>
  <generation param="Gamma">
   <v type="int" name="divisions">       2        2        1 </v>
   <v name="usershift">      0.00000000       0.00000000       0.00000000 </v>
   <v name="genvec1">      0.50000000       0.00000000       0.00000000 </v>
   <v name="genvec2">      0.00000000       0.50000000       0.00000000 </v>
   <v name="genvec3">      0.00000000       0.00000000       1.00000000 </v>
   <v name="shift">      0.00000000       0.00000000       0.00000000 </v>
  </generation>
  <varray name="kpointlist" >
   <v>       0.00000000       0.00000000       0.00000000 </v>
   <v>       0.50000000       0.00000000       0.00000000 </v>
   <v>       0.00000000       0.50000000       0.00000000 </v>
   <v>       0.50000000       0.50000000       0.00000000 </v>
  </varray>
  <varray name="weights" >
   <v>       0.25000000 </v>
   <v>       0.25000000 </v>
   <v>       0.25000000 </v>
   <v>       0.25000000 </v>
  </varray>
 </kpoints>
 <parameters>
  <separator name="general" >
   <i type="string" name="SYSTEM">unknown system</i>
   <i type="logical" name="LCOMPAT"> F  </i>
  </separator>
  <separator name="electronic" >
   <i type="string" name="PREC">normal</i>
   <i name="ENMAX">    520.00000000</i>
   <i name="ENAUG">    644.87300000</i>
   <i name="EDIFF">      0.00000100</i>
   <i type="int" name="IALGO">    38</i>
   <i type="int" name="IWAVPR">    11</i>
   <i type="int" name="NBANDS">   265</i>
   <i type="int" name="NBANDSLOW">    -1</i>
   <i type="int" name="NBANDSHIGH">    -1</i>
   <i name="NELECT">    368.00000000</i>
   <i type="int" name="TURBO">     0</i>
   <i type="int" name="IRESTART">     0</i>
   <i type="int" name="NREBOOT">     0</i>
   <i type="int" name="NMIN">     0</i>
   <i name="EREF">      0.00000000</i>
   <separator name="electronic smearing" >
    <i type="int" name="ISMEAR">     0</i>
    <i name="SIGMA">      0.05000000</i>
    <i name="KSPACING">      0.50000000</i>
    <i type="logical" name="KGAMMA"> T  </i>
    <i type="logical" name="KBLOWUP"> T  </i>
   </separator>
   <separator name="electronic projectors" >
    <i type="logical" name="LREAL"> T  </i>
    <v name="ROPT">     -0.00050000     -0.00050000     -0.00050000     -0.00050000</v>
    <i type="int" name="LMAXPAW">  -100</i>
    <i type="int" name="LMAXMIX">     2</i>
    <i type="logical" name="NLSPLINE"> F  </i>
   </separator>
   <separator name="electronic startup" >
    <i type="int" name="ISTART">     0</i>
    <i type="int" name="ICHARG">     2</i>
    <i type="int" name="INIWAV">     1</i>
   </separator>
   <separator name="electronic spin" >
    <i type="int" name="ISPIN">     2</i>
    <i type="logical" name="LNONCOLLINEAR"> F  </i>
    <v name="MAGMOM">      0.60000000      0.60000000      0.60000000      0.60000000      0.60000000      0.60000000      0.60000000      0.60000000      0.60000000      0.60000000      0.60000000      0.60000000      0.60000000      0.60000000      0.60000000      0.60000000      0.60000000      0.60000000      0.60000000      0.60000000
      0.60000000      0.60000000      0.60000000      0.60000000      0.60000000      0.60000000      0.60000000      0.60000000      0.60000000      0.60000000      0.60000000      0.60000000      0.60000000      0.60000000      0.60000000      0.60000000      0.60000000      0.60000000      0.60000000      0.60000000
      0.60000000      0.60000000      0.60000000      0.60000000      0.60000000      0.60000000      0.60000000      0.60000000      0.60000000      0.60000000      0.60000000      0.60000000      0.60000000      0.60000000      0.60000000      0.60000000      0.60000000      0.60000000      0.60000000      0.60000000
      0.60000000      0.60000000      0.60000000      0.60000000      0.60000000      0.60000000      0.60000000      0.60000000      0.60000000      0.60000000      0.60000000      0.60000000      0.60000000      0.60000000      0.60000000      0.60000000      0.60000000      0.60000000      0.60000000      0.60000000
      0.60000000      0.60000000      0.60000000      0.60000000      0.60000000      0.60000000      0.60000000      0.60000000      0.60000000      0.60000000      0.60000000      0.60000000      0.60000000      0.60000000      0.60000000</v>
    <i name="NUPDOWN">     -1.00000000</i>
    <i type="logical" name="LSORBIT"> F  </i>
    <v name="SAXIS">      0.00000000      0.00000000      1.00000000</v>
    <i type="logical" name="LSPIRAL"> F  </i>
    <v name="QSPIRAL">      0.00000000      0.00000000      0.00000000</v>
    <i type="logical" name="LZEROZ"> F  </i>
   </separator>
   <separator name="electronic exchange-correlation" >
    <i type="logical" name="LASPH"> T  </i>
    <i type="logical" name="LMETAGGA"> F  </i>
   </separator>
   <separator name="electronic convergence" >
    <i type="int" name="NELM">   200</i>
    <i type="int" name="NELMDL">    -5</i>
    <i type="int" name="NELMIN">     2</i>
    <i name="ENINI">    520.00000000</i>
    <separator name="electronic convergence detail" >
     <i type="logical" name="LDIAG"> T  </i>
     <i type="logical" name="LSUBROT"> F  </i>
     <i name="WEIMIN">      0.00100000</i>
     <i name="EBREAK">      0.00000000</i>
     <i name="DEPER">      0.30000000</i>
     <i type="int" name="NRMM">     4</i>
     <i name="TIME">      0.40000000</i>
    </separator>
   </separator>
   <separator name="electronic mixer" >
    <i name="AMIX">      0.20000000</i>
    <i name="BMIX">      0.00010000</i>
    <i name="AMIN">      0.10000000</i>
    <i name="AMIX_MAG">      0.80000000</i>
    <i name="BMIX_MAG">      0.00010000</i>
    <separator name="electronic mixer details" >
     <i type="int" name="IMIX">     4</i>
     <i type="logical" name="MIXFIRST"> F  </i>
     <i type="int" name="MAXMIX">   -45</i>
     <i name="WC">    100.00000000</i>
     <i type="int" name="INIMIX">     1</i>
     <i type="int" name="MIXPRE">     1</i>
     <i type="int" name="MREMOVE">     5</i>
    </separator>
   </separator>
   <separator name="electronic dipolcorrection" >
    <i type="logical" name="LDIPOL"> F  </i>
    <i type="logical" name="LMONO"> F  </i>
    <i type="int" name="IDIPOL">     0</i>
    <i name="EPSILON">      1.00000000</i>
    <v name="DIPOL">   -100.00000000   -100.00000000   -100.00000000</v>
    <i name="EFIELD">      0.00000000</i>
   </separator>
  </separator>
  <separator name="grids" >
   <i type="int" name="NGX">    96</i>
   <i type="int" name="NGY">    96</i>
   <i type="int" name="NGZ">    84</i>
   <i type="int" name="NGXF">   192</i>
   <i type="int" name="NGYF">   192</i>
   <i type="int" name="NGZF">   168</i>
   <i type="logical" name="ADDGRID"> T  </i>
  </separator>
  <separator name="ionic" >
   <i type="int" name="NSW">  1000</i>
   <i type="int" name="IBRION">     3</i>
   <i type="int" name="MDALGO">     0</i>
   <i type="int" name="ISIF">     2</i>
   <i name="PSTRESS">      0.00000000</i>
   <i name="EDIFFG">     -0.03000000</i>
   <i type="int" name="NFREE">     0</i>
   <i name="POTIM">      0.00000000</i>
   <i name="SMASS">     -3.00000000</i>
   <i name="SCALEE">      1.00000000</i>
  </separator>
  <separator name="ionic md" >
   <i name="TEBEG">      0.00010000</i>
   <i name="TEEND">      0.00010000</i>
   <i type="int" name="NBLOCK">     1</i>
   <i type="int" name="KBLOCK">  1000</i>
   <i type="int" name="NPACO">   256</i>
   <i name="APACO">     10.00000000</i>
  </separator>
  <separator name="symmetry" >
   <i type="int" name="ISYM">     0</i>
   <i name="SYMPREC">      0.00001000</i>
  </separator>
  <separator name="dos" >
   <i type="int" name="LORBIT">     0</i>
   <v name="RWIGS">     -1.00000000     -1.00000000     -1.00000000     -1.00000000</v>
   <i type="int" name="NEDOS">   301</i>
   <i name="EMIN">     10.00000000</i>
   <i name="EMAX">    -10.00000000</i>
   <i name="EFERMI">      0.00000000</i>
  </separator>
  <separator name="writing" >
   <i type="int" name="NWRITE">     2</i>
   <i type="logical" name="LWAVE"> F  </i>
   <i type="logical" name="LDOWNSAMPLE"> F  </i>
   <i type="logical" name="LCHARG"> F  </i>
   <i type="logical" name="LPARD"> F  </i>
   <i type="logical" name="LVTOT"> F  </i>
   <i type="logical" name="LVHAR"> F  </i>
   <i type="logical" name="LELF"> F  </i>
   <i type="logical" name="LOPTICS"> F  </i>
   <v name="STM">      0.00000000      0.00000000      0.00000000      0.00000000      0.00000000      0.00000000      0.00000000</v>
  </separator>
  <separator name="performance" >
   <i type="int" name="NPAR">     5</i>
   <i type="int" name="NSIM">     4</i>
   <i type="int" name="NBLK">    -1</i>
   <i type="logical" name="LPLANE"> T  </i>
   <i type="logical" name="LSCALAPACK"> T  </i>
   <i type="logical" name="LSCAAWARE"> F  </i>
   <i type="logical" name="LSCALU"> F  </i>
   <i type="logical" name="LASYNC"> F  </i>
   <i type="logical" name="LORBITALREAL"> F  </i>
  </separator>
  <separator name="miscellaneous" >
   <i type="int" name="IDIOT">     3</i>
   <i type="int" name="PHON_NSTRUCT">    -1</i>
   <i type="logical" name="LMUSIC"> F  </i>
   <v name="POMASS">     12.01100000      1.00000000     14.00100000     16.00000000</v>
   <v name="DARWINR">      0.00000000      0.00000000      0.00000000      0.00000000</v>
   <v name="DARWINV">      1.00000000      1.00000000      1.00000000      1.00000000</v>
   <i type="logical" name="LCORR"> T  </i>
  </separator>
  <i type="logical" name="GGA_COMPAT"> T  </i>
  <i type="logical" name="LBERRY"> F  </i>
  <i type="int" name="ICORELEVEL">     0</i>
  <i type="logical" name="LDAU"> F  </i>
  <i type="int" name="I_CONSTRAINED_M">     0</i>
  <separator name="electronic exchange-correlation" >
   <i type="string" name="GGA">--</i>
   <i type="int" name="VOSKOWN">     0</i>
   <i type="logical" name="LHFCALC"> F  </i>
   <i type="string" name="PRECFOCK"></i>
   <i type="logical" name="LSYMGRAD"> F  </i>
   <i type="logical" name="LHFONE"> F  </i>
   <i type="logical" name="LRHFCALC"> F  </i>
   <i type="logical" name="LTHOMAS"> F  </i>
   <i type="logical" name="LMODELHF"> F  </i>
   <i type="logical" name="LFOCKACE"> F  </i>
   <i name="ENCUT4O">     -1.00000000</i>
   <i type="int" name="EXXOEP">     0</i>
   <i type="int" name="FOURORBIT">     0</i>
   <i name="AEXX">      0.00000000</i>
   <i name="HFALPHA">      0.00000000</i>
   <i name="MCALPHA">      0.00000000</i>
   <i name="ALDAX">      1.00000000</i>
   <i name="AGGAX">      1.00000000</i>
   <i name="ALDAC">      1.00000000</i>
   <i name="AGGAC">      1.00000000</i>
   <i type="int" name="NKREDX">     1</i>
   <i type="int" name="NKREDY">     1</i>
   <i type="int" name="NKREDZ">     1</i>
   <i type="logical" name="SHIFTRED"> F  </i>
   <i type="logical" name="ODDONLY"> F  </i>
   <i type="logical" name="EVENONLY"> F  </i>
   <i type="int" name="LMAXFOCK">     0</i>
   <i type="int" name="NMAXFOCKAE">     0</i>
   <i type="logical" name="LFOCKAEDFT"> F  </i>
   <i name="HFSCREEN">      0.00000000</i>
   <i name="HFSCREENC">      0.00000000</i>
   <i type="int" name="NBANDSGWLOW">     0</i>
  </separator>
  <separator name="vdW DFT" >
   <i type="logical" name="LUSE_VDW"> F  </i>
   <i type="int" name="IVDW_NL">     1</i>
   <i type="logical" name="LSPIN_VDW"> F  </i>
   <i name="Zab_VDW">     -0.84910000</i>
   <i name="PARAM1">      0.12340000</i>
   <i name="PARAM2">      1.00000000</i>
   <i name="PARAM3">      0.00000000</i>
  </separator>
  <separator name="model GW" >
   <i type="int" name="MODEL_GW">     0</i>
   <i name="MODEL_EPS0">     24.47295536</i>
   <i name="MODEL_ALPHA">      1.00000000</i>
  </separator>
  <separator name="linear response parameters" >
   <i type="logical" name="LEPSILON"> F  </i>
   <i type="logical" name="LRPA"> F  </i>
   <i type="logical" name="LNABLA"> F  </i>
   <i type="logical" name="LVEL"> F  </i>
   <i name="CSHIFT">      0.10000000</i>
   <i name="OMEGAMAX">     -1.00000000</i>
   <i name="DEG_THRESHOLD">      0.00200000</i>
   <i name="RTIME">     -0.10000000</i>
   <i name="WPLASMAI">      0.00000000</i>
   <v name="DFIELD">      0.00000000      0.00000000      0.00000000</v>
   <v name="WPLASMA">      0.00000000      0.00000000      0.00000000      0.00000000      0.00000000      0.00000000      0.00000000      0.00000000      0.00000000</v>
  </separator>
  <separator name="orbital magnetization" >
   <i type="logical" name="NUCIND"> F  </i>
   <v name="MAGPOS">      0.00000000      0.00000000      0.00000000</v>
   <i type="logical" name="LNICSALL"> T  </i>
   <i type="logical" name="ORBITALMAG"> F  </i>
   <i type="logical" name="LMAGBLOCH"> F  </i>
   <i type="logical" name="LCHIMAG"> F  </i>
   <i type="logical" name="LGAUGE"> T  </i>
   <i type="int" name="MAGATOM">     0</i>
   <v name="MAGDIPOL">      0.00000000      0.00000000      0.00000000</v>
   <v name="AVECCONST">      0.00000000      0.00000000      0.00000000</v>
  </separator>
  <separator name="response functions" >
   <i type="logical" name="LALL_IN_ONE"> F  </i>
   <i type="int" name="IALL_IN_ONE">    -1</i>
   <i type="int" name="NBANDS_WAVE">    -1</i>
   <i type="logical" name="LFINITE_TEMPERATURE"> F  </i>
   <i type="logical" name="LADDER"> F  </i>
   <i type="logical" name="LRPAFORCE"> F  </i>
   <i type="logical" name="LFXC"> F  </i>
   <i type="logical" name="LHARTREE"> T  </i>
   <i type="int" name="IBSE">     0</i>
   <v type="int" name="KPOINT">    -1     0     0     0</v>
   <i type="logical" name="LTCTC"> F  </i>
   <i type="logical" name="LTCTE"> F  </i>
   <i type="logical" name="LTETE"> F  </i>
   <i type="logical" name="LTRIPLET"> F  </i>
   <i type="logical" name="LFXCEPS"> F  </i>
   <i type="logical" name="LFXHEG"> F  </i>
   <i type="int" name="NATURALO">     2</i>
   <i type="logical" name="LHOLEGF"> F  </i>
   <i type="logical" name="L2ORDER"> F  </i>
   <i type="logical" name="LDMP1"> F  </i>
   <i type="logical" name="LMP2LT"> F  </i>
   <i type="logical" name="LSMP2LT"> F  </i>
   <i type="logical" name="LGWLF"> F  </i>
   <i name="ENCUTGW">     -1.60000002</i>
   <i name="ENCUTGWSOFT">     -1.60000002</i>
   <i name="ENCUTLF">     -1.00000000</i>
   <i type="logical" name="LESF_SPLINES"> F  </i>
   <i type="int" name="LMAXMP2">    -1</i>
   <i name="SCISSOR">      0.00000000</i>
   <i type="int" name="NOMEGA">     0</i>
   <i type="int" name="NOMEGAR">     0</i>
   <i type="int" name="NBANDSGW">    -1</i>
   <i type="int" name="NBANDSO">    -1</i>
   <i type="int" name="NBANDSV">    -1</i>
   <i type="int" name="NELMGW">     1</i>
   <i type="int" name="NELMHF">     1</i>
   <i type="int" name="DIM">     3</i>
   <i type="int" name="IESPILON">     4</i>
   <i type="int" name="ANTIRES">     0</i>
   <i name="OMEGAMAX">    -30.00000000</i>
   <i name="OMEGAMIN">    -30.00000000</i>
   <i name="OMEGATL">   -200.00000000</i>
   <i type="int" name="OMEGAGRID">     0</i>
   <i name="CSHIFT">     -0.10000000</i>
   <i type="logical" name="LSELFENERGY"> F  </i>
   <i type="logical" name="LSPECTRAL"> F  </i>
   <i type="logical" name="LSPECTRALGW"> F  </i>
   <i type="logical" name="LSINGLES"> F  </i>
   <i type="logical" name="LFERMIGW"> F  </i>
   <i type="logical" name="ODDONLYGW"> F  </i>
   <i type="logical" name="EVENONLYGW"> F  </i>
   <i type="int" name="NKREDLFX">     1</i>
   <i type="int" name="NKREDLFY">     1</i>
   <i type="int" name="NKREDLFZ">     1</i>
   <i type="int" name="MAXMEM">  2800</i>
   <i type="int" name="TELESCOPE">     0</i>
   <i type="int" name="NTAUPAR">    -1</i>
   <i type="int" name="NOMEGAPAR">    -1</i>
   <i name="DAMP_NEWTON">      0.80000001</i>
   <i name="LAMBDA">      1.00000000</i>
  </separator>
  <separator name="External order field" >
   <i name="OFIELD_KAPPA">      0.00000000</i>
   <v name="OFIELD_K">      0.00000000      0.00000000      0.00000000</v>
   <i name="OFIELD_Q6_NEAR">      0.00000000</i>
   <i name="OFIELD_Q6_FAR">      0.00000000</i>
   <i name="OFIELD_A">      0.00000000</i>
  </separator>
  <separator name="optional k-points parameters" >
   <i type="int" name="KPOINTS_OPT_MODE">     1</i>
   <i type="logical" name="LKPOINTS_OPT"> F  </i>
  </separator>
 </parameters>
 <atominfo>
  <atoms>      95 </atoms>
  <types>       4 </types>
  <array name="atoms" >
   <dimension dim="1">ion</dimension>
   <field type="string">element</field>
   <field type="int">atomtype</field>
   <set>
    <rc><c>C </c><c>   1</c></rc>
    <rc><c>C </c><c>   1</c></rc>
    <rc><c>C </c><c>   1</c></rc>
    <rc><c>C </c><c>   1</c></rc>
    <rc><c>C </c><c>   1</c></rc>
    <rc><c>C </c><c>   1</c></rc>
    <rc><c>C </c><c>   1</c></rc>
    <rc><c>C </c><c>   1</c></rc>
    <rc><c>C </c><c>   1</c></rc>
    <rc><c>C </c><c>   1</c></rc>
    <rc><c>C </c><c>   1</c></rc>
    <rc><c>C </c><c>   1</c></rc>
    <rc><c>C </c><c>   1</c></rc>
    <rc><c>C </c><c>   1</c></rc>
    <rc><c>C </c><c>   1</c></rc>
    <rc><c>C </c><c>   1</c></rc>
    <rc><c>C </c><c>   1</c></rc>
    <rc><c>C </c><c>   1</c></rc>
    <rc><c>C </c><c>   1</c></rc>
    <rc><c>C </c><c>   1</c></rc>
    <rc><c>C </c><c>   1</c></rc>
    <rc><c>C </c><c>   1</c></rc>
    <rc><c>C </c><c>   1</c></rc>
    <rc><c>C </c><c>   1</c></rc>
    <rc><c>C </c><c>   1</c></rc>
    <rc><c>C </c><c>   1</c></rc>
    <rc><c>C </c><c>   1</c></rc>
    <rc><c>C </c><c>   1</c></rc>
    <rc><c>C </c><c>   1</c></rc>
    <rc><c>C </c><c>   1</c></rc>
    <rc><c>C </c><c>   1</c></rc>
    <rc><c>C </c><c>   1</c></rc>
    <rc><c>C </c><c>   1</c></rc>
    <rc><c>C </c><c>   1</c></rc>
    <rc><c>C </c><c>   1</c></rc>
    <rc><c>C </c><c>   1</c></rc>
    <rc><c>C </c><c>   1</c></rc>
    <rc><c>C </c><c>   1</c></rc>
    <rc><c>C </c><c>   1</c></rc>
    <rc><c>C </c><c>   1</c></rc>
    <rc><c>C </c><c>   1</c></rc>
    <rc><c>C </c><c>   1</c></rc>
    <rc><c>C </c><c>   1</c></rc>
    <rc><c>C </c><c>   1</c></rc>
    <rc><c>C </c><c>   1</c></rc>
    <rc><c>C </c><c>   1</c></rc>
    <rc><c>C </c><c>   1</c></rc>
    <rc><c>C </c><c>   1</c></rc>
    <rc><c>C </c><c>   1</c></rc>
    <rc><c>C </c><c>   1</c></rc>
    <rc><c>C </c><c>   1</c></rc>
    <rc><c>C </c><c>   1</c></rc>
    <rc><c>C </c><c>   1</c></rc>
    <rc><c>C </c><c>   1</c></rc>
    <rc><c>C </c><c>   1</c></rc>
    <rc><c>C </c><c>   1</c></rc>
    <rc><c>C </c><c>   1</c></rc>
    <rc><c>C </c><c>   1</c></rc>
    <rc><c>C </c><c>   1</c></rc>
    <rc><c>C </c><c>   1</c></rc>
    <rc><c>C </c><c>   1</c></rc>
    <rc><c>C </c><c>   1</c></rc>
    <rc><c>C </c><c>   1</c></rc>
    <rc><c>C </c><c>   1</c></rc>
    <rc><c>C </c><c>   1</c></rc>
    <rc><c>C </c><c>   1</c></rc>
    <rc><c>C </c><c>   1</c></rc>
    <rc><c>C </c><c>   1</c></rc>
    <rc><c>C </c><c>   1</c></rc>
    <rc><c>C </c><c>   1</c></rc>
    <rc><c>C </c><c>   1</c></rc>
    <rc><c>C </c><c>   1</c></rc>
    <rc><c>C </c><c>   1</c></rc>
    <rc><c>C </c><c>   1</c></rc>
    <rc><c>C </c><c>   1</c></rc>
    <rc><c>C </c><c>   1</c></rc>
    <rc><c>C </c><c>   1</c></rc>
    <rc><c>C </c><c>   1</c></rc>
    <rc><c>C </c><c>   1</c></rc>
    <rc><c>C </c><c>   1</c></rc>
    <rc><c>C </c><c>   1</c></rc>
    <rc><c>C </c><c>   1</c></rc>
    <rc><c>C </c><c>   1</c></rc>
    <rc><c>C </c><c>   1</c></rc>
    <rc><c>H </c><c>   2</c></rc>
    <rc><c>H </c><c>   2</c></rc>
    <rc><c>H </c><c>   2</c></rc>
    <rc><c>H </c><c>   2</c></rc>
    <rc><c>H </c><c>   2</c></rc>
    <rc><c>H </c><c>   2</c></rc>
    <rc><c>N </c><c>   3</c></rc>
    <rc><c>N </c><c>   3</c></rc>
    <rc><c>N </c><c>   3</c></rc>
    <rc><c>N </c><c>   3</c></rc>
    <rc><c>O </c><c>   4</c></rc>
   </set>
  </array>
  <array name="atomtypes" >
   <dimension dim="1">type</dimension>
   <field type="int">atomspertype</field>
   <field type="string">element</field>
   <field>mass</field>
   <field>valence</field>
   <field type="string">pseudopotential</field>
   <set>
    <rc><c>  84</c><c>C </c><c>     12.01100000</c><c>      4.00000000</c><c>  PAW_PBE C 08Apr2002                   </c></rc>
    <rc><c>   6</c><c>H </c><c>      1.00000000</c><c>      1.00000000</c><c>  PAW_PBE H 15Jun2001                   </c></rc>
    <rc><c>   4</c><c>N </c><c>     14.00100000</c><c>      5.00000000</c><c>  PAW_PBE N 08Apr2002                   </c></rc>
    <rc><c>   1</c><c>O </c><c>     16.00000000</c><c>      6.00000000</c><c>  PAW_PBE O 08Apr2002                   </c></rc>
   </set>
  </array>
 </atominfo>
 <structure name="initialpos" >
  <crystal>
   <varray name="basis" >
    <v>      17.27103806       0.00000000       0.00000000 </v>
    <v>      -8.63551903      14.95715771       0.00000000 </v>
    <v>       0.00000000       0.00000000      15.00000000 </v>
   </varray>
   <i name="volume">   3874.88459904 </i>
   <varray name="rec_basis" >
    <v>       0.05790040       0.03342881       0.00000000 </v>
    <v>       0.00000000       0.06685762       0.00000000 </v>
    <v>       0.00000000       0.00000000       0.06666667 </v>
   </varray>
  </crystal>
  <varray name="positions" >
   <v>       0.99998735       0.99989170       0.49986872 </v>
   <v>       0.99924783       0.14213143       0.49991037 </v>
   <v>       0.99932844       0.28529165       0.49963057 </v>
   <v>       0.99973449       0.42839310       0.49919005 </v>
   <v>       0.99981997       0.57136295       0.49909206 </v>
   <v>       0.00036495       0.71437809       0.49925532 </v>
   <v>       0.00131962       0.85794913       0.49964334 </v>
   <v>       0.14401473       0.00165819       0.50008291 </v>
   <v>       0.14332581       0.14400016       0.49999680 </v>
   <v>       0.14175192       0.28549875       0.49962000 </v>
   <v>       0.14291016       0.42891645       0.49903932 </v>
   <v>       0.14319344       0.57140460       0.49907986 </v>
   <v>       0.14326194       0.71448186       0.49956047 </v>
   <v>       0.14364075       0.85806429       0.49992862 </v>
   <v>       0.28671374       0.00186037       0.50017168 </v>
   <v>       0.28723360       0.14596292       0.50000273 </v>
   <v>       0.28673875       0.29139987       0.49969785 </v>
   <v>       0.28512695       0.42641128       0.49904835 </v>
   <v>       0.28781473       0.57094465       0.49860452 </v>
   <v>       0.28615387       0.71484617       0.49947510 </v>
   <v>       0.28578581       0.85815500       0.50004574 </v>
   <v>       0.42904401       0.00076442       0.50002426 </v>
   <v>       0.43020221       0.14533524       0.49979907 </v>
   <v>       0.42943708       0.28674449       0.49968128 </v>
   <v>       0.42775570       0.85670565       0.49971882 </v>
   <v>       0.57094715       0.99903902       0.49972773 </v>
   <v>       0.57172625       0.14286213       0.49980072 </v>
   <v>       0.57557504       0.28960610       0.49917296 </v>
   <v>       0.56992392       0.85400440       0.49931609 </v>
   <v>       0.71298450       0.99731220       0.49959133 </v>
   <v>       0.71404746       0.14167334       0.49972893 </v>
   <v>       0.71466053       0.28528579       0.49950926 </v>
   <v>       0.71072937       0.42542763       0.49887038 </v>
   <v>       0.71565202       0.57364939       0.49924576 </v>
   <v>       0.71182869       0.85323401       0.49949167 </v>
   <v>       0.85613389       0.99835781       0.49968905 </v>
   <v>       0.85621048       0.14154981       0.49981657 </v>
   <v>       0.85679433       0.28502747       0.49958262 </v>
   <v>       0.85684927       0.42829885       0.49921472 </v>
   <v>       0.85616071       0.57092983       0.49880999 </v>
   <v>       0.85825545       0.71489205       0.49917554 </v>
   <v>       0.85734375       0.85593857       0.49950792 </v>
   <v>       0.04776306       0.09538972       0.49996480 </v>
   <v>       0.04639030       0.23732954       0.49978511 </v>
   <v>       0.04719601       0.38080143       0.49926966 </v>
   <v>       0.04772540       0.52380983       0.49911152 </v>
   <v>       0.04781757       0.66679748       0.49925628 </v>
   <v>       0.04829222       0.80990332       0.49961077 </v>
   <v>       0.04847483       0.95311602       0.49989835 </v>
   <v>       0.19163731       0.09694713       0.50007570 </v>
   <v>       0.19043151       0.23939229       0.49980228 </v>
   <v>       0.18936130       0.38037321       0.49917639 </v>
   <v>       0.19141126       0.52430739       0.49881145 </v>
   <v>       0.19077127       0.66690599       0.49942409 </v>
   <v>       0.19086495       0.81018573       0.49990461 </v>
   <v>       0.19148249       0.95367809       0.50011735 </v>
   <v>       0.33475931       0.09797843       0.50004465 </v>
   <v>       0.33596024       0.24212759       0.49985333 </v>
   <v>       0.33182625       0.52161433       0.49881214 </v>
   <v>       0.33695175       0.66982546       0.49882025 </v>
   <v>       0.33301391       0.80990250       0.49980501 </v>
   <v>       0.33363845       0.95350453       0.50014685 </v>
   <v>       0.47673940       0.09613645       0.49986921 </v>
   <v>       0.47779565       0.24123101       0.49945781 </v>
   <v>       0.47215705       0.80560328       0.49913532 </v>
   <v>       0.47597170       0.95230577       0.49987301 </v>
   <v>       0.61867733       0.09441543       0.49979427 </v>
   <v>       0.61993728       0.23848124       0.49959538 </v>
   <v>       0.61834522       0.80854874       0.49946626 </v>
   <v>       0.61755570       0.94990710       0.49952308 </v>
   <v>       0.76102120       0.09336165       0.49972521 </v>
   <v>       0.76189026       0.23701866       0.49961705 </v>
   <v>       0.76149338       0.38037583       0.49925038 </v>
   <v>       0.75971081       0.52432157       0.49879250 </v>
   <v>       0.76248634       0.66888326       0.49925491 </v>
   <v>       0.76102455       0.80397411       0.49946465 </v>
   <v>       0.76052142       0.94937207       0.49954809 </v>
   <v>       0.90370997       0.09363083       0.49984307 </v>
   <v>       0.90401197       0.23712947       0.49974831 </v>
   <v>       0.90430527       0.38067481       0.49936181 </v>
   <v>       0.90434860       0.52379802       0.49899713 </v>
   <v>       0.90465432       0.66631636       0.49901418 </v>
   <v>       0.90594149       0.80976747       0.49945643 </v>
   <v>       0.90442189       0.95130374       0.49969872 </v>
   <v>       0.46676845       0.35948514       0.49994378 </v>
   <v>       0.40458299       0.55780796       0.50082501 </v>
   <v>       0.64289050       0.53753475       0.50161444 </v>
   <v>       0.58111746       0.73581205       0.49982401 </v>
   <v>       0.56552888       0.59417728       0.53087581 </v>
   <v>       0.47907054       0.49872528       0.53165033 </v>
   <v>       0.42684281       0.71515358       0.49835820 </v>
   <v>       0.71616552       0.71417050       0.49942502 </v>
   <v>       0.33153429       0.38120935       0.49938577 </v>
   <v>       0.62083849       0.38003970       0.49849156 </v>
   <v>       0.52332578       0.54616498       0.56977595 </v>
  </varray>
  <varray name="selective"  type="logical" >
   <v type="logical" >  T  T  T </v>
   <v type="logical" >  T  T  T </v>
   <v type="logical" >  T  T  T </v>
   <v type="logical" >  T  T  T </v>
   <v type="logical" >  T  T  T </v>
   <v type="logical" >  T  T  T </v>
   <v type="logical" >  T  T  T </v>
   <v type="logical" >  T  T  T </v>
   <v type="logical" >  T  T  T </v>
   <v type="logical" >  T  T  T </v>
   <v type="logical" >  T  T  T </v>
   <v type="logical" >  T  T  T </v>
   <v type="logical" >  T  T  T </v>
   <v type="logical" >  T  T  T </v>
   <v type="logical" >  T  T  T </v>
   <v type="logical" >  T  T  T </v>
   <v type="logical" >  T  T  T </v>
   <v type="logical" >  T  T  T </v>
   <v type="logical" >  T  T  T </v>
   <v type="logical" >  T  T  T </v>
   <v type="logical" >  T  T  T </v>
   <v type="logical" >  T  T  T </v>
   <v type="logical" >  T  T  T </v>
   <v type="logical" >  T  T  T </v>
   <v type="logical" >  T  T  T </v>
   <v type="logical" >  T  T  T </v>
   <v type="logical" >  T  T  T </v>
   <v type="logical" >  T  T  T </v>
   <v type="logical" >  T  T  T </v>
   <v type="logical" >  T  T  T </v>
   <v type="logical" >  T  T  T </v>
   <v type="logical" >  T  T  T </v>
   <v type="logical" >  T  T  T </v>
   <v type="logical" >  T  T  T </v>
   <v type="logical" >  T  T  T </v>
   <v type="logical" >  T  T  T </v>
   <v type="logical" >  T  T  T </v>
   <v type="logical" >  T  T  T </v>
   <v type="logical" >  T  T  T </v>
   <v type="logical" >  T  T  T </v>
   <v type="logical" >  T  T  T </v>
   <v type="logical" >  T  T  T </v>
   <v type="logical" >  T  T  T </v>
   <v type="logical" >  T  T  T </v>
   <v type="logical" >  T  T  T </v>
   <v type="logical" >  T  T  T </v>
   <v type="logical" >  T  T  T </v>
   <v type="logical" >  T  T  T </v>
   <v type="logical" >  T  T  T </v>
   <v type="logical" >  T  T  T </v>
   <v type="logical" >  T  T  T </v>
   <v type="logical" >  T  T  T </v>
   <v type="logical" >  T  T  T </v>
   <v type="logical" >  T  T  T </v>
   <v type="logical" >  T  T  T </v>
   <v type="logical" >  T  T  T </v>
   <v type="logical" >  T  T  T </v>
   <v type="logical" >  T  T  T </v>
   <v type="logical" >  T  T  T </v>
   <v type="logical" >  T  T  T </v>
   <v type="logical" >  T  T  T </v>
   <v type="logical" >  T  T  T </v>
   <v type="logical" >  T  T  T </v>
   <v type="logical" >  T  T  T </v>
   <v type="logical" >  T  T  T </v>
   <v type="logical" >  T  T  T </v>
   <v type="logical" >  T  T  T </v>
   <v type="logical" >  T  T  T </v>
   <v type="logical" >  T  T  T </v>
   <v type="logical" >  T  T  T </v>
   <v type="logical" >  T  T  T </v>
   <v type="logical" >  T  T  T </v>
   <v type="logical" >  T  T  T </v>
   <v type="logical" >  T  T  T </v>
   <v type="logical" >  T  T  T </v>
   <v type="logical" >  T  T  T </v>
   <v type="logical" >  T  T  T </v>
   <v type="logical" >  T  T  T </v>
   <v type="logical" >  T  T  T </v>
   <v type="logical" >  T  T  T </v>
   <v type="logical" >  T  T  T </v>
   <v type="logical" >  T  T  T </v>
   <v type="logical" >  T  T  T </v>
   <v type="logical" >  T  T  T </v>
   <v type="logical" >  T  T  T </v>
   <v type="logical" >  T  T  T </v>
   <v type="logical" >  T  T  T </v>
   <v type="logical" >  T  T  T </v>
   <v type="logical" >  T  T  T </v>
   <v type="logical" >  T  T  T </v>
   <v type="logical" >  T  T  T </v>
   <v type="logical" >  T  T  T </v>
   <v type="logical" >  T  T  T </v>
   <v type="logical" >  T  T  T </v>
   <v type="logical" >  T  T  T </v>
  </varray>
  <nose>
   <v>      -3.00000000       0.00000000       0.00010000       0.00010000 </v>
  </nose>
 </structure>
 <calculation>
  <scstep>
   <time name="dav">   77.63   78.85</time>
   <time name="total">   82.89   84.19</time>
   <energy>
    <i name="alphaZ">    175.60570339 </i>
    <i name="ewald">  36481.31555274 </i>
    <i name="hartreedc"> -46891.83658159 </i>
    <i name="XCdc">   1231.14235067 </i>
    <i name="pawpsdc">  10290.17603344 </i>
    <i name="pawaedc"> -10344.35078173 </i>
    <i name="eentropy">     -0.05185975 </i>
    <i name="bandstr">  -1592.82601408 </i>
    <i name="atom">  13925.93113153 </i>
    <i name="e_fr_energy">   3275.10553462 </i>
    <i name="e_wo_entrp">   3275.15739436 </i>
    <i name="e_0_energy">   3275.13146449 </i>
   </energy>
  </scstep>
  <scstep>
   <time name="dav">  101.23  102.74</time>
   <time name="total">  101.23  102.78</time>
   <energy>
    <i name="e_fr_energy">   -235.36225737 </i>
    <i name="e_wo_entrp">   -235.36218224 </i>
    <i name="e_0_energy">   -235.36221981 </i>
   </energy>
  </scstep>
  <scstep>
   <time name="dav">   87.86   89.15</time>
   <time name="total">   87.86   89.15</time>
   <energy>
    <i name="e_fr_energy">   -853.05164339 </i>
    <i name="e_wo_entrp">   -853.05082852 </i>
    <i name="e_0_energy">   -853.05123595 </i>
   </energy>
  </scstep>
  <scstep>
   <time name="dav">   87.67   88.99</time>
   <time name="total">   87.67   88.99</time>
   <energy>
    <i name="e_fr_energy">   -875.16209642 </i>
    <i name="e_wo_entrp">   -875.16025645 </i>
    <i name="e_0_energy">   -875.16117644 </i>
   </energy>
  </scstep>
  <scstep>
   <time name="dav">   95.54   96.95</time>
   <time name="total">  100.45  101.91</time>
   <energy>
    <i name="e_fr_energy">   -875.80429499 </i>
    <i name="e_wo_entrp">   -875.80237887 </i>
    <i name="e_0_energy">   -875.80333693 </i>
   </energy>
  </scstep>
  <scstep>
   <time name="dav">   83.66   85.00</time>
   <time name="total">   93.75   95.25</time>
   <energy>
    <i name="e_fr_energy">   -859.36861973 </i>
    <i name="e_wo_entrp">   -859.36409681 </i>
    <i name="e_0_energy">   -859.36635827 </i>
   </energy>
  </scstep>
  <scstep>
   <time name="dav">   81.32   82.49</time>
   <time name="total">   91.99   93.30</time>
   <energy>
    <i name="e_fr_energy">   -838.30665187 </i>
    <i name="e_wo_entrp">   -838.30659235 </i>
    <i name="e_0_energy">   -838.30662211 </i>
   </energy>
  </scstep>
  <scstep>
   <time name="dav">   82.90   84.14</time>
   <time name="total">   93.78   95.12</time>
   <energy>
    <i name="e_fr_energy">   -833.61215857 </i>
    <i name="e_wo_entrp">   -833.61215671 </i>
    <i name="e_0_energy">   -833.61215764 </i>
   </energy>
  </scstep>
  <scstep>
   <time name="dav">   81.86   83.01</time>
   <time name="total">   92.51   93.88</time>
   <energy>
    <i name="e_fr_energy">   -833.52064409 </i>
    <i name="e_wo_entrp">   -833.52064286 </i>
    <i name="e_0_energy">   -833.52064348 </i>
   </energy>
  </scstep>
  <scstep>
   <time name="dav">   81.83   83.01</time>
   <time name="total">   92.56   93.88</time>
   <energy>
    <i name="e_fr_energy">   -833.42513446 </i>
    <i name="e_wo_entrp">   -833.42513309 </i>
    <i name="e_0_energy">   -833.42513377 </i>
   </energy>
  </scstep>
  <scstep>
   <time name="dav">   81.14   82.35</time>
   <time name="total">   91.99   93.37</time>
   <energy>
    <i name="e_fr_energy">   -833.41411497 </i>
    <i name="e_wo_entrp">   -833.41411378 </i>
    <i name="e_0_energy">   -833.41411437 </i>
   </energy>
  </scstep>
  <scstep>
   <time name="dav">   86.15   87.48</time>
   <time name="total">   96.76   98.23</time>
   <energy>
    <i name="e_fr_energy">   -833.41363949 </i>
    <i name="e_wo_entrp">   -833.41363834 </i>
    <i name="e_0_energy">   -833.41363892 </i>
   </energy>
  </scstep>
  <scstep>
   <time name="dav">   85.71   86.98</time>
   <time name="total">   95.98   97.43</time>
   <energy>
    <i name="e_fr_energy">   -833.41354266 </i>
    <i name="e_wo_entrp">   -833.41354149 </i>
    <i name="e_0_energy">   -833.41354207 </i>
   </energy>
  </scstep>
  <scstep>
   <time name="dav">   84.20   85.42</time>
   <time name="total">   94.85   96.21</time>
   <energy>
    <i name="e_fr_energy">   -833.41360863 </i>
    <i name="e_wo_entrp">   -833.41360747 </i>
    <i name="e_0_energy">   -833.41360805 </i>
   </energy>
  </scstep>
  <scstep>
   <time name="dav">   80.94   82.10</time>
   <time name="total">   91.76   93.10</time>
   <energy>
    <i name="e_fr_energy">   -833.41364266 </i>
    <i name="e_wo_entrp">   -833.41364150 </i>
    <i name="e_0_energy">   -833.41364208 </i>
   </energy>
  </scstep>
  <scstep>
   <time name="dav">   83.78   85.10</time>
   <time name="total">   94.25   95.74</time>
   <energy>
    <i name="e_fr_energy">   -833.41364442 </i>
    <i name="e_wo_entrp">   -833.41364325 </i>
    <i name="e_0_energy">   -833.41364384 </i>
   </energy>
  </scstep>
  <scstep>
   <time name="dav">   82.72   83.82</time>
   <time name="total">   87.83   89.01</time>
   <energy>
    <i name="alphaZ">    175.60570339 </i>
    <i name="ewald">  36481.31555274 </i>
    <i name="hartreedc"> -48347.62009059 </i>
    <i name="XCdc">   1280.07080132 </i>
    <i name="pawpsdc">  37175.16708531 </i>
    <i name="pawaedc"> -37240.20347343 </i>
    <i name="eentropy">     -0.00000117 </i>
    <i name="bandstr">  -4283.68035288 </i>
    <i name="atom">  13925.93113153 </i>
    <i name="e_fr_energy">   -833.41364378 </i>
    <i name="e_wo_entrp">   -833.41364261 </i>
    <i name="e_0_energy">   -833.41364319 </i>
   </energy>
  </scstep>
  <structure>
   <crystal>
    <varray name="basis" >
     <v>      17.27103806       0.00000000       0.00000000 </v>
     <v>      -8.63551903      14.95715771       0.00000000 </v>
     <v>       0.00000000       0.00000000      15.00000000 </v>
    </varray>
    <i name="volume">   3874.88459904 </i>
    <varray name="rec_basis" >
     <v>       0.05790040       0.03342881       0.00000000 </v>
     <v>       0.00000000       0.06685762       0.00000000 </v>
     <v>       0.00000000       0.00000000       0.06666667 </v>
    </varray>
   </crystal>
   <varray name="positions" >
    <v>       0.99998735       0.99989170       0.49986872 </v>
    <v>       0.99924783       0.14213143       0.49991037 </v>
    <v>       0.99932844       0.28529165       0.49963057 </v>
    <v>       0.99973449       0.42839310       0.49919005 </v>
    <v>       0.99981997       0.57136295       0.49909206 </v>
    <v>       0.00036495       0.71437809       0.49925532 </v>
    <v>       0.00131962       0.85794913       0.49964334 </v>
    <v>       0.14401473       0.00165819       0.50008291 </v>
    <v>       0.14332581       0.14400016       0.49999680 </v>
    <v>       0.14175192       0.28549875       0.49962000 </v>
    <v>       0.14291016       0.42891645       0.49903932 </v>
    <v>       0.14319344       0.57140460       0.49907986 </v>
    <v>       0.14326194       0.71448186       0.49956047 </v>
    <v>       0.14364075       0.85806429       0.49992862 </v>
    <v>       0.28671374       0.00186037       0.50017168 </v>
    <v>       0.28723360       0.14596292       0.50000273 </v>
    <v>       0.28673875       0.29139987       0.49969785 </v>
    <v>       0.28512695       0.42641128       0.49904835 </v>
    <v>       0.28781473       0.57094465       0.49860452 </v>
    <v>       0.28615387       0.71484617       0.49947510 </v>
    <v>       0.28578581       0.85815500       0.50004574 </v>
    <v>       0.42904401       0.00076442       0.50002426 </v>
    <v>       0.43020221       0.14533524       0.49979907 </v>
    <v>       0.42943708       0.28674449       0.49968128 </v>
    <v>       0.42775570       0.85670565       0.49971882 </v>
    <v>       0.57094715       0.99903902       0.49972773 </v>
    <v>       0.57172625       0.14286213       0.49980072 </v>
    <v>       0.57557504       0.28960610       0.49917296 </v>
    <v>       0.56992392       0.85400440       0.49931609 </v>
    <v>       0.71298450       0.99731220       0.49959133 </v>
    <v>       0.71404746       0.14167334       0.49972893 </v>
    <v>       0.71466053       0.28528579       0.49950926 </v>
    <v>       0.71072937       0.42542763       0.49887038 </v>
    <v>       0.71565202       0.57364939       0.49924576 </v>
    <v>       0.71182869       0.85323401       0.49949167 </v>
    <v>       0.85613389       0.99835781       0.49968905 </v>
    <v>       0.85621048       0.14154981       0.49981657 </v>
    <v>       0.85679433       0.28502747       0.49958262 </v>
    <v>       0.85684927       0.42829885       0.49921472 </v>
    <v>       0.85616071       0.57092983       0.49880999 </v>
    <v>       0.85825545       0.71489205       0.49917554 </v>
    <v>       0.85734375       0.85593857       0.49950792 </v>
    <v>       0.04776306       0.09538972       0.49996480 </v>
    <v>       0.04639030       0.23732954       0.49978511 </v>
    <v>       0.04719601       0.38080143       0.49926966 </v>
    <v>       0.04772540       0.52380983       0.49911152 </v>
    <v>       0.04781757       0.66679748       0.49925628 </v>
    <v>       0.04829222       0.80990332       0.49961077 </v>
    <v>       0.04847483       0.95311602       0.49989835 </v>
    <v>       0.19163731       0.09694713       0.50007570 </v>
    <v>       0.19043151       0.23939229       0.49980228 </v>
    <v>       0.18936130       0.38037321       0.49917639 </v>
    <v>       0.19141126       0.52430739       0.49881145 </v>
    <v>       0.19077127       0.66690599       0.49942409 </v>
    <v>       0.19086495       0.81018573       0.49990461 </v>
    <v>       0.19148249       0.95367809       0.50011735 </v>
    <v>       0.33475931       0.09797843       0.50004465 </v>
    <v>       0.33596024       0.24212759       0.49985333 </v>
    <v>       0.33182625       0.52161433       0.49881214 </v>
    <v>       0.33695175       0.66982546       0.49882025 </v>
    <v>       0.33301391       0.80990250       0.49980501 </v>
    <v>       0.33363845       0.95350453       0.50014685 </v>
    <v>       0.47673940       0.09613645       0.49986921 </v>
    <v>       0.47779565       0.24123101       0.49945781 </v>
    <v>       0.47215705       0.80560328       0.49913532 </v>
    <v>       0.47597170       0.95230577       0.49987301 </v>
    <v>       0.61867733       0.09441543       0.49979427 </v>
    <v>       0.61993728       0.23848124       0.49959538 </v>
    <v>       0.61834522       0.80854874       0.49946626 </v>
    <v>       0.61755570       0.94990710       0.49952308 </v>
    <v>       0.76102120       0.09336165       0.49972521 </v>
    <v>       0.76189026       0.23701866       0.49961705 </v>
    <v>       0.76149338       0.38037583       0.49925038 </v>
    <v>       0.75971081       0.52432157       0.49879250 </v>
    <v>       0.76248634       0.66888326       0.49925491 </v>
    <v>       0.76102455       0.80397411       0.49946465 </v>
    <v>       0.76052142       0.94937207       0.49954809 </v>
    <v>       0.90370997       0.09363083       0.49984307 </v>
    <v>       0.90401197       0.23712947       0.49974831 </v>
    <v>       0.90430527       0.38067481       0.49936181 </v>
    <v>       0.90434860       0.52379802       0.49899713 </v>
    <v>       0.90465432       0.66631636       0.49901418 </v>
    <v>       0.90594149       0.80976747       0.49945643 </v>
    <v>       0.90442189       0.95130374       0.49969872 </v>
    <v>       0.46676845       0.35948514       0.49994378 </v>
    <v>       0.40458299       0.55780796       0.50082501 </v>
    <v>       0.64289050       0.53753475       0.50161444 </v>
    <v>       0.58111746       0.73581205       0.49982401 </v>
    <v>       0.56552888       0.59417728       0.53087581 </v>
    <v>       0.47907054       0.49872528       0.53165033 </v>
    <v>       0.42684281       0.71515358       0.49835820 </v>
    <v>       0.71616552       0.71417050       0.49942502 </v>
    <v>       0.33153429       0.38120935       0.49938577 </v>
    <v>       0.62083849       0.38003970       0.49849156 </v>
    <v>       0.52332578       0.54616498       0.56977595 </v>
   </varray>
  </structure>
  <varray name="forces" >
   <v>       0.00025858      -0.00003749      -0.00037228 </v>
   <v>       0.00059197       0.00088160      -0.00013632 </v>
   <v>       0.00103956       0.00080390      -0.00107187 </v>
   <v>       0.00300854      -0.00033525      -0.00216867 </v>
   <v>       0.00103062      -0.00015089      -0.00175217 </v>
   <v>       0.00017876       0.00022901      -0.00106517 </v>
   <v>       0.00028787      -0.00000081      -0.00081639 </v>
   <v>       0.00004919      -0.00002762      -0.00114275 </v>
   <v>       0.00043495       0.00088475       0.00019550 </v>
   <v>       0.00114627       0.00127765       0.00028499 </v>
   <v>       0.00022138       0.00005027      -0.00058666 </v>
   <v>       0.00022142      -0.00032297      -0.00167615 </v>
   <v>      -0.00067552       0.00069827      -0.00183294 </v>
   <v>      -0.00103319       0.00075642      -0.00200552 </v>
   <v>      -0.00016456       0.00010540      -0.00138181 </v>
   <v>      -0.00001204       0.00020860       0.00021811 </v>
   <v>       0.00027800       0.00046998       0.00195204 </v>
   <v>       0.00012588      -0.00071183       0.00198752 </v>
   <v>      -0.00054937      -0.00066238       0.00108270 </v>
   <v>       0.00027135      -0.00026885      -0.00028379 </v>
   <v>      -0.00087765       0.00039024      -0.00127104 </v>
   <v>      -0.00009661       0.00021159      -0.00087959 </v>
   <v>      -0.00000762       0.00027888      -0.00041932 </v>
   <v>      -0.00019524       0.00043348       0.00125681 </v>
   <v>       0.00025073      -0.00001217       0.00042452 </v>
   <v>      -0.00009717       0.00036330      -0.00029547 </v>
   <v>      -0.00016027       0.00000120      -0.00112497 </v>
   <v>      -0.00012786       0.00048611      -0.00000142 </v>
   <v>       0.00022028       0.00005528       0.00088876 </v>
   <v>       0.00011504       0.00036958      -0.00040548 </v>
   <v>      -0.00009734       0.00021140      -0.00159757 </v>
   <v>      -0.00009889       0.00010208      -0.00118937 </v>
   <v>       0.00004119      -0.00005813      -0.00042894 </v>
   <v>       0.00002101       0.00064585       0.00135965 </v>
   <v>      -0.00000801       0.00023062       0.00079802 </v>
   <v>       0.00009921       0.00017067      -0.00022159 </v>
   <v>       0.00029425      -0.00202627      -0.00226254 </v>
   <v>      -0.00008247       0.00018074      -0.00216627 </v>
   <v>       0.00061823      -0.00054562      -0.00164969 </v>
   <v>       0.00145952      -0.00054726      -0.00090788 </v>
   <v>      -0.00021077       0.00011713      -0.00031333 </v>
   <v>      -0.00009317       0.00002822       0.00010553 </v>
   <v>      -0.00020527      -0.00022191      -0.00007753 </v>
   <v>      -0.00343299      -0.00302177      -0.00034375 </v>
   <v>      -0.00111042       0.00028852      -0.00143020 </v>
   <v>      -0.00042617       0.00038224      -0.00204947 </v>
   <v>      -0.00032681       0.00002951      -0.00186351 </v>
   <v>      -0.00015246      -0.00030600      -0.00154028 </v>
   <v>      -0.00016558      -0.00000482      -0.00086666 </v>
   <v>      -0.00008936      -0.00008023      -0.00018345 </v>
   <v>      -0.00088897      -0.00301304       0.00044266 </v>
   <v>       0.00000641      -0.00006793       0.00049302 </v>
   <v>       0.00060651       0.00051979      -0.00071994 </v>
   <v>       0.00007797       0.00006235      -0.00143423 </v>
   <v>       0.00353672      -0.00266743      -0.00165812 </v>
   <v>       0.00011664       0.00027294      -0.00174471 </v>
   <v>       0.00003353       0.00006666      -0.00047237 </v>
   <v>      -0.00039448      -0.00071973       0.00066996 </v>
   <v>       0.00043917      -0.00034933       0.00158645 </v>
   <v>       0.00024082       0.00029343       0.00076940 </v>
   <v>       0.00002823      -0.00025678      -0.00036037 </v>
   <v>       0.00036607      -0.00017313      -0.00131329 </v>
   <v>       0.00001322       0.00000897      -0.00098445 </v>
   <v>       0.00033820      -0.00037648       0.00039575 </v>
   <v>      -0.00010425       0.00013763       0.00123045 </v>
   <v>       0.00003349       0.00023508      -0.00013219 </v>
   <v>      -0.00007611       0.00021445      -0.00120004 </v>
   <v>      -0.00052892       0.00031557      -0.00076752 </v>
   <v>      -0.00021266       0.00229065      -0.00014224 </v>
   <v>       0.00001068       0.00046754       0.00010323 </v>
   <v>      -0.00013554       0.00048792      -0.00082197 </v>
   <v>      -0.00007954       0.00010941      -0.00193134 </v>
   <v>      -0.00079291       0.00028206      -0.00127315 </v>
   <v>       0.00009437       0.00029497      -0.00023758 </v>
   <v>       0.00023821       0.00020322       0.00126679 </v>
   <v>       0.00012536       0.00031322       0.00126137 </v>
   <v>      -0.00003697       0.00050410       0.00001261 </v>
   <v>      -0.00027731       0.00046940      -0.00009920 </v>
   <v>      -0.00029772       0.00029249      -0.00112853 </v>
   <v>      -0.00123160      -0.00042146      -0.00221734 </v>
   <v>      -0.00354873       0.00212772      -0.00091467 </v>
   <v>      -0.00039872      -0.00022466      -0.00085460 </v>
   <v>      -0.00009962      -0.00010148      -0.00031166 </v>
   <v>      -0.00007365       0.00042197      -0.00026076 </v>
   <v>      -0.00000025      -0.00077134       0.00151380 </v>
   <v>       0.00036534      -0.00048767       0.00268080 </v>
   <v>       0.00014844       0.00028198       0.00271841 </v>
   <v>       0.00024611       0.00030465       0.00096212 </v>
   <v>      -0.00051489      -0.00160383       0.01865463 </v>
   <v>      -0.00092645      -0.00093624       0.01922944 </v>
   <v>      -0.00045516       0.00069476       0.00160928 </v>
   <v>       0.00012844       0.00075373       0.00245235 </v>
   <v>      -0.00011000      -0.00036030       0.00325800 </v>
   <v>       0.00069858      -0.00001816       0.00028251 </v>
   <v>       0.00152491      -0.00187784      -0.01138516 </v>
  </varray>
  <varray name="stress" >
   <v>      -2.85111112       0.03118185       0.00460035 </v>
   <v>       0.03118215     -11.22830872      -0.00724073 </v>
   <v>       0.00460032      -0.00724076      -0.26792230 </v>
  </varray>
  <energy>
   <i name="e_fr_energy">   -841.03867182 </i>
   <i name="e_wo_entrp">   -841.03867065 </i>
   <i name="e_0_energy">   -841.03867123 </i>
  </energy>
  <time name="totalsc"> 1758.82 1784.61</time>
 </calculation>
 <calculation>
  <scstep>
   <time name="dav">   78.19   79.32</time>
   <time name="total">   89.45   90.71</time>
   <energy>
    <i name="alphaZ">    175.60570339 </i>
    <i name="ewald">  36481.41431095 </i>
    <i name="hartreedc"> -48347.69315253 </i>
    <i name="XCdc">   1280.07184638 </i>
    <i name="pawpsdc">  37175.33137032 </i>
    <i name="pawaedc"> -37240.36755937 </i>
    <i name="eentropy">     -0.00000117 </i>
    <i name="bandstr">  -4283.70729445 </i>
    <i name="atom">  13925.93113153 </i>
    <i name="e_fr_energy">   -833.41364496 </i>
    <i name="e_wo_entrp">   -833.41364379 </i>
    <i name="e_0_energy">   -833.41364438 </i>
   </energy>
  </scstep>
  <scstep>
   <time name="dav">   64.58   65.49</time>
   <time name="total">   69.43   70.40</time>
   <energy>
    <i name="alphaZ">    175.60570339 </i>
    <i name="ewald">  36481.41431095 </i>
    <i name="hartreedc"> -48347.69501096 </i>
    <i name="XCdc">   1280.07213654 </i>
    <i name="pawpsdc">  37175.24118955 </i>
    <i name="pawaedc"> -37240.27745414 </i>
    <i name="eentropy">     -0.00000117 </i>
    <i name="bandstr">  -4283.70565099 </i>
    <i name="atom">  13925.93113153 </i>
    <i name="e_fr_energy">   -833.41364530 </i>
    <i name="e_wo_entrp">   -833.41364413 </i>
    <i name="e_0_energy">   -833.41364471 </i>
   </energy>
  </scstep>
  <structure>
   <crystal>
    <varray name="basis" >
     <v>      17.27103806       0.00000000       0.00000000 </v>
     <v>      -8.63551903      14.95715771       0.00000000 </v>
     <v>       0.00000000       0.00000000      15.00000000 </v>
    </varray>
    <i name="volume">   3874.88459904 </i>
    <varray name="rec_basis" >
     <v>       0.05790040       0.03342881       0.00000000 </v>
     <v>       0.00000000       0.06685762       0.00000000 </v>
     <v>       0.00000000       0.00000000       0.06666667 </v>
    </varray>
   </crystal>
   <varray name="positions" >
    <v>       0.99998756       0.99989175       0.49986820 </v>
    <v>       0.99924852       0.14213208       0.49991018 </v>
    <v>       0.99932934       0.28529224       0.49962994 </v>
    <v>       0.99973616       0.42839294       0.49918885 </v>
    <v>       0.99982056       0.57136291       0.49909107 </v>
    <v>       0.00036520       0.71437832       0.49925460 </v>
    <v>       0.00131986       0.85794921       0.49964255 </v>
    <v>       0.14401482       0.00165824       0.50008191 </v>
    <v>       0.14332642       0.14400081       0.49999668 </v>
    <v>       0.14175304       0.28549965       0.49962004 </v>
    <v>       0.14291032       0.42891654       0.49903903 </v>
    <v>       0.14319348       0.57140444       0.49907892 </v>
    <v>       0.14326183       0.71448240       0.49955936 </v>
    <v>       0.14364046       0.85806486       0.49992722 </v>
    <v>       0.28671374       0.00186050       0.50017065 </v>
    <v>       0.28723372       0.14596314       0.50000254 </v>
    <v>       0.28673912       0.29140024       0.49969865 </v>
    <v>       0.28512677       0.42641086       0.49904940 </v>
    <v>       0.28781417       0.57094426       0.49860539 </v>
    <v>       0.28615397       0.71484605       0.49947506 </v>
    <v>       0.28578548       0.85815533       0.50004493 </v>
    <v>       0.42904408       0.00076463       0.50002368 </v>
    <v>       0.43020235       0.14533548       0.49979872 </v>
    <v>       0.42943720       0.28674487       0.49968196 </v>
    <v>       0.42775588       0.85670570       0.49971918 </v>
    <v>       0.57094727       0.99903931       0.49972755 </v>
    <v>       0.57172620       0.14286218       0.49980005 </v>
    <v>       0.57557519       0.28960648       0.49917306 </v>
    <v>       0.56992412       0.85400448       0.49931667 </v>
    <v>       0.71298473       0.99731249       0.49959096 </v>
    <v>       0.71404752       0.14167354       0.49972797 </v>
    <v>       0.71466056       0.28528591       0.49950867 </v>
    <v>       0.71072943       0.42542766       0.49887023 </v>
    <v>       0.71565230       0.57364988       0.49924644 </v>
    <v>       0.71182884       0.85323423       0.49949179 </v>
    <v>       0.85613406       0.99835798       0.49968865 </v>
    <v>       0.85621001       0.14154851       0.49981505 </v>
    <v>       0.85679438       0.28502765       0.49958139 </v>
    <v>       0.85684949       0.42829855       0.49921386 </v>
    <v>       0.85616144       0.57092954       0.49880939 </v>
    <v>       0.85825545       0.71489222       0.49917498 </v>
    <v>       0.85734379       0.85593868       0.49950757 </v>
    <v>       0.04776292       0.09538964       0.49996455 </v>
    <v>       0.04638733       0.23732757       0.49978483 </v>
    <v>       0.04719548       0.38080168       0.49926888 </v>
    <v>       0.04772531       0.52381015       0.49911038 </v>
    <v>       0.04781745       0.66679757       0.49925515 </v>
    <v>       0.04829210       0.80990319       0.49960964 </v>
    <v>       0.04847480       0.95311609       0.49989752 </v>
    <v>       0.19163729       0.09694715       0.50007527 </v>
    <v>       0.19043003       0.23939034       0.49980231 </v>
    <v>       0.18936128       0.38037320       0.49917663 </v>
    <v>       0.19141179       0.52430779       0.49881111 </v>
    <v>       0.19077137       0.66690609       0.49942329 </v>
    <v>       0.19086616       0.81018401       0.49990354 </v>
    <v>       0.19148271       0.95367834       0.50011604 </v>
    <v>       0.33475940       0.09797853       0.50004416 </v>
    <v>       0.33595984       0.24212719       0.49985337 </v>
    <v>       0.33182636       0.52161416       0.49881323 </v>
    <v>       0.33695200       0.66982571       0.49882096 </v>
    <v>       0.33301388       0.80990239       0.49980486 </v>
    <v>       0.33363865       0.95350449       0.50014596 </v>
    <v>       0.47673946       0.09613652       0.49986856 </v>
    <v>       0.47779578       0.24123082       0.49945805 </v>
    <v>       0.47215707       0.80560342       0.49913626 </v>
    <v>       0.47597185       0.95230599       0.49987296 </v>
    <v>       0.61867741       0.09441563       0.49979354 </v>
    <v>       0.61993713       0.23848151       0.49959500 </v>
    <v>       0.61834593       0.80855032       0.49946601 </v>
    <v>       0.61755591       0.94990746       0.49952311 </v>
    <v>       0.76102132       0.09336203       0.49972466 </v>
    <v>       0.76189030       0.23701879       0.49961597 </v>
    <v>       0.76149307       0.38037608       0.49924975 </v>
    <v>       0.75971104       0.52432186       0.49879233 </v>
    <v>       0.76248664       0.66888347       0.49925522 </v>
    <v>       0.76102482       0.80397441       0.49946487 </v>
    <v>       0.76052162       0.94937246       0.49954783 </v>
    <v>       0.90371001       0.09363120       0.49984290 </v>
    <v>       0.90401193       0.23712972       0.49974766 </v>
    <v>       0.90430445       0.38067458       0.49936059 </v>
    <v>       0.90434730       0.52379951       0.49899668 </v>
    <v>       0.90465409       0.66631629       0.49901351 </v>
    <v>       0.90594147       0.80976749       0.49945584 </v>
    <v>       0.90442206       0.95130410       0.49969824 </v>
    <v>       0.46676835       0.35948472       0.49994484 </v>
    <v>       0.40458299       0.55780767       0.50082703 </v>
    <v>       0.64289072       0.53753510       0.50161621 </v>
    <v>       0.58111781       0.73581231       0.49982467 </v>
    <v>       0.56552588       0.59417459       0.53087782 </v>
    <v>       0.47906760       0.49872266       0.53165427 </v>
    <v>       0.42684280       0.71515408       0.49835947 </v>
    <v>       0.71616596       0.71417111       0.49942576 </v>
    <v>       0.33153410       0.38120918       0.49938722 </v>
    <v>       0.62083895       0.38003975       0.49849185 </v>
    <v>       0.52332579       0.54616145       0.56975815 </v>
   </varray>
  </structure>
  <varray name="forces" >
   <v>      -0.00006609      -0.00005932      -0.00042594 </v>
   <v>      -0.00022695      -0.00029749      -0.00016312 </v>
   <v>      -0.00052143      -0.00015264      -0.00110764 </v>
   <v>       0.00060106      -0.00021722      -0.00224781 </v>
   <v>      -0.00024261       0.00008690      -0.00182876 </v>
   <v>      -0.00019492      -0.00018265      -0.00120724 </v>
   <v>      -0.00013771      -0.00015091      -0.00092264 </v>
   <v>      -0.00007737      -0.00006138      -0.00120154 </v>
   <v>      -0.00013142      -0.00035856       0.00014695 </v>
   <v>      -0.00033511      -0.00065075       0.00027471 </v>
   <v>      -0.00002556       0.00011863      -0.00062850 </v>
   <v>       0.00039315      -0.00075092      -0.00024121 </v>
   <v>       0.00003982      -0.00030950      -0.00191956 </v>
   <v>       0.00027613      -0.00022905      -0.00209191 </v>
   <v>       0.00006481      -0.00002990      -0.00145335 </v>
   <v>      -0.00007722      -0.00012979       0.00015454 </v>
   <v>      -0.00010824      -0.00037361       0.00190471 </v>
   <v>       0.00018780      -0.00017183       0.00200904 </v>
   <v>       0.00150002       0.00026510      -0.00046192 </v>
   <v>      -0.00014441      -0.00003825      -0.00031321 </v>
   <v>       0.00031873      -0.00023824      -0.00133202 </v>
   <v>      -0.00000631      -0.00006184      -0.00093021 </v>
   <v>       0.00000235       0.00004306      -0.00044943 </v>
   <v>      -0.00010222      -0.00024914       0.00125827 </v>
   <v>      -0.00020270       0.00012575       0.00042908 </v>
   <v>      -0.00009045       0.00012886      -0.00032939 </v>
   <v>      -0.00015474       0.00021455      -0.00117307 </v>
   <v>      -0.00016701       0.00008379      -0.00000665 </v>
   <v>      -0.00012882       0.00053375       0.00084978 </v>
   <v>      -0.00011871       0.00023034      -0.00041984 </v>
   <v>      -0.00013894       0.00018905      -0.00163954 </v>
   <v>      -0.00033268       0.00001122      -0.00128378 </v>
   <v>      -0.00003573       0.00027026      -0.00044481 </v>
   <v>      -0.00010460       0.00001689       0.00140535 </v>
   <v>       0.00001995       0.00054344       0.00073931 </v>
   <v>       0.00000099       0.00024816      -0.00022887 </v>
   <v>      -0.00031691       0.00171148       0.00060754 </v>
   <v>      -0.00015443      -0.00008625      -0.00221894 </v>
   <v>      -0.00045271       0.00000597      -0.00171045 </v>
   <v>      -0.00020680       0.00011037      -0.00093482 </v>
   <v>       0.00003987       0.00004296      -0.00033572 </v>
   <v>       0.00010900       0.00024804       0.00007338 </v>
   <v>       0.00015499       0.00007639      -0.00010966 </v>
   <v>       0.00249101       0.00212338      -0.00037199 </v>
   <v>       0.00026890       0.00016107      -0.00149852 </v>
   <v>       0.00019862      -0.00016132      -0.00214684 </v>
   <v>      -0.00012550      -0.00005004      -0.00192378 </v>
   <v>       0.00005901       0.00002961      -0.00160314 </v>
   <v>       0.00006871      -0.00015788      -0.00093468 </v>
   <v>       0.00000435      -0.00004760      -0.00023123 </v>
   <v>       0.00069729       0.00194221       0.00102347 </v>
   <v>      -0.00006500      -0.00018831       0.00050215 </v>
   <v>       0.00027019      -0.00012291      -0.00070623 </v>
   <v>      -0.00007541      -0.00008503      -0.00148858 </v>
   <v>      -0.00264079       0.00196161      -0.00177157 </v>
   <v>      -0.00011287      -0.00004988      -0.00183243 </v>
   <v>      -0.00000153       0.00008438      -0.00053130 </v>
   <v>      -0.00008391      -0.00017606       0.00079281 </v>
   <v>       0.00035736      -0.00033920       0.00175169 </v>
   <v>       0.00011323      -0.00016935       0.00079996 </v>
   <v>       0.00002843      -0.00005050      -0.00037583 </v>
   <v>      -0.00016641       0.00006062      -0.00137712 </v>
   <v>      -0.00011647       0.00007494      -0.00102763 </v>
   <v>      -0.00010965      -0.00004524       0.00039051 </v>
   <v>       0.00004097       0.00025063       0.00123070 </v>
   <v>      -0.00004306      -0.00004160      -0.00016239 </v>
   <v>      -0.00014210       0.00022099      -0.00124209 </v>
   <v>       0.00142129      -0.00227088      -0.00182872 </v>
   <v>       0.00023619      -0.00066475       0.00140824 </v>
   <v>      -0.00004378       0.00020603       0.00010291 </v>
   <v>      -0.00013902       0.00002851      -0.00101525 </v>
   <v>      -0.00026684       0.00005965      -0.00200693 </v>
   <v>       0.00000179      -0.00012238      -0.00131061 </v>
   <v>      -0.00009564       0.00014969      -0.00023146 </v>
   <v>      -0.00023195       0.00022793       0.00126878 </v>
   <v>      -0.00005178       0.00022788       0.00124838 </v>
   <v>      -0.00001570       0.00025542      -0.00001028 </v>
   <v>       0.00000624      -0.00003690      -0.00027950 </v>
   <v>       0.00008719      -0.00009906      -0.00134871 </v>
   <v>       0.00008797      -0.00001477      -0.00230655 </v>
   <v>      -0.00093099       0.00061258      -0.00105662 </v>
   <v>      -0.00005548      -0.00001096      -0.00090556 </v>
   <v>      -0.00006542       0.00007028      -0.00036003 </v>
   <v>       0.00001040      -0.00003276      -0.00029150 </v>
   <v>      -0.00004111      -0.00036263       0.00151115 </v>
   <v>       0.00035924      -0.00044888       0.00265335 </v>
   <v>       0.00010833       0.00018500       0.00269212 </v>
   <v>       0.00017763       0.00075109       0.00090579 </v>
   <v>       0.00139186       0.00300354       0.01302430 </v>
   <v>      -0.00318570      -0.00522073       0.01386723 </v>
   <v>       0.00040748      -0.00012739       0.00155909 </v>
   <v>      -0.00021255       0.00002687       0.00246613 </v>
   <v>       0.00031993      -0.00016321       0.00327572 </v>
   <v>      -0.00048905       0.00037485       0.00024474 </v>
   <v>       0.00158821      -0.00233427      -0.00063324 </v>
  </varray>
  <varray name="stress" >
   <v>      -2.85022062       0.03243727       0.00420150 </v>
   <v>       0.03243757     -11.22409187      -0.00756360 </v>
   <v>       0.00420146      -0.00756362      -0.25973889 </v>
  </varray>
  <energy>
   <i name="e_fr_energy">   -841.03867639 </i>
   <i name="e_wo_entrp">   -841.03867522 </i>
   <i name="e_0_energy">   -841.03867581 </i>
  </energy>
  <time name="totalsc">  346.67  351.33</time>
 </calculation>
 <calculation>
  <scstep>
   <time name="dav">   76.25   77.43</time>
   <time name="total">   87.92   89.23</time>
   <energy>
    <i name="alphaZ">    175.60570339 </i>
    <i name="ewald">  36481.54689689 </i>
    <i name="hartreedc"> -48347.80337477 </i>
    <i name="XCdc">   1280.07308626 </i>
    <i name="pawpsdc">  37175.12654055 </i>
    <i name="pawaedc"> -37240.16294762 </i>
    <i name="eentropy">     -0.00000117 </i>
    <i name="bandstr">  -4283.73067469 </i>
    <i name="atom">  13925.93113153 </i>
    <i name="e_fr_energy">   -833.41363961 </i>
    <i name="e_wo_entrp">   -833.41363845 </i>
    <i name="e_0_energy">   -833.41363903 </i>
   </energy>
  </scstep>
  <scstep>
   <time name="dav">   73.49   74.56</time>
   <time name="total">   84.61   85.90</time>
   <energy>
    <i name="e_fr_energy">   -833.41364004 </i>
    <i name="e_wo_entrp">   -833.41363887 </i>
    <i name="e_0_energy">   -833.41363946 </i>
   </energy>
  </scstep>
  <scstep>
   <time name="dav">   63.66   64.49</time>
   <time name="total">   69.15   70.04</time>
   <energy>
    <i name="alphaZ">    175.60570339 </i>
    <i name="ewald">  36481.54689689 </i>
    <i name="hartreedc"> -48347.81712604 </i>
    <i name="XCdc">   1280.07393377 </i>
    <i name="pawpsdc">  37175.05851734 </i>
    <i name="pawaedc"> -37240.09528008 </i>
    <i name="eentropy">     -0.00000117 </i>
    <i name="bandstr">  -4283.71741541 </i>
    <i name="atom">  13925.93113153 </i>
    <i name="e_fr_energy">   -833.41363977 </i>
    <i name="e_wo_entrp">   -833.41363861 </i>
    <i name="e_0_energy">   -833.41363919 </i>
   </energy>
  </scstep>
  <structure>
   <crystal>
    <varray name="basis" >
     <v>      17.27103806       0.00000000       0.00000000 </v>
     <v>      -8.63551903      14.95715771       0.00000000 </v>
     <v>       0.00000000       0.00000000      15.00000000 </v>
    </varray>
    <i name="volume">   3874.88459904 </i>
    <varray name="rec_basis" >
     <v>       0.05790040       0.03342881       0.00000000 </v>
     <v>       0.00000000       0.06685762       0.00000000 </v>
     <v>       0.00000000       0.00000000       0.06666667 </v>
    </varray>
   </crystal>
   <varray name="positions" >
    <v>       0.99998775       0.99989182       0.49986710 </v>
    <v>       0.99924891       0.14213249       0.49990977 </v>
    <v>       0.99932978       0.28529271       0.49962861 </v>
    <v>       0.99973800       0.42839269       0.49918632 </v>
    <v>       0.99982102       0.57136302       0.49908899 </v>
    <v>       0.00036530       0.71437846       0.49925301 </v>
    <v>       0.00132001       0.85794924       0.49964089 </v>
    <v>       0.14401489       0.00165832       0.50007984 </v>
    <v>       0.14332680       0.14400120       0.49999641 </v>
    <v>       0.14175360       0.28550002       0.49962012 </v>
    <v>       0.14291049       0.42891675       0.49903839 </v>
    <v>       0.14319351       0.57140379       0.49907809 </v>
[...]
       <r>   -13.6260    12.9252    61.9391 </r>
       <r>   -13.5269     8.2999    62.7618 </r>
       <r>   -13.4278     6.6199    63.4179 </r>
       <r>   -13.3286     4.7870    63.8924 </r>
       <r>   -13.2295     5.7120    64.4586 </r>
       <r>   -13.1304     1.1388    64.5714 </r>
       <r>   -13.0313     6.1374    65.1798 </r>
       <r>   -12.9322     5.7183    65.7466 </r>
       <r>   -12.8331     8.2045    66.5598 </r>
       <r>   -12.7339     7.0707    67.2606 </r>
       <r>   -12.6348    17.5802    69.0031 </r>
       <r>   -12.5357    11.4988    70.1429 </r>
       <r>   -12.4366     9.8816    71.1223 </r>
       <r>   -12.3375     6.2154    71.7384 </r>
       <r>   -12.2383     4.4552    72.1800 </r>
       <r>   -12.1392     4.0291    72.5793 </r>
       <r>   -12.0401     7.5297    73.3257 </r>
       <r>   -11.9410     5.6810    73.8888 </r>
       <r>   -11.8419     7.5501    74.6371 </r>
       <r>   -11.7427     9.0586    75.5350 </r>
       <r>   -11.6436    11.2174    76.6468 </r>
       <r>   -11.5445     9.3641    77.5750 </r>
       <r>   -11.4454    15.1510    79.0767 </r>
       <r>   -11.3463     9.8788    80.0559 </r>
       <r>   -11.2472     8.6667    80.9150 </r>
       <r>   -11.1480    10.1012    81.9162 </r>
       <r>   -11.0489    12.2595    83.1313 </r>
       <r>   -10.9498     7.9235    83.9167 </r>
       <r>   -10.8507     7.6596    84.6759 </r>
       <r>   -10.7516     9.2725    85.5950 </r>
       <r>   -10.6524    10.0964    86.5957 </r>
       <r>   -10.5533     4.7952    87.0710 </r>
       <r>   -10.4542     8.3024    87.8939 </r>
       <r>   -10.3551    12.1850    89.1017 </r>
       <r>   -10.2560    15.3565    90.6238 </r>
       <r>   -10.1569    14.6511    92.0760 </r>
       <r>   -10.0577    20.1587    94.0741 </r>
       <r>    -9.9586    16.4647    95.7060 </r>
       <r>    -9.8595    16.3033    97.3220 </r>
       <r>    -9.7604    12.9956    98.6101 </r>
       <r>    -9.6613    18.4025   100.4341 </r>
       <r>    -9.5621    18.6815   102.2858 </r>
       <r>    -9.4630    18.2830   104.0980 </r>
       <r>    -9.3639    14.9879   105.5836 </r>
       <r>    -9.2648    15.3631   107.1063 </r>
       <r>    -9.1657    23.2043   109.4063 </r>
       <r>    -9.0666    27.4622   112.1283 </r>
       <r>    -8.9674    25.6863   114.6743 </r>
       <r>    -8.8683    23.3795   116.9916 </r>
       <r>    -8.7692    16.7042   118.6473 </r>
       <r>    -8.6701    15.5788   120.1915 </r>
       <r>    -8.5710    16.4317   121.8201 </r>
       <r>    -8.4718    15.7340   123.3797 </r>
       <r>    -8.3727    18.1354   125.1772 </r>
       <r>    -8.2736    25.8007   127.7345 </r>
       <r>    -8.1745    18.1581   129.5343 </r>
       <r>    -8.0754    15.6012   131.0807 </r>
       <r>    -7.9763    16.1900   132.6854 </r>
       <r>    -7.8771    18.5663   134.5257 </r>
       <r>    -7.7780     5.2648   135.0475 </r>
       <r>    -7.6789     9.9990   136.0386 </r>
       <r>    -7.5798    12.9090   137.3181 </r>
       <r>    -7.4807    19.7423   139.2750 </r>
       <r>    -7.3815    20.7263   141.3293 </r>
       <r>    -7.2824    18.6200   143.1749 </r>
       <r>    -7.1833    13.4341   144.5065 </r>
       <r>    -7.0842    13.5287   145.8474 </r>
       <r>    -6.9851    15.0662   147.3407 </r>
       <r>    -6.8860    10.2023   148.3520 </r>
       <r>    -6.7868     8.7365   149.2179 </r>
       <r>    -6.6877    12.6259   150.4694 </r>
       <r>    -6.5886    17.2110   152.1753 </r>
       <r>    -6.4895    12.7294   153.4370 </r>
       <r>    -6.3904    15.7678   154.9999 </r>
       <r>    -6.2912    22.5380   157.2338 </r>
       <r>    -6.1921    15.7234   158.7923 </r>
       <r>    -6.0930     6.5167   159.4383 </r>
       <r>    -5.9939    11.5917   160.5872 </r>
       <r>    -5.8948    13.2014   161.8957 </r>
       <r>    -5.7956     9.5833   162.8456 </r>
       <r>    -5.6965     3.9044   163.2326 </r>
       <r>    -5.5974     4.9574   163.7240 </r>
       <r>    -5.4983     2.0250   163.9247 </r>
       <r>    -5.3992     4.4622   164.3670 </r>
       <r>    -5.3001     7.7893   165.1390 </r>
       <r>    -5.2009    20.7313   167.1939 </r>
       <r>    -5.1018    14.2991   168.6112 </r>
       <r>    -5.0027    19.1880   170.5131 </r>
       <r>    -4.9036    13.7585   171.8768 </r>
       <r>    -4.8045     8.8085   172.7499 </r>
       <r>    -4.7053    10.7932   173.8197 </r>
       <r>    -4.6062    10.8052   174.8907 </r>
       <r>    -4.5071    25.1234   177.3809 </r>
       <r>    -4.4080    12.7567   178.6453 </r>
       <r>    -4.3089     5.6571   179.2060 </r>
       <r>    -4.2098    11.3682   180.3328 </r>
       <r>    -4.1106     7.9658   181.1224 </r>
       <r>    -4.0115     8.3271   181.9477 </r>
       <r>    -3.9124     0.5286   182.0001 </r>
       <r>    -3.8133     0.7982   182.0792 </r>
       <r>    -3.7142     1.7539   182.2531 </r>
       <r>    -3.6150     3.9989   182.6495 </r>
       <r>    -3.5159     3.6224   183.0085 </r>
       <r>    -3.4168     2.1242   183.2190 </r>
       <r>    -3.3177     0.5554   183.2741 </r>
       <r>    -3.2186     2.1110   183.4833 </r>
       <r>    -3.1195     0.1688   183.5001 </r>
       <r>    -3.0203     0.6702   183.5665 </r>
       <r>    -2.9212     2.5227   183.8165 </r>
       <r>    -2.8221     1.8178   183.9967 </r>
       <r>    -2.7230     0.0334   184.0000 </r>
       <r>    -2.6239     0.5227   184.0518 </r>
       <r>    -2.5247     3.5597   184.4047 </r>
       <r>    -2.4256     0.9598   184.4998 </r>
       <r>    -2.3265     0.0019   184.5000 </r>
       <r>    -2.2274     0.0234   184.5023 </r>
       <r>    -2.1283     2.8829   184.7881 </r>
       <r>    -2.0292     2.1541   185.0016 </r>
       <r>    -1.9300     2.7406   185.2732 </r>
       <r>    -1.8309     4.2467   185.6942 </r>
       <r>    -1.7318     2.8428   185.9759 </r>
       <r>    -1.6327     0.2740   186.0031 </r>
       <r>    -1.5336     4.1319   186.4126 </r>
       <r>    -1.4344     8.5622   187.2613 </r>
       <r>    -1.3353     2.3476   187.4940 </r>
       <r>    -1.2362     0.2203   187.5158 </r>
       <r>    -1.1371     5.7461   188.0854 </r>
       <r>    -1.0380    16.3124   189.7022 </r>
       <r>    -0.9388    11.9106   190.8828 </r>
       <r>    -0.8397     5.2201   191.4002 </r>
       <r>    -0.7406    10.4701   192.4380 </r>
       <r>    -0.6415    11.1083   193.5390 </r>
       <r>    -0.5424     5.3254   194.0669 </r>
       <r>    -0.4433     3.4285   194.4067 </r>
       <r>    -0.3441     8.5845   195.2576 </r>
       <r>    -0.2450     9.4310   196.1924 </r>
       <r>    -0.1459    10.7075   197.2537 </r>
       <r>    -0.0468    10.1989   198.2646 </r>
       <r>     0.0523    11.5436   199.4087 </r>
       <r>     0.1515     4.6201   199.8667 </r>
       <r>     0.2506     1.3543   200.0009 </r>
       <r>     0.3497     1.8282   200.1821 </r>
       <r>     0.4488     7.9720   200.9723 </r>
       <r>     0.5479     8.8035   201.8449 </r>
       <r>     0.6470     6.3509   202.4744 </r>
       <r>     0.7462     4.9334   202.9634 </r>
       <r>     0.8453     5.4225   203.5008 </r>
       <r>     0.9444     8.4496   204.3383 </r>
       <r>     1.0435    12.0170   205.5294 </r>
       <r>     1.1426     3.2055   205.8472 </r>
       <r>     1.2418     8.9106   206.7304 </r>
       <r>     1.3409    17.8970   208.5043 </r>
       <r>     1.4400    21.6910   210.6543 </r>
       <r>     1.5391     7.9433   211.4416 </r>
       <r>     1.6382     8.0418   212.2387 </r>
       <r>     1.7373     6.9438   212.9269 </r>
       <r>     1.8365     9.7149   213.8899 </r>
       <r>     1.9356    17.8364   215.6578 </r>
       <r>     2.0347    29.0582   218.5380 </r>
       <r>     2.1338     9.5416   219.4837 </r>
       <r>     2.2329    13.3762   220.8096 </r>
       <r>     2.3321    19.2402   222.7166 </r>
       <r>     2.4312    24.0684   225.1022 </r>
       <r>     2.5303    12.4313   226.3344 </r>
       <r>     2.6294     8.7036   227.1971 </r>
       <r>     2.7285    15.2385   228.7075 </r>
       <r>     2.8276    25.7764   231.2624 </r>
       <r>     2.9268    56.1593   236.8288 </r>
       <r>     3.0259    23.8632   239.1941 </r>
       <r>     3.1250     9.6557   240.1512 </r>
       <r>     3.2241    12.5179   241.3919 </r>
       <r>     3.3232    15.4942   242.9277 </r>
       <r>     3.4224    22.9483   245.2023 </r>
       <r>     3.5215    23.3873   247.5204 </r>
       <r>     3.6206     8.9472   248.4072 </r>
       <r>     3.7197    17.6396   250.1557 </r>
       <r>     3.8188    28.9712   253.0272 </r>
       <r>     3.9179    28.6606   255.8680 </r>
       <r>     4.0171    18.1277   257.6648 </r>
       <r>     4.1162    17.1493   259.3646 </r>
       <r>     4.2153    14.2695   260.7790 </r>
       <r>     4.3144    32.9683   264.0468 </r>
       <r>     4.4135     9.4917   264.9876 </r>
       <r>     4.5127     0.1255   265.0000 </r>
       <r>     4.6118     0.0000   265.0000 </r>
       <r>     4.7109     0.0000   265.0000 </r>
       <r>     4.8100     0.0000   265.0000 </r>
       <r>     4.9091     0.0000   265.0000 </r>
       <r>     5.0083     0.0000   265.0000 </r>
       <r>     5.1074     0.0000   265.0000 </r>
       <r>     5.2065     0.0000   265.0000 </r>
       <r>     5.3056     0.0000   265.0000 </r>
       <r>     5.4047     0.0000   265.0000 </r>
       <r>     5.5038     0.0000   265.0000 </r>
       <r>     5.6030     0.0000   265.0000 </r>
       <r>     5.7021     0.0000   265.0000 </r>
      </set>
     </set>
    </array>
   </total>
  </dos>
 </calculation>
 <structure name="finalpos" >
  <crystal>
   <varray name="basis" >
    <v>      17.27103806       0.00000000       0.00000000 </v>
    <v>      -8.63551903      14.95715771       0.00000000 </v>
    <v>       0.00000000       0.00000000      15.00000000 </v>
   </varray>
   <i name="volume">   3874.88459904 </i>
   <varray name="rec_basis" >
    <v>       0.05790040       0.03342881       0.00000000 </v>
    <v>       0.00000000       0.06685762       0.00000000 </v>
    <v>       0.00000000       0.00000000       0.06666667 </v>
   </varray>
  </crystal>
  <varray name="positions" >
   <v>       1.00005243       0.99996366       0.49932559 </v>
   <v>       0.99930344       0.14219557       0.49965365 </v>
   <v>       0.99936679       0.28535065       0.49936702 </v>
   <v>       0.99976105       0.42843608       0.49892906 </v>
   <v>       0.99983201       0.57140425       0.49878050 </v>
   <v>       0.00039161       0.71442510       0.49879993 </v>
   <v>       0.00136224       0.85801371       0.49906923 </v>
   <v>       0.14406139       0.00170449       0.49955970 </v>
   <v>       0.14338356       0.14405346       0.49978309 </v>
   <v>       0.14178400       0.28554365       0.49968293 </v>
   <v>       0.14292626       0.42895503       0.49911654 </v>
   <v>       0.14321063       0.57144350       0.49900643 </v>
   <v>       0.14327996       0.71451086       0.49924487 </v>
   <v>       0.14364765       0.85809231       0.49941465 </v>
   <v>       0.28673575       0.00187980       0.49961839 </v>
   <v>       0.28727827       0.14600205       0.49981861 </v>
   <v>       0.28677882       0.29144093       0.50015952 </v>
   <v>       0.28513217       0.42644107       0.49979407 </v>
   <v>       0.28782382       0.57098373       0.49914398 </v>
   <v>       0.28617979       0.71488666       0.49949697 </v>
   <v>       0.28580292       0.85818055       0.49956726 </v>
   <v>       0.42906077       0.00079938       0.49946435 </v>
   <v>       0.43021282       0.14536101       0.49951790 </v>
   <v>       0.42948189       0.28680155       0.49993480 </v>
   <v>       0.42778946       0.85675424       0.49959737 </v>
   <v>       0.57099066       0.99910508       0.49933156 </v>
   <v>       0.57173575       0.14290089       0.49928189 </v>
   <v>       0.57559858       0.28964922       0.49901980 </v>
   <v>       0.56996392       0.85407081       0.49950875 </v>
   <v>       0.71303344       0.99738688       0.49935059 </v>
   <v>       0.71408220       0.14173636       0.49916631 </v>
   <v>       0.71467324       0.28532900       0.49902099 </v>
   <v>       0.71073857       0.42547082       0.49870564 </v>
   <v>       0.71565211       0.57370026       0.49945071 </v>
   <v>       0.71189639       0.85332549       0.49959340 </v>
   <v>       0.85620444       0.99844235       0.49940878 </v>
   <v>       0.85626691       0.14163127       0.49946332 </v>
   <v>       0.85682143       0.28509291       0.49910732 </v>
   <v>       0.85686434       0.42834305       0.49880816 </v>
   <v>       0.85617714       0.57097797       0.49849516 </v>
   <v>       0.85828116       0.71495574       0.49885781 </v>
   <v>       0.85741762       0.85602564       0.49919899 </v>
   <v>       0.04781933       0.09545400       0.49961000 </v>
   <v>       0.04642615       0.23738088       0.49960783 </v>
   <v>       0.04721894       0.38084871       0.49911218 </v>
   <v>       0.04774180       0.52385211       0.49889426 </v>
   <v>       0.04783405       0.66683534       0.49889576 </v>
   <v>       0.04830855       0.80994786       0.49907568 </v>
   <v>       0.04853015       0.95317643       0.49931764 </v>
   <v>       0.19168429       0.09699198       0.49974476 </v>
   <v>       0.19047385       0.23944086       0.49988380 </v>
   <v>       0.18937575       0.38041116       0.49946602 </v>
   <v>       0.19142431       0.52434428       0.49897541 </v>
   <v>       0.19079664       0.66694227       0.49929769 </v>
   <v>       0.19088072       0.81020357       0.49944827 </v>
   <v>       0.19151100       0.95370754       0.49958315 </v>
   <v>       0.33477995       0.09799732       0.49966385 </v>
   <v>       0.33600313       0.24217487       0.50005189 </v>
   <v>       0.33181768       0.52163693       0.49976115 </v>
   <v>       0.33698283       0.66986728       0.49924629 </v>
   <v>       0.33303973       0.80994315       0.49960713 </v>
   <v>       0.33366161       0.95352798       0.49954228 </v>
   <v>       0.47674590       0.09617817       0.49940181 </v>
   <v>       0.47781678       0.24126495       0.49942883 </v>
   <v>       0.47219114       0.80565195       0.49939494 </v>
   <v>       0.47601062       0.95235988       0.49946583 </v>
   <v>       0.61870985       0.09447433       0.49924124 </v>
   <v>       0.61994653       0.23851936       0.49915484 </v>
   <v>       0.61840728       0.80864324       0.49978977 </v>
   <v>       0.61759935       0.94997724       0.49937232 </v>
   <v>       0.76106872       0.09344212       0.49927881 </v>
   <v>       0.76191317       0.23707762       0.49907507 </v>
   <v>       0.76149735       0.38041416       0.49887361 </v>
   <v>       0.75972095       0.52437303       0.49869264 </v>
   <v>       0.76251194       0.66894850       0.49931275 </v>
   <v>       0.76109571       0.80406305       0.49951951 </v>
   <v>       0.76058919       0.94946128       0.49940430 </v>
   <v>       0.90376457       0.09370775       0.49956266 </v>
   <v>       0.90406072       0.23720701       0.49935341 </v>
   <v>       0.90433253       0.38072829       0.49894229 </v>
   <v>       0.90436214       0.52384098       0.49863049 </v>
   <v>       0.90467423       0.66636770       0.49863677 </v>
   <v>       0.90598860       0.80983539       0.49899630 </v>
   <v>       0.90449223       0.95138601       0.49929902 </v>
   <v>       0.46685468       0.35954316       0.50045760 </v>
   <v>       0.40456250       0.55783581       0.50202196 </v>
   <v>       0.64289403       0.53761974       0.50223690 </v>
   <v>       0.58123290       0.73590841       0.50032128 </v>
   <v>       0.56403274       0.59288957       0.53262964 </v>
   <v>       0.47758424       0.49737722       0.53388258 </v>
   <v>       0.42687759       0.71519247       0.49893755 </v>
   <v>       0.71621942       0.71426645       0.49972454 </v>
   <v>       0.33156044       0.38126153       0.50029738 </v>
   <v>       0.62085158       0.38008009       0.49845430 </v>
   <v>       0.52336910       0.54402029       0.57155499 </v>
  </varray>
  <varray name="selective"  type="logical" >
   <v type="logical" >  T  T  T </v>
   <v type="logical" >  T  T  T </v>
   <v type="logical" >  T  T  T </v>
   <v type="logical" >  T  T  T </v>
   <v type="logical" >  T  T  T </v>
   <v type="logical" >  T  T  T </v>
   <v type="logical" >  T  T  T </v>
   <v type="logical" >  T  T  T </v>
   <v type="logical" >  T  T  T </v>
   <v type="logical" >  T  T  T </v>
   <v type="logical" >  T  T  T </v>
   <v type="logical" >  T  T  T </v>
   <v type="logical" >  T  T  T </v>
   <v type="logical" >  T  T  T </v>
   <v type="logical" >  T  T  T </v>
   <v type="logical" >  T  T  T </v>
   <v type="logical" >  T  T  T </v>
   <v type="logical" >  T  T  T </v>
   <v type="logical" >  T  T  T </v>
   <v type="logical" >  T  T  T </v>
   <v type="logical" >  T  T  T </v>
   <v type="logical" >  T  T  T </v>
   <v type="logical" >  T  T  T </v>
   <v type="logical" >  T  T  T </v>
   <v type="logical" >  T  T  T </v>
   <v type="logical" >  T  T  T </v>
   <v type="logical" >  T  T  T </v>
   <v type="logical" >  T  T  T </v>
   <v type="logical" >  T  T  T </v>
   <v type="logical" >  T  T  T </v>
   <v type="logical" >  T  T  T </v>
   <v type="logical" >  T  T  T </v>
   <v type="logical" >  T  T  T </v>
   <v type="logical" >  T  T  T </v>
   <v type="logical" >  T  T  T </v>
   <v type="logical" >  T  T  T </v>
   <v type="logical" >  T  T  T </v>
   <v type="logical" >  T  T  T </v>
   <v type="logical" >  T  T  T </v>
   <v type="logical" >  T  T  T </v>
   <v type="logical" >  T  T  T </v>
   <v type="logical" >  T  T  T </v>
   <v type="logical" >  T  T  T </v>
   <v type="logical" >  T  T  T </v>
   <v type="logical" >  T  T  T </v>
   <v type="logical" >  T  T  T </v>
   <v type="logical" >  T  T  T </v>
   <v type="logical" >  T  T  T </v>
   <v type="logical" >  T  T  T </v>
   <v type="logical" >  T  T  T </v>
   <v type="logical" >  T  T  T </v>
   <v type="logical" >  T  T  T </v>
   <v type="logical" >  T  T  T </v>
   <v type="logical" >  T  T  T </v>
   <v type="logical" >  T  T  T </v>
   <v type="logical" >  T  T  T </v>
   <v type="logical" >  T  T  T </v>
   <v type="logical" >  T  T  T </v>
   <v type="logical" >  T  T  T </v>
   <v type="logical" >  T  T  T </v>
   <v type="logical" >  T  T  T </v>
   <v type="logical" >  T  T  T </v>
   <v type="logical" >  T  T  T </v>
   <v type="logical" >  T  T  T </v>
   <v type="logical" >  T  T  T </v>
   <v type="logical" >  T  T  T </v>
   <v type="logical" >  T  T  T </v>
   <v type="logical" >  T  T  T </v>
   <v type="logical" >  T  T  T </v>
   <v type="logical" >  T  T  T </v>
   <v type="logical" >  T  T  T </v>
   <v type="logical" >  T  T  T </v>
   <v type="logical" >  T  T  T </v>
   <v type="logical" >  T  T  T </v>
   <v type="logical" >  T  T  T </v>
   <v type="logical" >  T  T  T </v>
   <v type="logical" >  T  T  T </v>
   <v type="logical" >  T  T  T </v>
   <v type="logical" >  T  T  T </v>
   <v type="logical" >  T  T  T </v>
   <v type="logical" >  T  T  T </v>
   <v type="logical" >  T  T  T </v>
   <v type="logical" >  T  T  T </v>
   <v type="logical" >  T  T  T </v>
   <v type="logical" >  T  T  T </v>
   <v type="logical" >  T  T  T </v>
   <v type="logical" >  T  T  T </v>
   <v type="logical" >  T  T  T </v>
   <v type="logical" >  T  T  T </v>
   <v type="logical" >  T  T  T </v>
   <v type="logical" >  T  T  T </v>
   <v type="logical" >  T  T  T </v>
   <v type="logical" >  T  T  T </v>
   <v type="logical" >  T  T  T </v>
   <v type="logical" >  T  T  T </v>
  </varray>
  <nose>
   <v>      -3.00000000       0.00000000       0.00010000       0.00010000 </v>
  </nose>
 </structure>
</modeling>
