unknown system                          
           1
    17.271038    0.000000    0.000000
    -8.635519   14.957158    0.000000
     0.000000    0.000000   15.000000
   C    H    N    O 
    84     6     4     1
Direct configuration=     1
   0.99998756  0.99989175  0.49986820
   0.99924852  0.14213208  0.49991018
   0.99932934  0.28529224  0.49962994
   0.99973616  0.42839294  0.49918885
   0.99982056  0.57136291  0.49909107
   0.00036520  0.71437832  0.49925460
   0.00131986  0.85794921  0.49964255
   0.14401482  0.00165824  0.50008191
   0.14332642  0.14400081  0.49999668
   0.14175304  0.28549965  0.49962004
   0.14291032  0.42891654  0.49903903
   0.14319348  0.57140444  0.49907892
   0.14326183  0.71448240  0.49955936
   0.14364046  0.85806486  0.49992722
   0.28671374  0.00186050  0.50017065
   0.28723372  0.14596314  0.50000254
   0.28673912  0.29140024  0.49969865
   0.28512677  0.42641086  0.49904940
   0.28781417  0.57094426  0.49860539
   0.28615397  0.71484605  0.49947506
   0.28578548  0.85815533  0.50004493
   0.42904408  0.00076463  0.50002368
   0.43020235  0.14533548  0.49979872
   0.42943720  0.28674487  0.49968196
   0.42775588  0.85670570  0.49971918
   0.57094727  0.99903931  0.49972755
   0.57172620  0.14286218  0.49980005
   0.57557519  0.28960648  0.49917306
   0.56992412  0.85400448  0.49931667
   0.71298473  0.99731249  0.49959096
   0.71404752  0.14167354  0.49972797
   0.71466056  0.28528591  0.49950867
   0.71072943  0.42542766  0.49887023
   0.71565230  0.57364988  0.49924644
   0.71182884  0.85323423  0.49949179
   0.85613406  0.99835798  0.49968865
   0.85621001  0.14154851  0.49981505
   0.85679438  0.28502765  0.49958139
   0.85684949  0.42829855  0.49921386
   0.85616144  0.57092954  0.49880939
   0.85825545  0.71489222  0.49917498
   0.85734379  0.85593868  0.49950757
   0.04776292  0.09538964  0.49996455
   0.04638733  0.23732757  0.49978483
   0.04719548  0.38080168  0.49926888
   0.04772531  0.52381015  0.49911038
   0.04781745  0.66679757  0.49925515
   0.04829210  0.80990319  0.49960964
   0.04847480  0.95311609  0.49989752
   0.19163729  0.09694715  0.50007527
   0.19043003  0.23939034  0.49980231
   0.18936128  0.38037320  0.49917663
   0.19141179  0.52430779  0.49881111
   0.19077137  0.66690609  0.49942329
   0.19086616  0.81018401  0.49990354
   0.19148271  0.95367834  0.50011604
   0.33475940  0.09797853  0.50004416
   0.33595984  0.24212719  0.49985337
   0.33182636  0.52161416  0.49881323
   0.33695200  0.66982571  0.49882096
   0.33301388  0.80990239  0.49980486
   0.33363865  0.95350449  0.50014596
   0.47673946  0.09613652  0.49986856
   0.47779578  0.24123082  0.49945805
   0.47215707  0.80560342  0.49913626
   0.47597185  0.95230599  0.49987296
   0.61867741  0.09441563  0.49979354
   0.61993713  0.23848151  0.49959500
   0.61834593  0.80855032  0.49946601
   0.61755591  0.94990746  0.49952311
   0.76102132  0.09336203  0.49972466
   0.76189030  0.23701879  0.49961597
   0.76149307  0.38037608  0.49924975
   0.75971104  0.52432186  0.49879233
   0.76248664  0.66888347  0.49925522
   0.76102482  0.80397441  0.49946487
   0.76052162  0.94937246  0.49954783
   0.90371001  0.09363120  0.49984290
   0.90401193  0.23712972  0.49974766
   0.90430445  0.38067458  0.49936059
   0.90434730  0.52379951  0.49899668
   0.90465409  0.66631629  0.49901351
   0.90594147  0.80976749  0.49945584
   0.90442206  0.95130410  0.49969824
   0.46676835  0.35948472  0.49994484
   0.40458299  0.55780767  0.50082703
   0.64289072  0.53753510  0.50161621
   0.58111781  0.73581231  0.49982467
   0.56552588  0.59417459  0.53087782
   0.47906760  0.49872266  0.53165427
   0.42684280  0.71515408  0.49835947
   0.71616596  0.71417111  0.49942576
   0.33153410  0.38120918  0.49938722
   0.62083895  0.38003975  0.49849185
   0.52332579  0.54616145  0.56975815
Direct configuration=     2
   0.99998775  0.99989182  0.49986710
   0.99924891  0.14213249  0.49990977
   0.99932978  0.28529271  0.49962861
   0.99973800  0.42839269  0.49918632
   0.99982102  0.57136302  0.49908899
   0.00036530  0.71437846  0.49925301
   0.00132001  0.85794924  0.49964089
   0.14401489  0.00165832  0.50007984
   0.14332680  0.14400120  0.49999641
   0.14175360  0.28550002  0.49962012
   0.14291049  0.42891675  0.49903839
   0.14319351  0.57140379  0.49907809
   0.14326170  0.71448271  0.49955701
   0.14364035  0.85806528  0.49992431
   0.28671382  0.00186067  0.50016850
   0.28723380  0.14596331  0.50000213
   0.28673928  0.29140036  0.49970030
   0.28512665  0.42641042  0.49905158
   0.28781474  0.57094417  0.49860599
   0.28615398  0.71484597  0.49947494
   0.28578536  0.85815552  0.50004321
   0.42904417  0.00076483  0.50002246
   0.43020255  0.14533580  0.49979798
   0.42943722  0.28674511  0.49968337
   0.42775600  0.85670589  0.49971991
   0.57094740  0.99903973  0.49972717
   0.57172619  0.14286245  0.49979866
   0.57557531  0.28960696  0.49917325
   0.56992445  0.85400501  0.49931782
   0.71298500  0.99731299  0.49959020
   0.71404760  0.14167391  0.49972598
   0.71466042  0.28528610  0.49950739
   0.71072963  0.42542797  0.49886990
   0.71565256  0.57365042  0.49924787
   0.71182926  0.85323491  0.49949203
   0.85613437  0.99835840  0.49968786
   0.85621008  0.14154870  0.49981414
   0.85679434  0.28502780  0.49957882
   0.85684944  0.42829835  0.49921203
   0.85616207  0.57092944  0.49880815
   0.85825558  0.71489249  0.49917386
   0.85734410  0.85593905  0.49950685
   0.04776299  0.09538969  0.49996402
   0.04638715  0.23732748  0.49978424
   0.04719526  0.38080208  0.49926722
   0.04772533  0.52381038  0.49910795
   0.04781729  0.66679768  0.49925278
   0.04829211  0.80990318  0.49960728
   0.04847483  0.95311611  0.49989578
   0.19163732  0.09694720  0.50007439
   0.19042996  0.23939013  0.49980282
   0.18936114  0.38037310  0.49917713
   0.19141239  0.52430810  0.49881041
   0.19077142  0.66690618  0.49942160
   0.19086631  0.81018403  0.49990125
   0.19148287  0.95367860  0.50011333
   0.33475958  0.09797876  0.50004311
   0.33595944  0.24212679  0.49985359
   0.33182652  0.52161380  0.49881557
   0.33695226  0.66982586  0.49882244
   0.33301390  0.80990231  0.49980452
   0.33363881  0.95350456  0.50014408
   0.47673951  0.09613670  0.49986722
   0.47779586  0.24123068  0.49945853
   0.47215725  0.80560378  0.49913816
   0.47597198  0.95230621  0.49987283
   0.61867751  0.09441602  0.49979202
   0.61993713  0.23848007  0.49959342
   0.61834654  0.80855131  0.49946669
   0.61755619  0.94990799  0.49952318
   0.76102140  0.09336245  0.49972341
   0.76189023  0.23701901  0.49961369
   0.76149280  0.38037627  0.49924842
   0.75971132  0.52432231  0.49879199
   0.76248694  0.66888393  0.49925587
   0.76102523  0.80397493  0.49946536
   0.76052195  0.94937307  0.49954730
   0.90371009  0.09363157  0.49984243
   0.90401195  0.23712992  0.49974616
   0.90430381  0.38067443  0.49935800
   0.90434582  0.52380139  0.49899563
   0.90465392  0.66631630  0.49901211
   0.90594153  0.80976764  0.49945463
   0.90442229  0.95130449  0.49969725
   0.46676828  0.35948416  0.49994698
   0.40458302  0.55780711  0.50083112
   0.64289109  0.53753572  0.50161979
   0.58111863  0.73581318  0.49982596
   0.56552290  0.59417274  0.53087840
   0.47905862  0.49871418  0.53165891
   0.42684304  0.71515448  0.49836201
   0.71616633  0.71417179  0.49942735
   0.33153408  0.38120897  0.49939027
   0.62083925  0.38004014  0.49849240
   0.52332570  0.54615407  0.56973075
Direct configuration=     3
   0.99998795  0.99989201  0.49986545
   0.99924883  0.14213242  0.49990911
   0.99932943  0.28529277  0.49962656
   0.99973643  0.42839310  0.49918288
   0.99982067  0.57136336  0.49908575
   0.00036501  0.71437841  0.49925044
   0.00132000  0.85794925  0.49963829
   0.14401496  0.00165848  0.50007672
   0.14332671  0.14400099  0.49999599
   0.14175319  0.28549951  0.49962024
   0.14291080  0.42891712  0.49903735
   0.14319374  0.57140333  0.49907711
   0.14326167  0.71448264  0.49955339
   0.14364064  0.85806536  0.49991990
   0.28671414  0.00186093  0.50016523
   0.28723376  0.14596323  0.50000146
   0.28673912  0.29139998  0.49970274
   0.28512670  0.42641011  0.49905486
   0.28781523  0.57094405  0.49860755
   0.28615393  0.71484600  0.49947466
   0.28578566  0.85815549  0.50004056
   0.42904434  0.00076504  0.50002056
   0.43020277  0.14533599  0.49979683
   0.42943695  0.28674470  0.49968541
   0.42775608  0.85670628  0.49972093
   0.57094765  0.99904028  0.49972654
   0.57172619  0.14286253  0.49979643
   0.57557556  0.28960714  0.49917342
   0.56992490  0.85400602  0.49931949
   0.71298532  0.99731372  0.49958905
   0.71404768  0.14167444  0.49972293
   0.71466016  0.28528611  0.49950523
   0.71073009  0.42542880  0.49886933
   0.71565287  0.57365087  0.49925002
   0.71183008  0.85323608  0.49949240
   0.85613483  0.99835908  0.49968670
   0.85621070  0.14155038  0.49981373
   0.85679417  0.28502790  0.49957491
   0.85684909  0.42829891  0.49920920
   0.85616188  0.57093018  0.49880627
   0.85825590  0.71489282  0.49917221
   0.85734471  0.85593976  0.49950581
   0.04776343  0.09538997  0.49996320
   0.04639006  0.23732955  0.49978332
   0.04719609  0.38080242  0.49926462
   0.04772563  0.52381014  0.49910427
   0.04781622  0.66679675  0.49925030
   0.04829237  0.80990341  0.49960374
   0.04847504  0.95311611  0.49989315
   0.19163749  0.09694732  0.50007305
   0.19043141  0.23939186  0.49980379
   0.18936101  0.38037301  0.49917785
   0.19141295  0.52430803  0.49880936
   0.19077131  0.66690607  0.49941907
   0.19086532  0.81018587  0.49989769
   0.19148297  0.95367882  0.50010922
   0.33475983  0.09797909  0.50004148
   0.33595941  0.24212678  0.49985412
   0.33182683  0.52161330  0.49881913
   0.33695256  0.66982580  0.49882452
   0.33301403  0.80990240  0.49980395
   0.33363889  0.95350484  0.50014120
   0.47673951  0.09613699  0.49986514
   0.47779601  0.24123099  0.49945921
   0.47215773  0.80560441  0.49914093
   0.47597213  0.95230645  0.49987256
   0.61867768  0.09441654  0.49978967
   0.61993710  0.23847994  0.49959153
   0.61834703  0.80855158  0.49946830
   0.61755657  0.94990872  0.49952324
   0.76102150  0.09336291  0.49972140
   0.76189015  0.23701940  0.49961017
   0.76149279  0.38037634  0.49924635
   0.75971157  0.52432284  0.49879148
   0.76248723  0.66888469  0.49925691
   0.76102581  0.80397579  0.49946613
   0.76052251  0.94937392  0.49954650
   0.90371037  0.09363193  0.49984161
   0.90401225  0.23713016  0.49974373
   0.90430437  0.38067476  0.49935400
   0.90434695  0.52380039  0.49899438
   0.90465416  0.66631668  0.49900997
   0.90594181  0.80976802  0.49945283
   0.90442264  0.95130486  0.49969578
   0.46676840  0.35948378  0.49995011
   0.40458316  0.55780629  0.50083708
   0.64289158  0.53753658  0.50162506
   0.58111995  0.73581467  0.49982780
   0.56552427  0.59417656  0.53087276
   0.47903997  0.49869598  0.53165920
   0.42684356  0.71515480  0.49836572
   0.71616667  0.71417244  0.49942990
   0.33153424  0.38120875  0.49939493
   0.62083927  0.38004065  0.49849318
   0.52332429  0.54614240  0.56970892
Direct configuration=     4
   0.99998826  0.99989228  0.49986332
   0.99924902  0.14213263  0.49990824
   0.99932948  0.28529304  0.49962378
   0.99973398  0.42839392  0.49917952
   0.99981998  0.57136328  0.49908145
   0.00036463  0.71437835  0.49924689
   0.00132007  0.85794934  0.49963479
   0.14401509  0.00165865  0.50007268
   0.14332676  0.14400099  0.49999554
   0.14175304  0.28549931  0.49962053
   0.14291125  0.42891738  0.49903586
   0.14319413  0.57140313  0.49907564
   0.14326268  0.71448289  0.49954979
   0.14364089  0.85806566  0.49991403
   0.28671447  0.00186127  0.50016087
   0.28723368  0.14596302  0.50000060
   0.28673905  0.29139951  0.49970615
   0.28512680  0.42640980  0.49905934
   0.28781695  0.57094437  0.49860880
   0.28615391  0.71484605  0.49947418
   0.28578591  0.85815559  0.50003698
   0.42904454  0.00076533  0.50001801
   0.43020296  0.14533616  0.49979533
   0.42943651  0.28674391  0.49968814
   0.42775620  0.85670682  0.49972226
   0.57094799  0.99904095  0.49972565
   0.57172613  0.14286244  0.49979336
   0.57557591  0.28960720  0.49917353
   0.56992547  0.85400715  0.49932177
   0.71298575  0.99731466  0.49958758
   0.71404773  0.14167504  0.49971883
   0.71465991  0.28528614  0.49950204
   0.71073049  0.42542978  0.49886852
   0.71565317  0.57365143  0.49925302
   0.71183107  0.85323744  0.49949310
   0.85613540  0.99835996  0.49968527
   0.85621152  0.14155257  0.49981356
   0.85679412  0.28502815  0.49956961
   0.85684882  0.42829966  0.49920534
   0.85616141  0.57093123  0.49880385
   0.85825632  0.71489339  0.49917018
   0.85734546  0.85594063  0.49950456
   0.04776393  0.09539037  0.49996214
   0.04639002  0.23732975  0.49978210
   0.04719697  0.38080267  0.49926106
   0.04772641  0.52381089  0.49910049
   0.04781494  0.66679560  0.49924749
   0.04829259  0.80990363  0.49959904
   0.04847515  0.95311673  0.49989097
   0.19163765  0.09694745  0.50007134
   0.19043070  0.23939184  0.49980357
   0.18936102  0.38037300  0.49917883
   0.19141348  0.52430781  0.49880808
   0.19077110  0.66690590  0.49941579
   0.19086535  0.81018580  0.49989276
   0.19148314  0.95367917  0.50010377
   0.33476011  0.09797944  0.50003933
   0.33595961  0.24212695  0.49985530
   0.33182726  0.52161283  0.49882404
   0.33695295  0.66982569  0.49882718
   0.33301410  0.80990258  0.49980316
   0.33363902  0.95350516  0.50013735
   0.47673951  0.09613727  0.49986238
   0.47779625  0.24123156  0.49946011
   0.47215839  0.80560524  0.49914454
   0.47597230  0.95230683  0.49987215
   0.61867786  0.09441708  0.49978651
   0.61993702  0.23848125  0.49958933
   0.61834805  0.80855321  0.49946974
   0.61755704  0.94990972  0.49952332
   0.76102183  0.09336378  0.49971872
   0.76189014  0.23701996  0.49960539
   0.76149289  0.38037650  0.49924351
   0.75971190  0.52432356  0.49879088
   0.76248755  0.66888553  0.49925852
   0.76102653  0.80397696  0.49946738
   0.76052325  0.94937510  0.49954557
   0.90371092  0.09363271  0.49984055
   0.90401265  0.23713071  0.49974040
   0.90430516  0.38067537  0.49934851
   0.90434956  0.52379760  0.49899258
   0.90465452  0.66631729  0.49900713
   0.90594223  0.80976854  0.49945054
   0.90442317  0.95130539  0.49969394
   0.46676866  0.35948361  0.49995420
   0.40458350  0.55780527  0.50084478
   0.64289207  0.53753760  0.50163197
   0.58112146  0.73581629  0.49983021
   0.56552891  0.59418465  0.53086294
   0.47901321  0.49866976  0.53165574
   0.42684430  0.71515513  0.49837055
   0.71616700  0.71417324  0.49943370
   0.33153460  0.38120868  0.49940143
   0.62083916  0.38004123  0.49849417
   0.52332256  0.54612790  0.56969832
Direct configuration=     5
   0.99998867  0.99989278  0.49986093
   0.99924960  0.14213328  0.49990718
   0.99933039  0.28529384  0.49962015
   0.99973558  0.42839435  0.49917532
   0.99982021  0.57136249  0.49907620
   0.00036467  0.71437838  0.49924229
   0.00132042  0.85794976  0.49963043
   0.14401520  0.00165885  0.50006786
   0.14332697  0.14400132  0.49999504
   0.14175312  0.28549968  0.49962100
   0.14291165  0.42891732  0.49903387
   0.14319464  0.57140308  0.49907327
   0.14326340  0.71448287  0.49954604
   0.14364091  0.85806606  0.49990662
   0.28671466  0.00186161  0.50015536
   0.28723366  0.14596287  0.49999965
   0.28673902  0.29139906  0.49971069
   0.28512680  0.42640941  0.49906529
   0.28781909  0.57094477  0.49860996
   0.28615397  0.71484592  0.49947341
   0.28578591  0.85815580  0.50003236
   0.42904463  0.00076565  0.50001477
   0.43020311  0.14533650  0.49979349
   0.42943695  0.28674534  0.49969166
   0.42775642  0.85670732  0.49972392
   0.57094827  0.99904164  0.49972450
   0.57172604  0.14286274  0.49978938
   0.57557612  0.28960772  0.49917358
   0.56992618  0.85400835  0.49932473
   0.71298642  0.99731587  0.49958585
   0.71404785  0.14167570  0.49971358
   0.71465986  0.28528665  0.49949761
   0.71073039  0.42543033  0.49886747
   0.71565337  0.57365233  0.49925704
   0.71183210  0.85323897  0.49949436
   0.85613609  0.99836103  0.49968368
   0.85621249  0.14155319  0.49981210
   0.85679445  0.28502876  0.49956273
   0.85684890  0.42829923  0.49920032
   0.85616206  0.57093125  0.49880096
   0.85825663  0.71489431  0.49916793
   0.85734617  0.85594149  0.49950328
   0.04776423  0.09539068  0.49996091
   0.04638689  0.23732788  0.49978065
   0.04719671  0.38080313  0.49925655
   0.04772708  0.52381240  0.49909657
   0.04781440  0.66679542  0.49924403
   0.04829264  0.80990372  0.49959313
   0.04847515  0.95311752  0.49988908
   0.19163773  0.09694750  0.50006933
   0.19042891  0.23938963  0.49980396
   0.18936133  0.38037290  0.49918015
   0.19141439  0.52430792  0.49880662
   0.19077121  0.66690579  0.49941191
   0.19086660  0.81018387  0.49988638
   0.19148341  0.95367954  0.50009693
   0.33476033  0.09797962  0.50003664
   0.33595951  0.24212672  0.49985757
   0.33182801  0.52161248  0.49883050
   0.33695369  0.66982582  0.49883034
   0.33301410  0.80990273  0.49980213
   0.33363921  0.95350535  0.50013247
   0.47673958  0.09613742  0.49985889
   0.47779647  0.24123183  0.49946128
   0.47215897  0.80560603  0.49914904
   0.47597253  0.95230740  0.49987158
   0.61867794  0.09441758  0.49978245
   0.61993684  0.23848296  0.49958673
   0.61834957  0.80855612  0.49947126
   0.61755759  0.94991095  0.49952347
   0.76102252  0.09336528  0.49971545
   0.76189021  0.23702051  0.49959917
   0.76149281  0.38037695  0.49923974
   0.75971244  0.52432456  0.49879031
   0.76248791  0.66888618  0.49926100
   0.76102724  0.80397819  0.49946939
   0.76052409  0.94937656  0.49954465
   0.90371151  0.09363406  0.49983941
   0.90401299  0.23713196  0.49973616
   0.90430458  0.38067563  0.49934146
   0.90434936  0.52379770  0.49898914
   0.90465442  0.66631765  0.49900357
   0.90594266  0.80976906  0.49944787
   0.90442378  0.95130619  0.49969184
   0.46676886  0.35948333  0.49995934
   0.40458405  0.55780397  0.50085424
   0.64289236  0.53753865  0.50164066
   0.58112305  0.73581797  0.49983323
   0.56553072  0.59418985  0.53085679
   0.47898501  0.49864270  0.53165478
   0.42684519  0.71515559  0.49837654
   0.71616730  0.71417435  0.49943916
   0.33153498  0.38120861  0.49941022
   0.62083921  0.38004189  0.49849536
   0.52332130  0.54611216  0.56969574
Direct configuration=     6
   0.99998905  0.99989358  0.49985848
   0.99924975  0.14213346  0.49990590
   0.99933074  0.28529454  0.49961569
   0.99973726  0.42839509  0.49917042
   0.99982148  0.57136262  0.49907158
   0.00036491  0.71437833  0.49923667
   0.00132094  0.85795050  0.49962539
   0.14401521  0.00165908  0.50006255
   0.14332678  0.14400096  0.49999446
   0.14175222  0.28549930  0.49962158
   0.14291200  0.42891721  0.49903138
   0.14319542  0.57140336  0.49906982
   0.14326309  0.71448187  0.49954179
   0.14364120  0.85806572  0.49989778
   0.28671482  0.00186180  0.50014877
   0.28723371  0.14596276  0.49999866
   0.28673865  0.29139829  0.49971628
   0.28512693  0.42640903  0.49907261
   0.28781949  0.57094449  0.49861256
   0.28615429  0.71484565  0.49947226
   0.28578608  0.85815580  0.50002668
   0.42904456  0.00076580  0.50001085
   0.43020323  0.14533690  0.49979134
   0.42943714  0.28674559  0.49969591
   0.42775666  0.85670761  0.49972577
   0.57094842  0.99904227  0.49972303
   0.57172613  0.14286378  0.49978453
   0.57557599  0.28960881  0.49917352
   0.56992692  0.85400980  0.49932820
   0.71298726  0.99731739  0.49958389
   0.71404811  0.14167648  0.49970725
   0.71465994  0.28528765  0.49949190
   0.71072994  0.42543055  0.49886613
   0.71565357  0.57365330  0.49926200
   0.71183328  0.85324079  0.49949615
   0.85613691  0.99836230  0.49968200
   0.85621299  0.14155367  0.49981032
   0.85679474  0.28502954  0.49955431
   0.85684892  0.42829810  0.49919408
   0.85616346  0.57093050  0.49879760
   0.85825669  0.71489510  0.49916557
   0.85734673  0.85594223  0.49950208
   0.04776433  0.09539088  0.49995951
   0.04638757  0.23732848  0.49977894
   0.04719637  0.38080382  0.49925118
   0.04772779  0.52381331  0.49909233
   0.04781505  0.66679604  0.49923964
   0.04829284  0.80990388  0.49958607
   0.04847524  0.95311801  0.49988701
   0.19163778  0.09694742  0.50006707
   0.19042965  0.23938990  0.49980560
   0.18936172  0.38037246  0.49918174
   0.19141575  0.52430820  0.49880490
   0.19077180  0.66690544  0.49940760
   0.19086662  0.81018423  0.49987870
   0.19148357  0.95367959  0.50008883
   0.33476044  0.09797956  0.50003343
   0.33595935  0.24212638  0.49986102
   0.33182914  0.52161208  0.49883826
   0.33695488  0.66982623  0.49883370
   0.33301424  0.80990277  0.49980081
   0.33363928  0.95350542  0.50012660
   0.47673972  0.09613751  0.49985469
   0.47779651  0.24123205  0.49946260
   0.47215943  0.80560658  0.49915422
   0.47597277  0.95230797  0.49987077
   0.61867796  0.09441811  0.49977750
   0.61993664  0.23848388  0.49958359
   0.61835078  0.80855778  0.49947429
   0.61755822  0.94991227  0.49952366
   0.76102347  0.09336684  0.49971161
   0.76188965  0.23701960  0.49959282
   0.76149258  0.38037743  0.49923499
   0.75971297  0.52432550  0.49878981
   0.76248821  0.66888680  0.49926444
   0.76102781  0.80397929  0.49947222
   0.76052507  0.94937815  0.49954383
   0.90371205  0.09363525  0.49983816
   0.90401356  0.23713351  0.49973100
   0.90430381  0.38067560  0.49933300
   0.90434692  0.52380000  0.49898390
   0.90465411  0.66631770  0.49899933
   0.90594312  0.80976969  0.49944489
   0.90442431  0.95130714  0.49968957
   0.46676929  0.35948357  0.49996531
   0.40458487  0.55780241  0.50086506
   0.64289239  0.53753957  0.50165079
   0.58112486  0.73582009  0.49983668
   0.56552414  0.59418547  0.53086163
   0.47896370  0.49862353  0.53166339
   0.42684618  0.71515627  0.49838335
   0.71616757  0.71417551  0.49944619
   0.33153509  0.38120819  0.49942107
   0.62083938  0.38004255  0.49849661
   0.52332041  0.54609673  0.56969538
Direct configuration=     7
   0.99998923  0.99989449  0.49985589
   0.99924968  0.14213351  0.49990420
   0.99933041  0.28529523  0.49960971
   0.99973751  0.42839613  0.49916368
   0.99982225  0.57136417  0.49906689
   0.00036488  0.71437849  0.49922921
   0.00132151  0.85795140  0.49961918
   0.14401511  0.00165918  0.50005630
   0.14332650  0.14400024  0.49999376
   0.14175128  0.28549837  0.49962238
   0.14291254  0.42891726  0.49902804
   0.14319673  0.57140397  0.49906465
   0.14326230  0.71448074  0.49953609
   0.14364009  0.85806419  0.49988786
   0.28671480  0.00186172  0.50014019
   0.28723378  0.14596266  0.49999760
   0.28673821  0.29139752  0.49972387
   0.28512742  0.42640869  0.49908233
   0.28782040  0.57094435  0.49861554
   0.28615523  0.71484557  0.49947047
   0.28578631  0.85815574  0.50001913
   0.42904442  0.00076592  0.50000567
   0.43020327  0.14533720  0.49978857
   0.42943675  0.28674446  0.49970144
   0.42775689  0.85670782  0.49972793
   0.57094844  0.99904312  0.49972094
   0.57172640  0.14286546  0.49977820
   0.57557541  0.28961031  0.49917327
   0.56992772  0.85401153  0.49933260
   0.71298828  0.99731941  0.49958149
   0.71404820  0.14167708  0.49969910
   0.71465978  0.28528850  0.49948415
   0.71072956  0.42543116  0.49886427
   0.71565382  0.57365410  0.49926858
   0.71183459  0.85324295  0.49949886
   0.85613840  0.99836355  0.49968153
   0.85621317  0.14155495  0.49980762
   0.85679567  0.28503079  0.49954453
   0.85684840  0.42829804  0.49918549
   0.85616388  0.57093048  0.49879319
   0.85825660  0.71489547  0.49916293
   0.85734715  0.85594308  0.49950093
   0.04776418  0.09539113  0.49995777
   0.04639159  0.23733147  0.49977670
   0.04719742  0.38080458  0.49924576
   0.04772863  0.52381315  0.49908706
   0.04781674  0.66679671  0.49923354
   0.04829228  0.80990256  0.49957840
   0.04847551  0.95311831  0.49988405
   0.19163772  0.09694725  0.50006428
   0.19043150  0.23939265  0.49980733
   0.18936171  0.38037182  0.49918379
   0.19141704  0.52430834  0.49880264
   0.19077270  0.66690491  0.49940245
   0.19086530  0.81018635  0.49986883
   0.19148367  0.95367864  0.50007992
   0.33476044  0.09797947  0.50002924
   0.33595924  0.24212600  0.49986627
   0.33183023  0.52161157  0.49884832
   0.33695620  0.66982672  0.49883751
   0.33301450  0.80990259  0.49979890
   0.33363915  0.95350536  0.50011891
   0.47673979  0.09613785  0.49984921
   0.47779625  0.24123245  0.49946413
   0.47215997  0.80560717  0.49916058
   0.47597289  0.95230841  0.49986952
   0.61867793  0.09441900  0.49977091
   0.61993630  0.23848144  0.49957975
   0.61835219  0.80856001  0.49947797
   0.61755904  0.94991379  0.49952387
   0.76102456  0.09336824  0.49970668
   0.76188910  0.23701994  0.49958806
   0.76149236  0.38037779  0.49922843
   0.75971312  0.52432610  0.49878938
   0.76248825  0.66888787  0.49926944
   0.76102837  0.80398050  0.49947641
   0.76052622  0.94938014  0.49954311
   0.90371260  0.09363612  0.49983663
   0.90401434  0.23713491  0.49972412
   0.90430425  0.38067596  0.49932211
   0.90434663  0.52379991  0.49897675
   0.90465418  0.66631779  0.49899387
   0.90594366  0.80977066  0.49944128
   0.90442470  0.95130832  0.49968695
   0.46676992  0.35948441  0.49997275
   0.40458611  0.55780055  0.50087835
   0.64289220  0.53754050  0.50166347
   0.58112691  0.73582272  0.49984093
   0.56550738  0.59416962  0.53088159
   0.47895142  0.49861494  0.53168712
   0.42684736  0.71515718  0.49839162
   0.71616781  0.71417660  0.49945578
   0.33153491  0.38120737  0.49943532
   0.62083933  0.38004331  0.49849792
   0.52331778  0.54607815  0.56969963
Direct configuration=     8
   0.99998916  0.99989498  0.49985325
   0.99925071  0.14213531  0.49990200
   0.99933138  0.28529663  0.49960191
   0.99973642  0.42839702  0.49915419
   0.99982206  0.57136581  0.49906152
   0.00036463  0.71437861  0.49921939
   0.00132192  0.85795171  0.49961173
   0.14401852  0.00165875  0.50004912
   0.14332723  0.14400126  0.49999296
   0.14175313  0.28549920  0.49962354
   0.14291373  0.42891756  0.49902391
   0.14319839  0.57140409  0.49905741
   0.14326163  0.71448251  0.49952887
   0.14363757  0.85806295  0.49987643
   0.28671435  0.00186105  0.50012912
   0.28723377  0.14596252  0.49999667
   0.28673853  0.29139763  0.49973436
   0.28512789  0.42640800  0.49909529
   0.28782264  0.57094467  0.49861935
   0.28615686  0.71484581  0.49946791
   0.28578579  0.85815584  0.50000908
   0.42904447  0.00076636  0.49999884
   0.43020320  0.14533715  0.49978501
   0.42943596  0.28674358  0.49970884
   0.42775718  0.85670820  0.49973050
   0.57094853  0.99904454  0.49971797
   0.57172638  0.14286588  0.49977009
   0.57557766  0.28961091  0.49917340
   0.56992575  0.85401194  0.49933654
   0.71298948  0.99732169  0.49957863
   0.71404790  0.14167764  0.49968918
   0.71466044  0.28528713  0.49947522
   0.71072991  0.42543253  0.49886171
   0.71565375  0.57365466  0.49927748
   0.71183393  0.85324328  0.49950144
   0.85613991  0.99836489  0.49968239
   0.85621362  0.14155732  0.49980338
   0.85679641  0.28503202  0.49953323
   0.85684786  0.42829972  0.49917364
   0.85616253  0.57093173  0.49878725
   0.85825675  0.71489575  0.49916014
   0.85734749  0.85594432  0.49949999
   0.04776396  0.09539168  0.49995570
   0.04638948  0.23733072  0.49977370
   0.04719926  0.38080536  0.49923990
   0.04772946  0.52381303  0.49908029
   0.04781807  0.66679698  0.49922523
   0.04829049  0.80990044  0.49956962
   0.04847590  0.95311880  0.49987943
   0.19163751  0.09694710  0.50006092
   0.19042937  0.23939116  0.49980891
   0.18936147  0.38037166  0.49918654
   0.19141804  0.52430845  0.49879958
   0.19077380  0.66690507  0.49939629
   0.19086628  0.81018494  0.49985992
   0.19148314  0.95367714  0.50006976
   0.33476033  0.09797954  0.50002376
   0.33596027  0.24212796  0.49987063
   0.33183122  0.52161121  0.49886154
   0.33695746  0.66982704  0.49884188
   0.33301476  0.80990228  0.49979617
   0.33363694  0.95350371  0.50011138
   0.47673952  0.09613868  0.49984211
   0.47779592  0.24123287  0.49946596
   0.47216092  0.80560827  0.49916846
   0.47597275  0.95230863  0.49986767
   0.61867796  0.09442032  0.49976217
   0.61993625  0.23848227  0.49957388
   0.61835387  0.80856326  0.49948282
   0.61756007  0.94991579  0.49952417
   0.76102537  0.09336958  0.49970031
   0.76188967  0.23702276  0.49958383
   0.76149193  0.38037838  0.49921933
   0.75971278  0.52432638  0.49878920
   0.76248944  0.66888945  0.49927518
   0.76102901  0.80398197  0.49948255
   0.76052769  0.94938266  0.49954285
   0.90371329  0.09363718  0.49983488
   0.90401491  0.23713564  0.49971500
   0.90430683  0.38067651  0.49930980
   0.90434989  0.52379721  0.49896733
   0.90465464  0.66631810  0.49898690
   0.90594416  0.80977186  0.49943696
   0.90442519  0.95130948  0.49968426
   0.46677020  0.35948492  0.49998213
   0.40458764  0.55779846  0.50089471
   0.64289209  0.53754161  0.50167936
   0.58112913  0.73582578  0.49984628
   0.56548460  0.59414707  0.53091588
   0.47894470  0.49861341  0.53172499
   0.42684881  0.71515823  0.49840172
   0.71616795  0.71417783  0.49946866
   0.33153486  0.38120658  0.49945387
   0.62083863  0.38004410  0.49849937
   0.52331327  0.54605562  0.56972564
Direct configuration=     9
   0.99998974  0.99989516  0.49985033
   0.99925165  0.14213748  0.49989913
   0.99933342  0.28529808  0.49959202
   0.99973728  0.42839733  0.49914114
   0.99982370  0.57136513  0.49905412
   0.00036458  0.71437711  0.49920662
   0.00132167  0.85795138  0.49960276
   0.14401845  0.00165780  0.50004082
   0.14332721  0.14400202  0.49999184
   0.14175453  0.28550030  0.49962505
   0.14291527  0.42891816  0.49901928
   0.14319969  0.57140346  0.49904783
   0.14326251  0.71448618  0.49952154
   0.14363565  0.85806123  0.49986322
   0.28671189  0.00186148  0.50011755
   0.28723404  0.14596328  0.49999557
   0.28673880  0.29139783  0.49974819