  91  91   0   0
  0.4258115E+02  0.1727104E-08  0.1727104E-08  0.1500000E-08  0.0000000E+00
  1.000000000000000E-004
  CAR 
 unknown system                          
      4.44670168    -24.15721203  301     -2.98453802      1.00000000
    -24.157  0.0000E+00  0.0000E+00  0.0000E+00  0.0000E+00
    -24.062  0.0000E+00  0.0000E+00  0.0000E+00  0.0000E+00
    -23.967  0.0000E+00  0.0000E+00  0.0000E+00  0.0000E+00
    -23.871  0.0000E+00  0.0000E+00  0.0000E+00  0.0000E+00
    -23.776  0.0000E+00  0.0000E+00  0.0000E+00  0.0000E+00
    -23.680  0.0000E+00  0.0000E+00  0.0000E+00  0.0000E+00
    -23.585  0.0000E+00  0.0000E+00  0.0000E+00  0.0000E+00
    -23.490  0.0000E+00  0.0000E+00  0.0000E+00  0.0000E+00
    -23.394  0.0000E+00  0.0000E+00  0.0000E+00  0.0000E+00
    -23.299  0.0000E+00  0.0000E+00  0.0000E+00  0.0000E+00
    -23.204  0.0000E+00  0.0000E+00  0.0000E+00  0.0000E+00
    -23.108  0.6862E-14  0.6862E-14  0.6543E-15  0.6543E-15
    -23.013  0.7788E-07  0.7788E-07  0.7425E-08  0.7425E-08
    -22.918  0.9598E-03  0.9599E-03  0.9153E-04  0.9153E-04
    -22.822  0.2612E-01  0.2612E-01  0.2582E-02  0.2582E-02
    -22.727  0.1343E-01  0.1343E-01  0.3863E-02  0.3863E-02
    -22.632  0.3544E-01  0.3544E-01  0.7242E-02  0.7242E-02
    -22.536  0.2633E-01  0.2633E-01  0.9752E-02  0.9752E-02
    -22.441  0.1226E-01  0.1226E-01  0.1092E-01  0.1092E-01
    -22.346  0.2347E-01  0.2347E-01  0.1316E-01  0.1316E-01
    -22.250  0.1274E-01  0.1274E-01  0.1437E-01  0.1437E-01
    -22.155  0.2174E-01  0.2174E-01  0.1645E-01  0.1645E-01
    -22.060  0.1399E-01  0.1399E-01  0.1778E-01  0.1778E-01
    -21.964  0.1980E-01  0.1980E-01  0.1967E-01  0.1967E-01
    -21.869  0.2308E-01  0.2308E-01  0.2187E-01  0.2187E-01
    -21.774  0.2762E-01  0.2762E-01  0.2450E-01  0.2450E-01
    -21.678  0.2188E-01  0.2188E-01  0.2659E-01  0.2659E-01
    -21.583  0.2534E-01  0.2534E-01  0.2900E-01  0.2900E-01
    -21.488  0.1715E-01  0.1715E-01  0.3064E-01  0.3064E-01
    -21.392  0.2666E-01  0.2666E-01  0.3318E-01  0.3318E-01
    -21.297  0.1575E-01  0.1575E-01  0.3468E-01  0.3468E-01
    -21.201  0.2092E-01  0.2092E-01  0.3668E-01  0.3668E-01
    -21.106  0.3684E-01  0.3683E-01  0.4019E-01  0.4019E-01
    -21.011  0.5416E-01  0.5415E-01  0.4535E-01  0.4535E-01
    -20.915  0.2790E-01  0.2791E-01  0.4801E-01  0.4801E-01
    -20.820  0.2217E-01  0.2217E-01  0.5013E-01  0.5013E-01
    -20.725  0.1097E-01  0.1098E-01  0.5117E-01  0.5117E-01
    -20.629  0.2102E-01  0.2102E-01  0.5318E-01  0.5318E-01
    -20.534  0.1720E-01  0.1720E-01  0.5482E-01  0.5482E-01
    -20.439  0.2243E-01  0.2243E-01  0.5696E-01  0.5696E-01
    -20.343  0.2035E-01  0.2035E-01  0.5890E-01  0.5890E-01
    -20.248  0.2286E-01  0.2286E-01  0.6108E-01  0.6108E-01
    -20.153  0.2444E-01  0.2444E-01  0.6341E-01  0.6341E-01
    -20.057  0.1248E-01  0.1248E-01  0.6460E-01  0.6460E-01
    -19.962  0.1484E-01  0.1484E-01  0.6601E-01  0.6601E-01
    -19.867  0.2515E-01  0.2515E-01  0.6841E-01  0.6841E-01
    -19.771  0.3512E-01  0.3512E-01  0.7176E-01  0.7176E-01
    -19.676  0.2217E-01  0.2217E-01  0.7387E-01  0.7387E-01
    -19.581  0.1548E-01  0.1548E-01  0.7535E-01  0.7535E-01
    -19.485  0.1833E-01  0.1833E-01  0.7710E-01  0.7710E-01
    -19.390  0.2730E-01  0.2730E-01  0.7970E-01  0.7970E-01
    -19.295  0.1601E-01  0.1601E-01  0.8123E-01  0.8123E-01
    -19.199  0.4768E-02  0.4768E-02  0.8168E-01  0.8168E-01
    -19.104  0.9344E-02  0.9344E-02  0.8257E-01  0.8257E-01
    -19.009  0.1685E-01  0.1685E-01  0.8418E-01  0.8418E-01
    -18.913  0.3970E-01  0.3970E-01  0.8796E-01  0.8796E-01
    -18.818  0.4189E-01  0.4189E-01  0.9196E-01  0.9196E-01
    -18.722  0.3406E-01  0.3406E-01  0.9521E-01  0.9521E-01
    -18.627  0.3063E-01  0.3063E-01  0.9813E-01  0.9813E-01
    -18.532  0.2327E-01  0.2327E-01  0.1003E+00  0.1003E+00
    -18.436  0.5191E-02  0.5191E-02  0.1008E+00  0.1008E+00
    -18.341  0.1298E-01  0.1298E-01  0.1021E+00  0.1021E+00
    -18.246  0.2169E-01  0.2169E-01  0.1041E+00  0.1041E+00
    -18.150  0.2848E-01  0.2848E-01  0.1069E+00  0.1069E+00
    -18.055  0.2058E-01  0.2058E-01  0.1088E+00  0.1088E+00
    -17.960  0.1374E-01  0.1374E-01  0.1101E+00  0.1101E+00
    -17.864  0.2769E-01  0.2769E-01  0.1128E+00  0.1128E+00
    -17.769  0.5468E-01  0.5468E-01  0.1180E+00  0.1180E+00
    -17.674  0.2767E-01  0.2767E-01  0.1206E+00  0.1206E+00
    -17.578  0.1151E-01  0.1151E-01  0.1217E+00  0.1217E+00
    -17.483  0.1548E-01  0.1548E-01  0.1232E+00  0.1232E+00
    -17.388  0.4642E-01  0.4642E-01  0.1276E+00  0.1276E+00
    -17.292  0.2865E-01  0.2865E-01  0.1304E+00  0.1304E+00
    -17.197  0.2706E-01  0.2706E-01  0.1329E+00  0.1329E+00
    -17.102  0.1511E-01  0.1511E-01  0.1344E+00  0.1344E+00
    -17.006  0.2150E-01  0.2150E-01  0.1364E+00  0.1364E+00
    -16.911  0.1610E-01  0.1610E-01  0.1380E+00  0.1380E+00
    -16.816  0.4490E-01  0.4490E-01  0.1422E+00  0.1422E+00
    -16.720  0.3651E-01  0.3651E-01  0.1457E+00  0.1457E+00
    -16.625  0.1541E-01  0.1541E-01  0.1472E+00  0.1472E+00
    -16.530  0.3207E-02  0.3207E-02  0.1475E+00  0.1475E+00
    -16.434  0.2864E-05  0.2864E-05  0.1475E+00  0.1475E+00
    -16.339  0.4518E-03  0.4518E-03  0.1475E+00  0.1475E+00
    -16.243  0.8704E-02  0.8704E-02  0.1484E+00  0.1484E+00
    -16.148  0.2282E-01  0.2282E-01  0.1505E+00  0.1505E+00
    -16.053  0.1830E-01  0.1830E-01  0.1523E+00  0.1523E+00
    -15.957  0.1803E-01  0.1803E-01  0.1540E+00  0.1540E+00
    -15.862  0.1491E-01  0.1491E-01  0.1554E+00  0.1554E+00
    -15.767  0.1462E-01  0.1462E-01  0.1568E+00  0.1568E+00
    -15.671  0.1499E-01  0.1499E-01  0.1583E+00  0.1583E+00
    -15.576  0.3075E-01  0.3075E-01  0.1612E+00  0.1612E+00
    -15.481  0.3912E-01  0.3912E-01  0.1649E+00  0.1649E+00
    -15.385  0.5465E-01  0.5465E-01  0.1701E+00  0.1701E+00
    -15.290  0.9025E-02  0.9025E-02  0.1710E+00  0.1710E+00
    -15.195  0.1626E-01  0.1626E-01  0.1725E+00  0.1725E+00
    -15.099  0.3514E-01  0.3514E-01  0.1759E+00  0.1759E+00
    -15.004  0.2383E-01  0.2383E-01  0.1782E+00  0.1782E+00
    -14.909  0.3000E-01  0.3000E-01  0.1810E+00  0.1810E+00
    -14.813  0.3560E-01  0.3560E-01  0.1844E+00  0.1844E+00
    -14.718  0.4214E-01  0.4214E-01  0.1884E+00  0.1884E+00
    -14.623  0.3659E-01  0.3659E-01  0.1919E+00  0.1919E+00
    -14.527  0.1636E-01  0.1636E-01  0.1935E+00  0.1935E+00
    -14.432  0.2248E-01  0.2248E-01  0.1956E+00  0.1956E+00
    -14.337  0.6097E-02  0.6097E-02  0.1962E+00  0.1962E+00
    -14.241  0.1118E-01  0.1118E-01  0.1973E+00  0.1973E+00
    -14.146  0.1403E-01  0.1403E-01  0.1986E+00  0.1986E+00
    -14.050  0.2346E-01  0.2346E-01  0.2008E+00  0.2008E+00
    -13.955  0.4549E-01  0.4549E-01  0.2052E+00  0.2052E+00
    -13.860  0.3480E-01  0.3480E-01  0.2085E+00  0.2085E+00
    -13.764  0.2800E-01  0.2800E-01  0.2112E+00  0.2112E+00
    -13.669  0.1986E-01  0.1986E-01  0.2131E+00  0.2131E+00
    -13.574  0.1753E-01  0.1753E-01  0.2147E+00  0.2147E+00
    -13.478  0.3430E-02  0.3430E-02  0.2151E+00  0.2151E+00
    -13.383  0.1298E-01  0.1298E-01  0.2163E+00  0.2163E+00
    -13.288  0.2188E-01  0.2188E-01  0.2184E+00  0.2184E+00
    -13.192  0.1549E-01  0.1549E-01  0.2199E+00  0.2199E+00
    -13.097  0.2651E-01  0.2651E-01  0.2224E+00  0.2224E+00
    -13.002  0.1807E-01  0.1807E-01  0.2241E+00  0.2241E+00
    -12.906  0.4912E-01  0.4912E-01  0.2288E+00  0.2288E+00
    -12.811  0.3587E-01  0.3587E-01  0.2322E+00  0.2322E+00
    -12.716  0.3318E-01  0.3318E-01  0.2354E+00  0.2354E+00
    -12.620  0.3155E-01  0.3155E-01  0.2384E+00  0.2384E+00
    -12.525  0.3355E-01  0.3355E-01  0.2416E+00  0.2416E+00
    -12.430  0.1950E-01  0.1950E-01  0.2434E+00  0.2434E+00
    -12.334  0.1479E-01  0.1479E-01  0.2449E+00  0.2449E+00
    -12.239  0.9868E-02  0.9868E-02  0.2458E+00  0.2458E+00
    -12.144  0.1437E-01  0.1437E-01  0.2472E+00  0.2472E+00
    -12.048  0.1995E-01  0.1995E-01  0.2491E+00  0.2491E+00
    -11.953  0.3331E-01  0.3331E-01  0.2522E+00  0.2522E+00
    -11.858  0.3133E-01  0.3133E-01  0.2552E+00  0.2552E+00
    -11.762  0.4080E-01  0.4080E-01  0.2591E+00  0.2591E+00
    -11.667  0.5971E-01  0.5971E-01  0.2648E+00  0.2648E+00
    -11.571  0.2913E-01  0.2913E-01  0.2676E+00  0.2676E+00
    -11.476  0.3387E-01  0.3387E-01  0.2708E+00  0.2708E+00
    -11.381  0.3025E-01  0.3025E-01  0.2737E+00  0.2737E+00
    -11.285  0.4419E-01  0.4419E-01  0.2779E+00  0.2779E+00
    -11.190  0.3191E-01  0.3191E-01  0.2810E+00  0.2810E+00
    -11.095  0.1581E-01  0.1581E-01  0.2825E+00  0.2825E+00
    -10.999  0.1033E-01  0.1033E-01  0.2835E+00  0.2835E+00
    -10.904  0.2793E-01  0.2793E-01  0.2861E+00  0.2861E+00
    -10.809  0.1499E-01  0.1499E-01  0.2876E+00  0.2876E+00
    -10.713  0.2286E-01  0.2286E-01  0.2897E+00  0.2897E+00
    -10.618  0.4504E-01  0.4504E-01  0.2940E+00  0.2940E+00
    -10.523  0.4667E-01  0.4667E-01  0.2985E+00  0.2985E+00
    -10.427  0.4283E-01  0.4283E-01  0.3026E+00  0.3026E+00
    -10.332  0.4995E-01  0.4995E-01  0.3073E+00  0.3073E+00
    -10.237  0.4732E-01  0.4732E-01  0.3118E+00  0.3118E+00
    -10.141  0.5488E-01  0.5488E-01  0.3171E+00  0.3171E+00
    -10.046  0.5194E-01  0.5194E-01  0.3220E+00  0.3220E+00
     -9.951  0.4304E-01  0.4304E-01  0.3261E+00  0.3261E+00
     -9.855  0.9144E-01  0.9144E-01  0.3348E+00  0.3348E+00
     -9.760  0.6611E-01  0.6611E-01  0.3411E+00  0.3411E+00
     -9.665  0.4532E-01  0.4532E-01  0.3455E+00  0.3455E+00
     -9.569  0.6338E-01  0.6338E-01  0.3515E+00  0.3515E+00
     -9.474  0.4189E-01  0.4189E-01  0.3555E+00  0.3555E+00
     -9.379  0.6452E-01  0.6452E-01  0.3617E+00  0.3617E+00
     -9.283  0.1013E+00  0.1013E+00  0.3713E+00  0.3713E+00
     -9.188  0.8404E-01  0.8404E-01  0.3793E+00  0.3793E+00
     -9.092  0.6495E-01  0.6495E-01  0.3855E+00  0.3855E+00
     -8.997  0.4272E-01  0.4272E-01  0.3896E+00  0.3896E+00
     -8.902  0.6982E-01  0.6982E-01  0.3963E+00  0.3963E+00
     -8.806  0.5418E-01  0.5418E-01  0.4014E+00  0.4014E+00
     -8.711  0.6607E-01  0.6608E-01  0.4077E+00  0.4077E+00
     -8.616  0.7019E-01  0.7019E-01  0.4144E+00  0.4144E+00
     -8.520  0.9167E-01  0.9167E-01  0.4231E+00  0.4231E+00
     -8.425  0.6195E-01  0.6195E-01  0.4291E+00  0.4291E+00
     -8.330  0.5244E-01  0.5244E-01  0.4341E+00  0.4341E+00
     -8.234  0.3613E-01  0.3613E-01  0.4375E+00  0.4375E+00
     -8.139  0.3580E-01  0.3580E-01  0.4409E+00  0.4409E+00
     -8.044  0.4237E-01  0.4237E-01  0.4450E+00  0.4450E+00
     -7.948  0.3085E-01  0.3085E-01  0.4479E+00  0.4479E+00
     -7.853  0.2487E-01  0.2487E-01  0.4503E+00  0.4503E+00
     -7.758  0.2973E-01  0.2973E-01  0.4531E+00  0.4531E+00
     -7.662  0.8289E-01  0.8289E-01  0.4610E+00  0.4610E+00
     -7.567  0.7761E-01  0.7761E-01  0.4684E+00  0.4684E+00
     -7.472  0.5502E-01  0.5502E-01  0.4736E+00  0.4736E+00
     -7.376  0.4545E-01  0.4545E-01  0.4780E+00  0.4780E+00
     -7.281  0.2154E-01  0.2154E-01  0.4800E+00  0.4800E+00
     -7.186  0.2597E-01  0.2597E-01  0.4825E+00  0.4825E+00
     -7.090  0.3194E-01  0.3194E-01  0.4856E+00  0.4856E+00
     -6.995  0.5555E-01  0.5555E-01  0.4909E+00  0.4909E+00
     -6.900  0.2856E-01  0.2856E-01  0.4936E+00  0.4936E+00
     -6.804  0.2339E-01  0.2339E-01  0.4958E+00  0.4958E+00
     -6.709  0.4946E-01  0.4946E-01  0.5005E+00  0.5005E+00
     -6.613  0.5071E-01  0.5071E-01  0.5054E+00  0.5054E+00
     -6.518  0.5308E-01  0.5308E-01  0.5104E+00  0.5104E+00
     -6.423  0.2907E-01  0.2907E-01  0.5132E+00  0.5132E+00
     -6.327  0.4594E-01  0.4594E-01  0.5176E+00  0.5176E+00
     -6.232  0.4542E-01  0.4542E-01  0.5219E+00  0.5219E+00
     -6.137  0.2211E-01  0.2211E-01  0.5240E+00  0.5240E+00
     -6.041  0.2424E-01  0.2424E-01  0.5263E+00  0.5263E+00
     -5.946  0.1318E-01  0.1318E-01  0.5276E+00  0.5276E+00
     -5.851  0.1446E-01  0.1446E-01  0.5290E+00  0.5290E+00
     -5.755  0.1927E-01  0.1927E-01  0.5308E+00  0.5308E+00
     -5.660  0.3252E-01  0.3252E-01  0.5339E+00  0.5339E+00
     -5.565  0.2701E-01  0.2701E-01  0.5365E+00  0.5365E+00
     -5.469  0.3502E-01  0.3502E-01  0.5398E+00  0.5398E+00
     -5.374  0.8899E-01  0.8899E-01  0.5483E+00  0.5483E+00
     -5.279  0.5734E-01  0.5734E-01  0.5538E+00  0.5538E+00
     -5.183  0.5833E-01  0.5833E-01  0.5593E+00  0.5593E+00
     -5.088  0.1565E-01  0.1565E-01  0.5608E+00  0.5608E+00
     -4.993  0.5679E-02  0.5679E-02  0.5614E+00  0.5614E+00
     -4.897  0.4201E-01  0.4201E-01  0.5654E+00  0.5654E+00
     -4.802  0.1593E-01  0.1593E-01  0.5669E+00  0.5669E+00
     -4.707  0.1755E-01  0.1755E-01  0.5686E+00  0.5686E+00
     -4.611  0.4382E-01  0.4382E-01  0.5727E+00  0.5727E+00
     -4.516  0.6762E-01  0.6762E-01  0.5792E+00  0.5792E+00
     -4.421  0.6834E-01  0.6834E-01  0.5857E+00  0.5857E+00
     -4.325  0.5065E-01  0.5065E-01  0.5905E+00  0.5905E+00
     -4.230  0.3938E-01  0.3938E-01  0.5943E+00  0.5943E+00
     -4.134  0.4231E-01  0.4231E-01  0.5983E+00  0.5983E+00
     -4.039  0.3391E-01  0.3391E-01  0.6015E+00  0.6015E+00
     -3.944  0.1008E-01  0.1008E-01  0.6025E+00  0.6025E+00
     -3.848  0.2819E-01  0.2819E-01  0.6052E+00  0.6052E+00
     -3.753  0.2398E-01  0.2398E-01  0.6075E+00  0.6075E+00
     -3.658  0.3784E-03  0.3786E-03  0.6075E+00  0.6075E+00
     -3.562  0.6360E-02  0.6360E-02  0.6081E+00  0.6081E+00
     -3.467  0.2189E-02  0.2189E-02  0.6083E+00  0.6083E+00
     -3.372  0.6996E-04  0.6996E-04  0.6083E+00  0.6083E+00
     -3.276  0.8862E-02  0.8862E-02  0.6092E+00  0.6092E+00
     -3.181  0.8510E-02  0.8509E-02  0.6100E+00  0.6100E+00
     -3.086  0.9182E-02  0.9154E-02  0.6109E+00  0.6109E+00
     -2.990  0.2544E-01  0.2546E-01  0.6133E+00  0.6133E+00
     -2.895  0.1305E-01  0.1305E-01  0.6145E+00  0.6145E+00
     -2.800  0.4806E-02  0.4806E-02  0.6150E+00  0.6150E+00
     -2.704  0.8742E-05  0.8742E-05  0.6150E+00  0.6150E+00
     -2.609  0.1187E-04  0.1187E-04  0.6150E+00  0.6150E+00
     -2.514  0.3327E-02  0.3327E-02  0.6153E+00  0.6153E+00
     -2.418  0.7727E-02  0.7727E-02  0.6161E+00  0.6161E+00
     -2.323  0.8114E-02  0.8114E-02  0.6168E+00  0.6168E+00
     -2.228  0.9224E-02  0.9224E-02  0.6177E+00  0.6177E+00
     -2.132  0.1289E-01  0.1289E-01  0.6189E+00  0.6189E+00
     -2.037  0.1099E-01  0.1099E-01  0.6200E+00  0.6200E+00
     -1.942  0.3606E-03  0.3606E-03  0.6200E+00  0.6200E+00
     -1.846  0.1202E-01  0.1202E-01  0.6212E+00  0.6212E+00
     -1.751  0.3138E-01  0.3138E-01  0.6242E+00  0.6242E+00
     -1.655  0.8792E-02  0.8792E-02  0.6250E+00  0.6250E+00
     -1.560  0.4653E-04  0.4653E-04  0.6250E+00  0.6250E+00
     -1.465  0.2383E-02  0.2383E-02  0.6252E+00  0.6252E+00
     -1.369  0.2144E-01  0.2144E-01  0.6273E+00  0.6273E+00
     -1.274  0.5466E-01  0.5466E-01  0.6325E+00  0.6325E+00
     -1.179  0.3748E-01  0.3748E-01  0.6361E+00  0.6361E+00
     -1.083  0.3116E-01  0.3116E-01  0.6390E+00  0.6390E+00
     -0.988  0.2714E-01  0.2714E-01  0.6416E+00  0.6416E+00
     -0.893  0.3358E-01  0.3358E-01  0.6448E+00  0.6448E+00
     -0.797  0.2020E-01  0.2020E-01  0.6467E+00  0.6467E+00
     -0.702  0.1081E-01  0.1081E-01  0.6478E+00  0.6478E+00
     -0.607  0.3328E-01  0.3328E-01  0.6509E+00  0.6509E+00
     -0.511  0.2997E-01  0.2997E-01  0.6538E+00  0.6538E+00
     -0.416  0.3590E-01  0.3590E-01  0.6572E+00  0.6572E+00
     -0.321  0.3126E-01  0.3126E-01  0.6602E+00  0.6602E+00
     -0.225  0.4001E-01  0.4001E-01  0.6640E+00  0.6640E+00
     -0.130  0.2384E-01  0.2384E-01  0.6663E+00  0.6663E+00
     -0.035  0.3878E-02  0.3878E-02  0.6667E+00  0.6667E+00
      0.061  0.4049E-02  0.4049E-02  0.6671E+00  0.6671E+00
      0.156  0.2038E-01  0.2038E-01  0.6690E+00  0.6690E+00
      0.251  0.2363E-01  0.2363E-01  0.6712E+00  0.6712E+00
      0.347  0.3221E-01  0.3221E-01  0.6743E+00  0.6743E+00
      0.442  0.1669E-01  0.1669E-01  0.6759E+00  0.6759E+00
      0.538  0.1632E-01  0.1632E-01  0.6775E+00  0.6775E+00
      0.633  0.1053E-01  0.1053E-01  0.6785E+00  0.6785E+00
      0.728  0.2262E-01  0.2262E-01  0.6806E+00  0.6806E+00
      0.824  0.2457E-01  0.2457E-01  0.6830E+00  0.6830E+00
      0.919  0.3291E-01  0.3291E-01  0.6861E+00  0.6861E+00
      1.014  0.4447E-01  0.4447E-01  0.6903E+00  0.6903E+00
      1.110  0.3032E-01  0.3032E-01  0.6932E+00  0.6932E+00
      1.205  0.4875E-01  0.4875E-01  0.6979E+00  0.6979E+00
      1.300  0.4546E-01  0.4546E-01  0.7022E+00  0.7022E+00
      1.396  0.3243E-01  0.3243E-01  0.7053E+00  0.7053E+00
      1.491  0.2854E-01  0.2854E-01  0.7080E+00  0.7080E+00
      1.586  0.2104E-01  0.2104E-01  0.7100E+00  0.7100E+00
      1.682  0.1741E-01  0.1741E-01  0.7117E+00  0.7117E+00
      1.777  0.4717E-01  0.4717E-01  0.7162E+00  0.7162E+00
      1.872  0.7999E-01  0.7999E-01  0.7238E+00  0.7238E+00
      1.968  0.6590E-01  0.6590E-01  0.7301E+00  0.7301E+00
      2.063  0.2559E-01  0.2559E-01  0.7325E+00  0.7325E+00
      2.158  0.2867E-01  0.2867E-01  0.7353E+00  0.7353E+00
      2.254  0.5051E-01  0.5052E-01  0.7401E+00  0.7401E+00
      2.349  0.7040E-01  0.7040E-01  0.7468E+00  0.7468E+00
      2.444  0.8164E-01  0.8163E-01  0.7546E+00  0.7546E+00
      2.540  0.3495E-01  0.3495E-01  0.7579E+00  0.7579E+00
      2.635  0.3683E-01  0.3683E-01  0.7614E+00  0.7614E+00
      2.730  0.9380E-01  0.9380E-01  0.7704E+00  0.7704E+00
      2.826  0.1763E+00  0.1763E+00  0.7872E+00  0.7872E+00
      2.921  0.7885E-01  0.7861E-01  0.7947E+00  0.7947E+00
      3.017  0.1858E-01  0.1276E-01  0.7965E+00  0.7959E+00
      3.112  0.1233E-01  0.1900E-01  0.7977E+00  0.7977E+00
      3.207  0.2386E-01  0.2328E-01  0.7999E+00  0.7999E+00
      3.303  0.7425E-03  0.7125E-03  0.8000E+00  0.8000E+00
      3.398  0.6240E-07  0.6144E-07  0.8000E+00  0.8000E+00
      3.493  0.6016E-14  0.5907E-14  0.8000E+00  0.8000E+00
      3.589  0.0000E+00  0.0000E+00  0.8000E+00  0.8000E+00
      3.684  0.0000E+00  0.0000E+00  0.8000E+00  0.8000E+00
      3.779  0.0000E+00  0.0000E+00  0.8000E+00  0.8000E+00
      3.875  0.0000E+00  0.0000E+00  0.8000E+00  0.8000E+00
      3.970  0.0000E+00  0.0000E+00  0.8000E+00  0.8000E+00
      4.065  0.0000E+00  0.0000E+00  0.8000E+00  0.8000E+00
      4.161  0.0000E+00  0.0000E+00  0.8000E+00  0.8000E+00
      4.256  0.0000E+00  0.0000E+00  0.8000E+00  0.8000E+00
      4.351  0.0000E+00  0.0000E+00  0.8000E+00  0.8000E+00
      4.447  0.0000E+00  0.0000E+00  0.8000E+00  0.8000E+00
