       N       E                     dE             d eps       ncg     rms          rms(c)
DAV:   1     0.350095715073E+04    0.35010E+04   -0.13772E+05  4060   0.116E+03
DAV:   2    -0.166575164003E+03   -0.36675E+04   -0.34926E+04  5760   0.279E+02
DAV:   3    -0.841696767005E+03   -0.67512E+03   -0.67225E+03  4640   0.127E+02
DAV:   4    -0.865647502195E+03   -0.23951E+02   -0.23831E+02  4700   0.312E+01
DAV:   5    -0.866381813621E+03   -0.73431E+00   -0.73315E+00  5500   0.456E+00    0.428E+01
DAV:   6    -0.837581914993E+03    0.28800E+02   -0.20232E+01  4440   0.790E+00    0.323E+01
DAV:   7    -0.814024065364E+03    0.23558E+02   -0.80059E+01  4460   0.146E+01    0.200E+01
DAV:   8    -0.813211845598E+03    0.81222E+00   -0.29294E+01  4540   0.346E+00    0.131E+01
DAV:   9    -0.813476146028E+03   -0.26430E+00   -0.64139E+00  4400   0.470E+00    0.669E+00
DAV:  10    -0.813327753249E+03    0.14839E+00   -0.66497E-01  4160   0.179E+00    0.421E+00
DAV:  11    -0.813051368005E+03    0.27639E+00   -0.68491E-01  4200   0.147E+00    0.218E+00
DAV:  12    -0.812998631339E+03    0.52737E-01   -0.47337E-02  4340   0.509E-01    0.198E+00
DAV:  13    -0.812939037547E+03    0.59594E-01   -0.21849E-02  4860   0.280E-01    0.176E+00
DAV:  14    -0.812925451789E+03    0.13586E-01   -0.45298E-03  4520   0.984E-02    0.169E+00
DAV:  15    -0.812926639578E+03   -0.11878E-02   -0.21867E-04  4440   0.220E-02    0.169E+00
DAV:  16    -0.812863166526E+03    0.63473E-01   -0.17371E-02  4600   0.229E-01    0.145E+00
DAV:  17    -0.812736340102E+03    0.12683E+00   -0.13834E-01  4800   0.702E-01    0.814E-01
DAV:  18    -0.812709269039E+03    0.27071E-01   -0.43523E-02  4520   0.297E-01    0.518E-01
DAV:  19    -0.812692887147E+03    0.16382E-01   -0.30987E-02  4760   0.248E-01    0.168E-01
DAV:  20    -0.812693350301E+03   -0.46315E-03   -0.35610E-03  4320   0.861E-02    0.212E-01
DAV:  21    -0.812694544462E+03   -0.11942E-02   -0.40329E-03  4560   0.640E-02    0.225E-01
DAV:  22    -0.812696897492E+03   -0.23530E-02   -0.10959E-02  4480   0.105E-01    0.105E+00
DAV:  23    -0.812692851590E+03    0.40459E-02   -0.16181E-02  4260   0.939E-02    0.213E-01
DAV:  24    -0.812693906029E+03   -0.10544E-02   -0.41688E-04  4040   0.276E-02    0.199E-01
DAV:  25    -0.812693976184E+03   -0.70155E-04   -0.68167E-05  4600   0.118E-02    0.216E-01
DAV:  26    -0.812693231020E+03    0.74516E-03   -0.33055E-04  4400   0.221E-02    0.138E-01
DAV:  27    -0.812693030395E+03    0.20062E-03   -0.28229E-04  4840   0.170E-02    0.409E-02
DAV:  28    -0.812693122054E+03   -0.91658E-04   -0.16074E-05  3880   0.581E-03    0.445E-02
DAV:  29    -0.812693110630E+03    0.11424E-04   -0.14434E-05  3580   0.374E-03    0.253E-02
DAV:  30    -0.812693114840E+03   -0.42102E-05   -0.50583E-06  3260   0.309E-03    0.195E-02
DAV:  31    -0.812693121988E+03   -0.71477E-05   -0.20174E-05  3360   0.491E-03    0.278E-02
DAV:  32    -0.812693111480E+03    0.10508E-04   -0.61240E-06  3380   0.351E-03    0.124E-02
DAV:  33    -0.812693112190E+03   -0.71005E-06   -0.92255E-07  3160   0.144E-03
   1 F= -.82006572E+03 E0= -.82006343E+03  d E =-.820066E+03  mag=     0.0000
