 vasp.6.4.2 20Jul23 (build Aug 26 2025 15:10:52) complex                        
  
 executed on             LinuxIFC date 2025.11.27  11:30:10
 running  100 mpi-ranks, on    2 nodes
 each image running on   20 cores
 distrk:  each k-point on   20 cores,    1 groups
 distr:  one band on NCORE=   1 cores,   20 groups


--------------------------------------------------------------------------------------------------------


 INCAR:
   ENCUT = 520
   EDIFF = 1E-6
   NELM = 200
   ALGO = Normal
   ISMEAR = 0
   SIGMA = 0.05
   LASPH = .TRUE.
   ADDGRID = .TRUE.
   LREAL = Auto
   ISYM = 0
   ISPIN = 2
   MAGMOM = 91*0
   IMIX = 4
   AMIX = 0.20
   BMIX = 1E-4
   AMIX_MAG = 0.80
   BMIX_MAG = 1E-4
   IBRION = 3
   POTIM = 0
   ICHAIN = 0
   IMAGES = 5
   SPRING = -5
   LCLIMB = .TRUE.
   IOPT = 1
   ISIF = 2
   EDIFFG = -0.03
   NSW = 300
   IVDW = 12
   ISTART = 0
   ICHARG = 2
   LWAVE = .FALSE.
   LCHARG = .FALSE.

 POTCAR:    PAW_PBE C 08Apr2002                   
 POTCAR:    PAW_PBE N 08Apr2002                   
 POTCAR:    PAW_PBE H 15Jun2001                   
 POTCAR:    PAW_PBE O 08Apr2002                   
 -----------------------------------------------------------------------------
|                                                                             |
|           W    W    AA    RRRRR   N    N  II  N    N   GGGG   !!!           |
|           W    W   A  A   R    R  NN   N  II  NN   N  G    G  !!!           |
|           W    W  A    A  R    R  N N  N  II  N N  N  G       !!!           |
|           W WW W  AAAAAA  RRRRR   N  N N  II  N  N N  G  GGG   !            |
|           WW  WW  A    A  R   R   N   NN  II  N   NN  G    G                |
|           W    W  A    A  R    R  N    N  II  N    N   GGGG   !!!           |
|                                                                             |
|     For optimal performance we recommend to set                             |
|       NCORE = 2 up to number-of-cores-per-socket                            |
|     NCORE specifies how many cores store one orbital (NPAR=cpu/NCORE).      |
|     This setting can greatly improve the performance of VASP for DFT.       |
|     The default, NCORE=1 might be grossly inefficient on modern             |
|     multi-core architectures or massively parallel machines. Do your        |
|     own testing! More info at https://www.vasp.at/wiki/index.php/NCORE      |
|     Unfortunately you need to use the default for GW and RPA                |
|     calculations (for HF NCORE is supported but not extensively tested      |
|     yet).                                                                   |
|                                                                             |
 -----------------------------------------------------------------------------

 POTCAR:    PAW_PBE C 08Apr2002                   
   SHA256 =  253f7b50bb8d59471dbedb8285d89021f4a42ed1a2c5d38a03a736e69125dd95 C/POTCAR              
   COPYR  = (c) Copyright 08Apr2002 Georg Kresse                                                    
   COPYR  = This file is part of the software VASP. Any use, copying, and all other rights are regul
   COPYR  = If you do not have a valid VASP license, you may not use, copy or distribute this file. 
   VRHFIN =C: s2p2                                                                                  
   LEXCH  = PE                                                                                      
   EATOM  =   147.1560 eV,   10.8157 Ry                                                             
                                                                                                    
   TITEL  = PAW_PBE C 08Apr2002                                                                     
   LULTRA =        F    use ultrasoft PP ?                                                          
   IUNSCR =        1    unscreen: 0-lin 1-nonlin 2-no                                               
   RPACOR =    1.200    partial core radius                                                         
   POMASS =   12.011; ZVAL   =    4.000    mass and valenz                                          
   RCORE  =    1.500    outmost cutoff radius                                                       
   RWIGS  =    1.630; RWIGS  =    0.863    wigner-seitz radius (au A)                               
   ENMAX  =  400.000; ENMIN  =  300.000 eV                                                          
   ICORE  =        2    local potential                                                             
   LCOR   =        T    correct aug charges                                                         
   LPAW   =        T    paw PP                                                                      
   EAUG   =  644.873                                                                                
   DEXC   =    0.000                                                                                
   RMAX   =    1.529    core radius for proj-oper                                                   
   RAUG   =    1.300    factor for augmentation sphere                                              
   RDEP   =    1.501    radius for radial grids                                                     
   RDEPT  =    1.300    core radius for aug-charge                                                  
                                                                                                    
   Atomic configuration                                                                             
    4 entries                                                                                       
     n  l   j            E        occ.                                                              
     1  0  0.50      -273.3789   2.0000                                                             
     2  0  0.50       -13.7508   2.0000                                                             
     2  1  0.50        -5.2854   2.0000                                                             
     3  2  1.50        -5.4423   0.0000                                                             
   Description                                                                                      
     l       E           TYP  RCUT    TYP  RCUT                                                     
     0    -13.7508458     23  1.200                                                                 
     0     -8.2022199     23  1.200                                                                 
     1     -5.2854383     23  1.500                                                                 
     1     34.0145650     23  1.500                                                                 
     2     -5.4423304      7  1.500                                                                 
  local pseudopotential read in
  partial core-charges read in
  partial kinetic energy density read in
  atomic valenz-charges read in
  non local Contribution for L=           0  read in
    real space projection operators read in
  non local Contribution for L=           0  read in
    real space projection operators read in
  non local Contribution for L=           1  read in
    real space projection operators read in
  non local Contribution for L=           1  read in
    real space projection operators read in
    PAW grid and wavefunctions read in
 
   number of l-projection  operators is LMAX  =           4
   number of lm-projection operators is LMMAX =           8
 
 POTCAR:    PAW_PBE N 08Apr2002                   
   SHA256 =  e053789ff3a61a86a1b75d8a110fcc91f86041011e7b0817c7c99e4e8a6349d7 N/POTCAR              
   COPYR  = (c) Copyright 08Apr2002 Georg Kresse                                                    
   COPYR  = This file is part of the software VASP. Any use, copying, and all other rights are regul
   COPYR  = If you do not have a valid VASP license, you may not use, copy or distribute this file. 
   VRHFIN =N: s2p3                                                                                  
   LEXCH  = PE                                                                                      
   EATOM  =   264.5486 eV,   19.4438 Ry                                                             
                                                                                                    
   TITEL  = PAW_PBE N 08Apr2002                                                                     
   LULTRA =        F    use ultrasoft PP ?                                                          
   IUNSCR =        1    unscreen: 0-lin 1-nonlin 2-no                                               
   RPACOR =    1.200    partial core radius                                                         
   POMASS =   14.001; ZVAL   =    5.000    mass and valenz                                          
   RCORE  =    1.500    outmost cutoff radius                                                       
   RWIGS  =    1.400; RWIGS  =    0.741    wigner-seitz radius (au A)                               
   ENMAX  =  400.000; ENMIN  =  300.000 eV                                                          
   ICORE  =        2    local potential                                                             
   LCOR   =        T    correct aug charges                                                         
   LPAW   =        T    paw PP                                                                      
   EAUG   =  627.112                                                                                
   DEXC   =    0.000                                                                                
   RMAX   =    1.529    core radius for proj-oper                                                   
   RAUG   =    1.300    factor for augmentation sphere                                              
   RDEP   =    1.514    radius for radial grids                                                     
   RDEPT  =    1.338    core radius for aug-charge                                                  
                                                                                                    
   Atomic configuration                                                                             
    4 entries                                                                                       
     n  l   j            E        occ.                                                              
     1  0  0.50      -384.7179   2.0000                                                             
     2  0  0.50       -18.5828   2.0000                                                             
     2  1  0.50        -7.0898   3.0000                                                             
     3  2  1.50        -6.8029   0.0000                                                             
   Description                                                                                      
     l       E           TYP  RCUT    TYP  RCUT                                                     
     0    -18.5828119     23  1.200                                                                 
     0    -13.5018863     23  1.200                                                                 
     1     -7.0897853     23  1.500                                                                 
     1      9.5240782     23  1.500                                                                 
     2     -6.8029130      7  1.500                                                                 
  local pseudopotential read in
  partial core-charges read in
  partial kinetic energy density read in
  atomic valenz-charges read in
  non local Contribution for L=           0  read in
    real space projection operators read in
  non local Contribution for L=           0  read in
    real space projection operators read in
  non local Contribution for L=           1  read in
    real space projection operators read in
  non local Contribution for L=           1  read in
    real space projection operators read in
    PAW grid and wavefunctions read in
 
   number of l-projection  operators is LMAX  =           4
   number of lm-projection operators is LMMAX =           8
 
 POTCAR:    PAW_PBE H 15Jun2001                   
   SHA256 =  030f79b5d3ab3cf0e668861823c8fb652ff669f3e15e46930bd03bfd63a607b6 H/POTCAR              
   COPYR  = (c) Copyright 15Jun2001 Georg Kresse                                                    
   COPYR  = This file is part of the software VASP. Any use, copying, and all other rights are regul
   COPYR  = If you do not have a valid VASP license, you may not use, copy or distribute this file. 
   VRHFIN =H: ultrasoft test                                                                        
   LEXCH  = PE                                                                                      
   EATOM  =    12.4884 eV,    0.9179 Ry                                                             
                                                                                                    
   TITEL  = PAW_PBE H 15Jun2001                                                                     
   LULTRA =        F    use ultrasoft PP ?                                                          
   IUNSCR =        0    unscreen: 0-lin 1-nonlin 2-no                                               
   RPACOR =    0.000    partial core radius                                                         
   POMASS =    1.000; ZVAL   =    1.000    mass and valenz                                          
   RCORE  =    1.100    outmost cutoff radius                                                       
   RWIGS  =    0.700; RWIGS  =    0.370    wigner-seitz radius (au A)                               
   ENMAX  =  250.000; ENMIN  =  200.000 eV                                                          
   RCLOC  =    0.701    cutoff for local pot                                                        
   LCOR   =        T    correct aug charges                                                         
   LPAW   =        T    paw PP                                                                      
   EAUG   =  400.000                                                                                
   RMAX   =    1.123    core radius for proj-oper                                                   
   RAUG   =    1.200    factor for augmentation sphere                                              
   RDEP   =    1.112    radius for radial grids                                                     
   RDEPT  =    0.926    core radius for aug-charge                                                  
                                                                                                    
   Atomic configuration                                                                             
    2 entries                                                                                       
     n  l   j            E        occ.                                                              
     1  0  0.50        -6.4927   1.0000                                                             
     2  1  0.50        -3.4015   0.0000                                                             
   Description                                                                                      
     l       E           TYP  RCUT    TYP  RCUT                                                     
     0     -6.4927494     23  1.100                                                                 
     0      6.8029130     23  1.100                                                                 
     1     -4.0817478     23  1.100                                                                 
  local pseudopotential read in
  atomic valenz-charges read in
  non local Contribution for L=           0  read in
    real space projection operators read in
  non local Contribution for L=           0  read in
    real space projection operators read in
  non local Contribution for L=           1  read in
    real space projection operators read in
    PAW grid and wavefunctions read in
 
   number of l-projection  operators is LMAX  =           3
   number of lm-projection operators is LMMAX =           5
 
 POTCAR:    PAW_PBE O 08Apr2002                   
   SHA256 =  818f92134a0a090dccd8ba1447fa70422a3b330e708bb4f08108d8ae51209ddf O/POTCAR              
   COPYR  = (c) Copyright 08Apr2002 Georg Kresse                                                    
   COPYR  = This file is part of the software VASP. Any use, copying, and all other rights are regul
   COPYR  = If you do not have a valid VASP license, you may not use, copy or distribute this file. 
   VRHFIN =O: s2p4                                                                                  
   LEXCH  = PE                                                                                      
   EATOM  =   432.3788 eV,   31.7789 Ry                                                             
                                                                                                    
   TITEL  = PAW_PBE O 08Apr2002                                                                     
   LULTRA =        F    use ultrasoft PP ?                                                          
   IUNSCR =        1    unscreen: 0-lin 1-nonlin 2-no                                               
   RPACOR =    1.200    partial core radius                                                         
   POMASS =   16.000; ZVAL   =    6.000    mass and valenz                                          
   RCORE  =    1.520    outmost cutoff radius                                                       
   RWIGS  =    1.550; RWIGS  =    0.820    wigner-seitz radius (au A)                               
   ENMAX  =  400.000; ENMIN  =  300.000 eV                                                          
   ICORE  =        2    local potential                                                             
   LCOR   =        T    correct aug charges                                                         
   LPAW   =        T    paw PP                                                                      
   EAUG   =  605.392                                                                                
   DEXC   =    0.000                                                                                
   RMAX   =    1.553    core radius for proj-oper                                                   
   RAUG   =    1.300    factor for augmentation sphere                                              
   RDEP   =    1.550    radius for radial grids                                                     
   RDEPT  =    1.329    core radius for aug-charge                                                  
                                                                                                    
   Atomic configuration                                                                             
    4 entries                                                                                       
     n  l   j            E        occ.                                                              
     1  0  0.50      -514.6923   2.0000                                                             
     2  0  0.50       -23.9615   2.0000                                                             
     2  1  0.50        -9.0305   4.0000                                                             
     3  2  1.50        -9.5241   0.0000                                                             
   Description                                                                                      
     l       E           TYP  RCUT    TYP  RCUT                                                     
     0    -23.9615318     23  1.200                                                                 
     0     -9.5240782     23  1.200                                                                 
     1     -9.0304911     23  1.520                                                                 
     1      8.1634956     23  1.520                                                                 
     2     -9.5240782      7  1.500                                                                 
  local pseudopotential read in
  partial core-charges read in
  partial kinetic energy density read in
  kinetic energy density of atom read in
  atomic valenz-charges read in
  non local Contribution for L=           0  read in
    real space projection operators read in
  non local Contribution for L=           0  read in
    real space projection operators read in
  non local Contribution for L=           1  read in
    real space projection operators read in
  non local Contribution for L=           1  read in
    real space projection operators read in
    PAW grid and wavefunctions read in
 
   number of l-projection  operators is LMAX  =           4
   number of lm-projection operators is LMMAX =           8
 
 Optimization of the real space projectors (new method)

 maximal supplied QI-value         = 25.13
 optimisation between [QCUT,QGAM] = [ 11.56, 23.12] = [ 37.43,149.72] Ry 
 Optimized for a Real-space Cutoff    1.04 Angstroem

   l    n(q)    QCUT    max X(q) W(low)/X(q) W(high)/X(q)  e(spline) 
   0      7    11.561   115.676    0.20E-03    0.60E-03    0.21E-06
   0      7    11.561    87.132    0.20E-03    0.59E-03    0.21E-06
   1      7    11.561     4.429    0.23E-03    0.35E-03    0.15E-06
   1      7    11.561     2.733    0.18E-03    0.25E-03    0.12E-06
 Optimization of the real space projectors (new method)

 maximal supplied QI-value         = 25.13
 optimisation between [QCUT,QGAM] = [ 11.56, 23.12] = [ 37.43,149.72] Ry 
 Optimized for a Real-space Cutoff    1.25 Angstroem

   l    n(q)    QCUT    max X(q) W(low)/X(q) W(high)/X(q)  e(spline) 
   0      9    11.561    79.467    0.52E-04    0.16E-03    0.37E-06
   0      9    11.561    66.151    0.51E-04    0.16E-03    0.37E-06
   1      8    11.561    18.886    0.46E-03    0.28E-03    0.80E-06
   1      8    11.561    13.488    0.47E-03    0.29E-03    0.82E-06
 Optimization of the real space projectors (new method)

 maximal supplied QI-value         = 34.20
 optimisation between [QCUT,QGAM] = [ 11.63, 23.26] = [ 37.87,151.49] Ry 
 Optimized for a Real-space Cutoff    1.14 Angstroem

   l    n(q)    QCUT    max X(q) W(low)/X(q) W(high)/X(q)  e(spline) 
   0      8    11.629    19.460    0.27E-03    0.65E-03    0.17E-06
   0      8    11.629    12.209    0.25E-03    0.62E-03    0.16E-06
   1      7    11.629     4.655    0.29E-03    0.85E-04    0.19E-06
 Optimization of the real space projectors (new method)

 maximal supplied QI-value         = 24.76
 optimisation between [QCUT,QGAM] = [ 11.64, 23.27] = [ 37.91,151.63] Ry 
 Optimized for a Real-space Cutoff    1.04 Angstroem

   l    n(q)    QCUT    max X(q) W(low)/X(q) W(high)/X(q)  e(spline) 
   0      7    11.635    20.381    0.14E-03    0.49E-03    0.18E-06
   0      7    11.635    15.268    0.16E-03    0.52E-03    0.19E-06
   1      7    11.635     5.964    0.30E-03    0.44E-03    0.22E-06
   1      7    11.635     5.382    0.27E-03    0.34E-03    0.19E-06
  PAW_PBE C 08Apr2002                   :
 energy of atom  1       EATOM= -147.1560
 kinetic energy error for atom=    0.0071 (will be added to EATOM!!)
  PAW_PBE N 08Apr2002                   :
 energy of atom  2       EATOM= -264.5486
 kinetic energy error for atom=    0.0125 (will be added to EATOM!!)
  PAW_PBE H 15Jun2001                   :
 energy of atom  3       EATOM=  -12.4884
 kinetic energy error for atom=    0.0014 (will be added to EATOM!!)
  PAW_PBE O 08Apr2002                   :
 energy of atom  4       EATOM= -432.3788
 kinetic energy error for atom=    0.0208 (will be added to EATOM!!)
 
 
 POSCAR: C    N    H    O
  positions in direct lattice
  velocities in cartesian coordinates
 exchange correlation table for  LEXCH =        8
   RHO(1)=    0.500       N(1)  =     2000
   RHO(2)=  100.500       N(2)  =     4000

 VTST: version 4.1, (05/19/21)

 CHAIN: initializing optimizer
 
 OPT: Using LBFGS optimizer
 OPT: LBFGS, Init
 OPT: LBFGS, MEMORY             20
 OPT: LBFGS, IMAGES              5
 OPT: LBFGS, MAXMOVE      0.200000
 OPT: LBFGS, LGLOBAL      T
 OPT: LBFGS, INVCURV      0.010000
 OPT: LBFGS, LLINEOPT      F
 OPT: LBFGS, FDSTEP       0.005000
 OPT: LBFGS, LAUTOSCALE      T
 OPT: LBFGS, DAMPING      2.000000
 
 CHAIN: Read ICHAIN            0
 CHAIN: Running the NEB
 NEB:          SPRING     -5.000000
 NEB:          LCLIMB      T
 NEB:     LTANGENTOLD      F
 NEB:           LDNEB      F
 NEB:        LDNEBORG      F
 NEB:        LNEBCELL      F
 NEB:          EFIRST      0.000000
 NEB:           ELAST      0.000000
 
 POSCAR: C    N    H    O
  positions in direct lattice
  No initial velocities read in
 
 POSCAR: C    N    H    O
  positions in direct lattice
  No initial velocities read in
 
 POSCAR: C    N    H    O
  positions in direct lattice
  No initial velocities read in
 
 POSCAR: C    N    H    O
  positions in direct lattice
  No initial velocities read in
 


--------------------------------------------------------------------------------------------------------


 ion  position               nearest neighbor table
   1  0.001  0.000  0.502-  47 1.43  41 1.43  80 1.43
   2  1.000  0.143  0.502-  42 1.42  41 1.43  74 1.43
   3  0.999  0.286  0.502-  43 1.43  42 1.43  75 1.43
   4  1.000  0.429  0.502-  43 1.42  44 1.43  76 1.43
   5  0.001  0.572  0.502-  45 1.43  44 1.43  77 1.43
   6  0.002  0.715  0.502-  45 1.42  46 1.43  78 1.43
   7  0.002  0.859  0.502-  47 1.42  46 1.43  79 1.43
   8  0.145  0.002  0.501-  48 1.43  47 1.43  54 1.43
   9  0.144  0.145  0.501-  48 1.43  49 1.43  41 1.43
  10  0.142  0.286  0.500-  50 1.42  49 1.42  42 1.43
  11  0.143  0.429  0.501-  50 1.42  51 1.42  43 1.43
  12  0.144  0.571  0.501-  52 1.43  51 1.43  44 1.43
  13  0.145  0.715  0.501-  52 1.43  45 1.43  53 1.43
  14  0.145  0.858  0.502-  46 1.43  54 1.43  53 1.43
  15  0.287  0.002  0.501-  54 1.42  59 1.43  55 1.44
  16  0.288  0.146  0.500-  55 1.43  48 1.43  56 1.45
  17  0.289  0.294  0.499-  85 1.34  49 1.45  56 1.51
  18  0.285  0.428  0.498-  85 1.37  86 1.38  50 1.43
  19  0.289  0.567  0.499-  86 1.34  51 1.45  57 1.51
  20  0.288  0.714  0.500-  58 1.43  52 1.43  57 1.45
  21  0.287  0.858  0.501-  53 1.42  59 1.43  58 1.44
  22  0.430  0.001  0.501-  59 1.43  63 1.43  60 1.43
  23  0.430  0.146  0.500-  55 1.42  60 1.44  61 1.44
  24  0.430  0.856  0.500-  58 1.42  63 1.44  62 1.44
  25  0.572  1.000  0.501-  63 1.42  64 1.43  66 1.44
  26  0.572  0.144  0.501-  60 1.42  64 1.43  65 1.44
  27  0.574  0.292  0.501-  87 1.35  65 1.44  61 1.49
  28  0.574  0.854  0.500-  88 1.35  66 1.44  62 1.49
  29  0.714  0.999  0.502-  66 1.42  73 1.43  67 1.44
  30  0.714  0.143  0.503-  64 1.43  67 1.43  68 1.43
  31  0.714  0.287  0.502-  65 1.42  69 1.43  68 1.44
  32  0.710  0.428  0.501-  87 1.34  69 1.45  70 1.51
  33  0.710  0.853  0.501-  88 1.34  73 1.45  72 1.51
  34  0.857  0.999  0.502-  74 1.43  80 1.43  73 1.43
  35  0.857  0.142  0.503-  67 1.42  75 1.43  74 1.43
  36  0.857  0.286  0.503-  68 1.42  75 1.43  76 1.43
  37  0.857  0.430  0.503-  76 1.43  77 1.43  69 1.43
  38  0.857  0.573  0.502-  78 1.42  77 1.43  70 1.45
  39  0.859  0.716  0.502-  78 1.42  79 1.42  71 1.44
  40  0.857  0.856  0.502-  79 1.42  80 1.43  72 1.45
  41  0.048  0.096  0.502-   2 1.43   1 1.43   9 1.43
  42  0.047  0.238  0.502-   2 1.42   3 1.43  10 1.43
  43  0.047  0.381  0.502-   4 1.42   3 1.43  11 1.43
  44  0.048  0.524  0.502-   4 1.43   5 1.43  12 1.43
  45  0.049  0.668  0.502-   6 1.42   5 1.43  13 1.43
  46  0.050  0.811  0.502-   6 1.43   7 1.43  14 1.43
  47  0.049  0.954  0.502-   7 1.42   1 1.43   8 1.43
  48  0.192  0.098  0.501-   8 1.43   9 1.43  16 1.43
  49  0.192  0.240  0.500-  10 1.42   9 1.43  17 1.45
  50  0.189  0.381  0.500-  10 1.42  11 1.42  18 1.43
  51  0.192  0.524  0.500-  11 1.42  12 1.43  19 1.45
  52  0.192  0.667  0.501-  12 1.43  13 1.43  20 1.43
  53  0.192  0.810  0.501-  21 1.42  14 1.43  13 1.43
  54  0.192  0.954  0.501-  15 1.42  14 1.43   8 1.43
  55  0.335  0.098  0.500-  23 1.42  16 1.43  15 1.44
  56  0.339  0.243  0.499-  81 1.34  16 1.45  17 1.51
  57  0.339  0.668  0.500-  82 1.34  20 1.45  19 1.51
  58  0.335  0.809  0.500-  24 1.42  20 1.43  21 1.44
  59  0.335  0.953  0.501-  22 1.43  15 1.43  21 1.43
  60  0.477  0.097  0.501-  26 1.42  22 1.43  23 1.44
  61  0.475  0.242  0.500-  81 1.35  23 1.44  27 1.49
  62  0.475  0.805  0.500-  82 1.35  24 1.44  28 1.49
  63  0.477  0.952  0.501-  25 1.42  22 1.43  24 1.44
  64  0.619  0.095  0.502-  30 1.43  26 1.43  25 1.43
  65  0.619  0.240  0.501-  31 1.42  26 1.44  27 1.44
  66  0.619  0.951  0.501-  29 1.42  25 1.44  28 1.44
  67  0.761  0.095  0.503-  35 1.42  30 1.43  29 1.44
  68  0.761  0.239  0.503-  36 1.42  30 1.43  31 1.44
  69  0.761  0.383  0.502-  31 1.43  37 1.43  32 1.45
  70  0.760  0.529  0.501-  83 1.34  38 1.45  32 1.51
  71  0.763  0.668  0.500-  84 1.37  83 1.38  39 1.44
  72  0.760  0.803  0.500-  84 1.34  40 1.45  33 1.51
  73  0.761  0.950  0.502-  29 1.43  34 1.43  33 1.45
  74  0.904  0.094  0.503-  34 1.43   2 1.43  35 1.43
  75  0.904  0.238  0.503-   3 1.43  35 1.43  36 1.43
  76  0.904  0.382  0.503-  37 1.43   4 1.43  36 1.43
  77  0.905  0.525  0.502-  37 1.43  38 1.43   5 1.43
  78  0.906  0.668  0.502-  39 1.42  38 1.42   6 1.43
  79  0.906  0.811  0.502-  39 1.42  40 1.42   7 1.43
  80  0.905  0.952  0.502-  34 1.43  40 1.43   1 1.43
  81  0.429  0.287  0.499-  56 1.34  61 1.35
  82  0.429  0.714  0.499-  57 1.34  62 1.35
  83  0.717  0.576  0.499-  70 1.34  71 1.38
  84  0.717  0.713  0.499-  72 1.34  71 1.37
  85  0.332  0.383  0.497-  17 1.34  18 1.37
  86  0.332  0.520  0.498-  19 1.34  18 1.38
  87  0.620  0.382  0.500-  32 1.34  27 1.35
  88  0.620  0.809  0.500-  33 1.34  28 1.35
  89  0.468  0.554  0.519-  91 0.98
  90  0.500  0.485  0.518-  91 0.97
  91  0.519  0.547  0.535-  90 0.97  89 0.98
 

IMPORTANT INFORMATION: All symmetrisations will be switched off!
NOSYMM: (Re-)initialisation of all symmetry stuff for point group C_1.


----------------------------------------------------------------------------------------

                                     Primitive cell                                     

  volume of cell :    3874.8846

  direct lattice vectors                    reciprocal lattice vectors
    17.271038055  0.000000000  0.000000000     0.057900399  0.033428811  0.000000000
    -8.635519028 14.957157706  0.000000000     0.000000000  0.066857622  0.000000000
     0.000000000  0.000000000 15.000000000     0.000000000  0.000000000  0.066666667

  length of vectors
    17.271038055 17.271038055 15.000000000     0.066857622  0.066857622  0.066666667

  position of ions in fractional coordinates (direct lattice)
     0.000522821  0.000430851  0.502137320
     0.999648127  0.142702822  0.502091870
     0.999399245  0.285742176  0.502142011
     0.999705001  0.429006100  0.502329512
     0.000585974  0.572119235  0.502292106
     0.002061859  0.715462798  0.502296643
     0.002046979  0.858609787  0.502259405
     0.144857885  0.002163449  0.501391053
     0.144151923  0.144698383  0.500939380
     0.142457387  0.285837428  0.500477986
     0.142542056  0.428644503  0.500593389
     0.144297846  0.571457584  0.501087453
     0.144881783  0.714679981  0.501483963
     0.144915147  0.858459748  0.501691960
     0.287448491  0.001678943  0.500790877
     0.288020210  0.146430265  0.500034577
     0.288794222  0.293573875  0.498734690
     0.285117778  0.428378306  0.498221742
     0.289093774  0.567289906  0.499115879
     0.288042852  0.713577733  0.500226138
     0.287446904  0.857750078  0.500819594
     0.429983938  0.001000331  0.500774226
     0.430045327  0.145871279  0.500293444
     0.430052597  0.856196653  0.500425294
     0.571843180  0.999707051  0.501430945
     0.571843948  0.144155461  0.501419699
     0.574183486  0.291923286  0.500665108
     0.574230755  0.854286283  0.500480762
     0.713926375  0.998607481  0.502086266
     0.714238479  0.143132201  0.502524975
     0.713930002  0.287354181  0.502188685
     0.709651320  0.428410797  0.501014386
     0.709621048  0.853282955  0.500638675
     0.856538943  0.998925476  0.502337114
     0.856515922  0.142495543  0.502793169
     0.856536403  0.286102476  0.502856112
     0.856565479  0.429683620  0.502536352
     0.857099976  0.572897988  0.501900830
     0.859379202  0.715706832  0.501701457
     0.857081951  0.856238190  0.501802712
     0.048374990  0.096020418  0.501781107
     0.046826656  0.237841120  0.501610393
     0.046896557  0.381047452  0.501774291
     0.048480367  0.524395855  0.502007537
     0.049249693  0.667533784  0.502096282
     0.049533689  0.810772637  0.502208565
     0.049220303  0.953708167  0.501992860
     0.192355387  0.097516528  0.500726174
     0.191858313  0.240208952  0.500124109
     0.189341146  0.380634006  0.499788398
     0.192098536  0.523668747  0.500240508
     0.192413180  0.666832517  0.500895418
     0.192390948  0.810391081  0.501314959
     0.192377645  0.953974129  0.501302399
     0.334994734  0.097916174  0.500327757
     0.339200281  0.243107293  0.499212918
     0.339328301  0.668153308  0.499516473
     0.335006466  0.809081986  0.500436447
     0.334657738  0.953327532  0.500767581
     0.477030372  0.096773150  0.500798789
     0.474848418  0.242302377  0.500046070
     0.474866053  0.804560510  0.500070973
     0.477034724  0.952292377  0.500841936
     0.618905824  0.095463417  0.501865507
     0.618896678  0.240253176  0.501489988
     0.618898005  0.950668891  0.501418384
     0.761470292  0.094807480  0.502664862
     0.761473148  0.238698292  0.502702916
     0.760839169  0.382856302  0.502076710
     0.760016010  0.529434208  0.500649748
     0.763452986  0.667784055  0.499898032
     0.759997254  0.802617379  0.500375184
     0.760837328  0.950021603  0.501871256
     0.904017137  0.094288922  0.502584700
     0.903998291  0.238023949  0.502784794
     0.904050402  0.381791781  0.502739183
     0.904796738  0.525084270  0.502360903
     0.906381576  0.667880502  0.502131999
     0.906361891  0.810538715  0.502081899
     0.904763611  0.951738995  0.502203781
     0.429104143  0.287091577  0.499328947
     0.429162177  0.714092715  0.499462820
     0.716848660  0.575827473  0.499036658
     0.716939022  0.713116914  0.498683973
     0.331819126  0.383265022  0.497277431
     0.332047385  0.520361085  0.497938147
     0.619804977  0.382389318  0.500361982
     0.619838390  0.809494687  0.499945575
     0.467581274  0.553543765  0.518551118
     0.499615226  0.485105092  0.518385285
     0.518684849  0.546662897  0.534887969

  ion indices of the primitive-cell ions
   primitive index   ion index
                 1           1
                 2           2
                 3           3
                 4           4
                 5           5
                 6           6
                 7           7
                 8           8
                 9           9
                10          10
                11          11
                12          12
                13          13
                14          14
                15          15
                16          16
                17          17
                18          18
                19          19
                20          20
                21          21
                22          22
                23          23
                24          24
                25          25
                26          26
                27          27
                28          28
                29          29
                30          30
                31          31
                32          32
                33          33
                34          34
                35          35
                36          36
                37          37
                38          38
                39          39
                40          40
                41          41
                42          42
                43          43
                44          44
                45          45
                46          46
                47          47
                48          48
                49          49
                50          50
                51          51
                52          52
                53          53
                54          54
                55          55
                56          56
                57          57
                58          58
                59          59
                60          60
                61          61
                62          62
                63          63
                64          64
                65          65
                66          66
                67          67
                68          68
                69          69
                70          70
                71          71
                72          72
                73          73
                74          74
                75          75
                76          76
                77          77
                78          78
                79          79
                80          80
                81          81
                82          82
                83          83
                84          84
                85          85
                86          86
                87          87
                88          88
                89          89
                90          90
                91          91

----------------------------------------------------------------------------------------

 
 
 KPOINTS: Automatic mesh                          

Automatic generation of k-mesh.
 Grid dimensions read from file:
 generate k-points for:    2    2    1

 Generating k-lattice:

  Cartesian coordinates                     Fractional coordinates (reciprocal lattice)
     0.028950200  0.016714406  0.000000000     0.500000000  0.000000000  0.000000000
     0.000000000  0.033428811  0.000000000     0.000000000  0.500000000  0.000000000
     0.000000000  0.000000000  0.066666667     0.000000000  0.000000000  1.000000000

  Length of vectors
     0.033428811  0.033428811  0.066666667

  Shift w.r.t. Gamma in fractional coordinates (k-lattice)
     0.000000000  0.000000000  0.000000000

 
 Subroutine IBZKPT returns following result:
 ===========================================
 
 Found      4 irreducible k-points:
 
 Following reciprocal coordinates:
            Coordinates               Weight
  0.000000  0.000000  0.000000      1.000000
  0.500000  0.000000  0.000000      1.000000
  0.000000  0.500000  0.000000      1.000000
  0.500000  0.500000  0.000000      1.000000
 
 Following cartesian coordinates:
            Coordinates               Weight
  0.000000  0.000000  0.000000      1.000000
  0.028950  0.016714  0.000000      1.000000
  0.000000  0.033429  0.000000      1.000000
  0.028950  0.050143  0.000000      1.000000
 


--------------------------------------------------------------------------------------------------------




 Dimension of arrays:
   k-points           NKPTS =      4   k-points in BZ     NKDIM =      4   number of bands    NBANDS=    240
   number of dos      NEDOS =    301   number of ions     NIONS =     91
   non local maximal  LDIM  =      4   non local SUM 2l+1 LMDIM =      8
   total plane-waves  NPLWV = 774144
   max r-space proj   IRMAX =   1673   max aug-charges    IRDMAX=  20933
   dimension x,y,z NGX =    96 NGY =   96 NGZ =   84
   dimension x,y,z NGXF=   192 NGYF=  192 NGZF=  168
   support grid    NGXF=   384 NGYF=  384 NGZF=  336
   ions per type =              80   8   2   1
   NGX,Y,Z   is equivalent  to a cutoff of   9.24,  9.24,  9.31 a.u.
   NGXF,Y,Z  is equivalent  to a cutoff of  18.48, 18.48, 18.62 a.u.

 SYSTEM =  unknown system                          
 POSCAR =  C    N    H    O                        

 Startparameter for this run:
   NWRITE =      2    write-flag & timer
   PREC   = normal    normal or accurate (medium, high low for compatibility)
   ISTART =      0    job   : 0-new  1-cont  2-samecut
   ICHARG =      2    charge: 1-file 2-atom 10-const
   ISPIN  =      2    spin polarized calculation?
   LNONCOLLINEAR =      F non collinear calculations
   LSORBIT =      F    spin-orbit coupling
   INIWAV =      1    electr: 0-lowe 1-rand  2-diag
   LASPH  =      T    aspherical Exc in radial PAW
 Electronic Relaxation 1
   ENCUT  =  520.0 eV  38.22 Ry    6.18 a.u.  32.11 32.11 27.89*2*pi/ulx,y,z
   ENINI  =  520.0     initial cutoff
   ENAUG  =  644.9 eV  augmentation charge cutoff
   NELM   =    200;   NELMIN=  2; NELMDL= -5     # of ELM steps 
   EDIFF  = 0.1E-05   stopping-criterion for ELM
   LREAL  =      T    real-space projection
   NLSPLINE    = F    spline interpolate recip. space projectors
   LCOMPAT=      F    compatible to vasp.4.4
   GGA_COMPAT  = T    GGA compatible to vasp.4.4-vasp.4.6
   LMAXPAW     = -100 max onsite density
   LMAXMIX     =    2 max onsite mixed and CHGCAR
   VOSKOWN=      0    Vosko Wilk Nusair interpolation
   ROPT   =   -0.00050  -0.00050  -0.00050  -0.00050
 Ionic relaxation
   EDIFFG = -.3E-01   stopping-criterion for IOM
   NSW    =    300    number of steps for IOM
   NBLOCK =      1;   KBLOCK =    300    inner block; outer block 
   IBRION =      3    ionic relax: 0-MD 1-quasi-New 2-CG
   NFREE  =      0    steps in history (QN), initial steepest desc. (CG)
   ISIF   =      2    stress and relaxation
   IWAVPR =     11    prediction:  0-non 1-charg 2-wave 3-comb
   ISYM   =      0    0-nonsym 1-usesym 2-fastsym
   LCORR  =      T    Harris-Foulkes like correction to forces

   POTIM  = 0.0000    time-step for ionic-motion
   TEIN   =    0.0    initial temperature
   TEBEG  =    0.0;   TEEND  =   0.0 temperature during run
   SMASS  =  -3.00    Nose mass-parameter (am)
   estimated Nose-frequenzy (Omega)   =  0.10E-29 period in steps = 0.00E+00 mass=  -0.682E-26a.u.
   SCALEE = 1.0000    scale energy and forces
   NPACO  =    256;   APACO  = 10.0  distance and # of slots for P.C.
   PSTRESS=    0.0 pullay stress

  Mass of Ions in am
   POMASS =  12.01 14.00  1.00 16.00
  Ionic Valenz
   ZVAL   =   4.00  5.00  1.00  6.00
  Atomic Wigner-Seitz radii
   RWIGS  =  -1.00 -1.00 -1.00 -1.00
  virtual crystal weights 
   VCA    =   1.00  1.00  1.00  1.00
   NELECT =     368.0000    total number of electrons
   NUPDOWN=      -1.0000    fix difference up-down

 DOS related values:
   EMIN   =  10.00;   EMAX   =-10.00  energy-range for DOS
   EFERMI =   0.00;   METHOD = LEGACY      
   ISMEAR =     0;   SIGMA  =   0.05  broadening in eV -4-tet -1-fermi 0-gaus

 Electronic relaxation 2 (details)
   IALGO  =     38    algorithm
   LDIAG  =      T    sub-space diagonalisation (order eigenvalues)
   LSUBROT=      F    optimize rotation matrix (better conditioning)
   TURBO    =      0    0=normal 1=particle mesh
   IRESTART =      0    0=no restart 2=restart with 2 vectors
   NREBOOT  =      0    no. of reboots
   NMIN     =      0    reboot dimension
   EREF     =   0.00    reference energy to select bands
   IMIX   =      4    mixing-type and parameters
     AMIX     =   0.20;   BMIX     =  0.00
     AMIX_MAG =   0.80;   BMIX_MAG =  0.00
     AMIN     =   0.10
     WC   =   100.;   INIMIX=   1;  MIXPRE=   1;  MAXMIX= -45

 Intra band minimization:
   WEIMIN = 0.0010     energy-eigenvalue tresh-hold
   EBREAK =  0.10E-08  absolut break condition
   DEPER  =   0.30     relativ break condition  

   TIME   =   0.40     timestep for ELM

  volume/ion in A,a.u.               =      42.58       287.35
  Fermi-wavevector in a.u.,A,eV,Ry     =   0.746915  1.411465  7.590446  0.557882
  Thomas-Fermi vector in A             =   1.842848
 
 Write flags
   LWAVE        =      F    write WAVECAR
   LDOWNSAMPLE  =      F    k-point downsampling of WAVECAR
   LCHARG       =      F    write CHGCAR
   LVTOT        =      F    write LOCPOT, total local potential
   LVHAR        =      F    write LOCPOT, Hartree potential only
   LELF         =      F    write electronic localiz. function (ELF)
   LORBIT       =      0    0 simple, 1 ext, 2 COOP (PROOUT), +10 PAW based schemes


 Dipole corrections
   LMONO  =      F    monopole corrections only (constant potential shift)
   LDIPOL =      F    correct potential (dipole corrections)
   IDIPOL =      0    1-x, 2-y, 3-z, 4-all directions 
   EPSILON=  1.0000000 bulk dielectric constant

 Exchange correlation treatment:
   GGA     =    --    GGA type
   LEXCH   =     8    internal setting for exchange type
   LIBXC   =     F    Libxc                    
   VOSKOWN =     0    Vosko Wilk Nusair interpolation
   LHFCALC =     F    Hartree Fock is set to
   LHFONE  =     F    Hartree Fock one center treatment
   AEXX    =    0.0000 exact exchange contribution

 Linear response parameters
   LEPSILON=     F    determine dielectric tensor
   LRPA    =     F    only Hartree local field effects (RPA)
   LNABLA  =     F    use nabla operator in PAW spheres
   LVEL    =     F    velocity operator in full k-point grid
   CSHIFT  =0.1000    complex shift for real part using Kramers Kronig
   OMEGAMAX=  -1.0    maximum frequency
   DEG_THRESHOLD= 0.2000000E-02 threshold for treating states as degnerate
   RTIME   =   -0.100 relaxation time in fs
  (WPLASMAI=    0.000 imaginary part of plasma frequency in eV, 0.658/RTIME)
   DFIELD  = 0.0000000 0.0000000 0.0000000 field for delta impulse in time
 
  Optional k-point grid parameters
   LKPOINTS_OPT  =     F    use optional k-point grid
   KPOINTS_OPT_MODE=     1    mode for optional k-point grid
 
 Orbital magnetization related:
   ORBITALMAG=     F  switch on orbital magnetization
   LCHIMAG   =     F  perturbation theory with respect to B field
   DQ        =  0.001000  dq finite difference perturbation B field
   LLRAUG    =     F  two centre corrections for induced B field
   LBONE     =     F  B-component reconstruction in AE one-centre
   LVGVCALC  =     T  calculate vGv susceptibility
   LVGVAPPL  =     F  apply vGv susceptibility instead of pGv for G=0

 Random number generation:
   RANDOM_GENERATOR = DEFAULT
   PCG_SEED         = not used


--------------------------------------------------------------------------------------------------------


 quickmin algorithm: (dynamic with friction)
   using selective dynamics as specified on POSCAR
 charge density and potential will be updated during run
 spin polarized calculation
 Variant of blocked Davidson
 Davidson routine will perform the subspace rotation
 perform sub-space diagonalisation
    after iterative eigenvector-optimisation
 modified Broyden-mixing scheme, WC =      100.0
 initial mixing is a Kerker type mixing with AMIX =  0.2000 and BMIX =      0.0001
 Hartree-type preconditioning will be used
 using additional bands           56
 real space projection scheme for non local part
 use partial core corrections
 calculate Harris-corrections to forces 
   (improved forces if not selfconsistent)
 use gradient corrections 
 use of overlap-Matrix (Vanderbilt PP)
 Gauss-broadening in eV      SIGMA  =   0.05


--------------------------------------------------------------------------------------------------------


  energy-cutoff  :      520.00
  volume of cell :     3874.88
      direct lattice vectors                 reciprocal lattice vectors
    17.271038055  0.000000000  0.000000000     0.057900399  0.033428811  0.000000000
    -8.635519028 14.957157706  0.000000000     0.000000000  0.066857622  0.000000000
     0.000000000  0.000000000 15.000000000     0.000000000  0.000000000  0.066666667

  length of vectors
    17.271038055 17.271038055 15.000000000     0.066857622  0.066857622  0.066666667


 
 k-points in units of 2pi/SCALE and weight: Automatic mesh                          
   0.00000000  0.00000000  0.00000000       0.250
   0.02895020  0.01671441  0.00000000       0.250
   0.00000000  0.03342881  0.00000000       0.250
   0.02895020  0.05014322  0.00000000       0.250
 
 k-points in reciprocal lattice and weights: Automatic mesh                          
   0.00000000  0.00000000  0.00000000       0.250
   0.50000000  0.00000000  0.00000000       0.250
   0.00000000  0.50000000  0.00000000       0.250
   0.50000000  0.50000000  0.00000000       0.250
 
 position of ions in fractional coordinates (direct lattice) 
   0.00052282  0.00043085  0.50213732
   0.99964813  0.14270282  0.50209187
   0.99939924  0.28574218  0.50214201
   0.99970500  0.42900610  0.50232951
   0.00058597  0.57211923  0.50229211
   0.00206186  0.71546280  0.50229664
   0.00204698  0.85860979  0.50225940
   0.14485789  0.00216345  0.50139105
   0.14415192  0.14469838  0.50093938
   0.14245739  0.28583743  0.50047799
   0.14254206  0.42864450  0.50059339
   0.14429785  0.57145758  0.50108745
   0.14488178  0.71467998  0.50148396
   0.14491515  0.85845975  0.50169196
   0.28744849  0.00167894  0.50079088
   0.28802021  0.14643026  0.50003458
   0.28879422  0.29357387  0.49873469
   0.28511778  0.42837831  0.49822174
   0.28909377  0.56728991  0.49911588
   0.28804285  0.71357773  0.50022614
   0.28744690  0.85775008  0.50081959
   0.42998394  0.00100033  0.50077423
   0.43004533  0.14587128  0.50029344
   0.43005260  0.85619665  0.50042529
   0.57184318  0.99970705  0.50143094
   0.57184395  0.14415546  0.50141970
   0.57418349  0.29192329  0.50066511
   0.57423075  0.85428628  0.50048076
   0.71392638  0.99860748  0.50208627
   0.71423848  0.14313220  0.50252498
   0.71393000  0.28735418  0.50218868
   0.70965132  0.42841080  0.50101439
   0.70962105  0.85328296  0.50063868
   0.85653894  0.99892548  0.50233711
   0.85651592  0.14249554  0.50279317
   0.85653640  0.28610248  0.50285611
   0.85656548  0.42968362  0.50253635
   0.85709998  0.57289799  0.50190083
   0.85937920  0.71570683  0.50170146
   0.85708195  0.85623819  0.50180271
   0.04837499  0.09602042  0.50178111
   0.04682666  0.23784112  0.50161039
   0.04689656  0.38104745  0.50177429
   0.04848037  0.52439586  0.50200754
   0.04924969  0.66753378  0.50209628
   0.04953369  0.81077264  0.50220856
   0.04922030  0.95370817  0.50199286
   0.19235539  0.09751653  0.50072617
   0.19185831  0.24020895  0.50012411
   0.18934115  0.38063401  0.49978840
   0.19209854  0.52366875  0.50024051
   0.19241318  0.66683252  0.50089542
   0.19239095  0.81039108  0.50131496
   0.19237765  0.95397413  0.50130240
   0.33499473  0.09791617  0.50032776
   0.33920028  0.24310729  0.49921292
   0.33932830  0.66815331  0.49951647
   0.33500647  0.80908199  0.50043645
   0.33465774  0.95332753  0.50076758
   0.47703037  0.09677315  0.50079879
   0.47484842  0.24230238  0.50004607
   0.47486605  0.80456051  0.50007097
   0.47703472  0.95229238  0.50084194
   0.61890582  0.09546342  0.50186551
   0.61889668  0.24025318  0.50148999
   0.61889800  0.95066889  0.50141838
   0.76147029  0.09480748  0.50266486
   0.76147315  0.23869829  0.50270292
   0.76083917  0.38285630  0.50207671
   0.76001601  0.52943421  0.50064975
   0.76345299  0.66778405  0.49989803
   0.75999725  0.80261738  0.50037518
   0.76083733  0.95002160  0.50187126
   0.90401714  0.09428892  0.50258470
   0.90399829  0.23802395  0.50278479
   0.90405040  0.38179178  0.50273918
   0.90479674  0.52508427  0.50236090
   0.90638158  0.66788050  0.50213200
   0.90636189  0.81053871  0.50208190
   0.90476361  0.95173899  0.50220378
   0.42910414  0.28709158  0.49932895
   0.42916218  0.71409271  0.49946282
   0.71684866  0.57582747  0.49903666
   0.71693902  0.71311691  0.49868397
   0.33181913  0.38326502  0.49727743
   0.33204739  0.52036109  0.49793815
   0.61980498  0.38238932  0.50036198
   0.61983839  0.80949469  0.49994557
   0.46758127  0.55354377  0.51855112
   0.49961523  0.48510509  0.51838529
   0.51868485  0.54666290  0.53488797
 
 position of ions in cartesian coordinates  (Angst):
   0.00530905  0.00644430  7.53205980
  16.03264791  2.13442862  7.53137805
  14.79313039  4.27389079  7.53213016
  13.56125278  6.41671190  7.53494268
  -4.93042615  8.55727762  7.53438160
  -6.14278217 10.70128991  7.53444965
  -7.37918771 12.84236200  7.53389107
   2.48316354  0.03235904  7.52086579
   1.24010770  2.16427653  7.51409070
  -0.00796760  4.27531549  7.50716979
  -1.23971849  6.41130342  7.50890083
  -2.44265925  8.54738120  7.51631180
  -3.66937378 10.68958119  7.52225945
  -4.91041046 12.84011783  7.52537940
   4.95003528  0.02511221  7.51186316
   3.70990666  2.19018057  7.50051865
   2.45261321  4.39103074  7.48102035
   1.22501098  6.40732188  7.47332614
   0.09410680  8.48504458  7.48673819
  -1.18731503 10.67309469  7.50339207
  -2.44261070 12.82950319  7.51229391
   7.41763058  0.01496211  7.51161339
   6.16765501  2.18181972  7.50440167
   0.03375228 12.80626837  7.50637941
   1.24333607 14.95277602  7.52146417
   8.63148135  2.15615597  7.52129548
   7.39583574  4.36634263  7.50997662
   2.54035576 12.77769467  7.50721143
   3.70675570 14.93632958  7.53129399
  11.09961911  2.14085090  7.53787463
   9.84885974  4.29800180  7.53283027
   8.55686537  6.40780786  7.51521580
   4.88735093 12.76268773  7.50958013
   6.16707672 14.94108588  7.53505671
  13.56239611  2.13132831  7.54189754
  12.32262944  4.27927985  7.54284167
  11.08323390  6.42684567  7.53804528
   9.85573484  8.56892555  7.52851245
   8.66187094 10.70493995  7.52552186
   7.40863380 12.80688965  7.52704068
   0.00630015  1.43619253  7.52671660
  -1.24513657  3.55742715  7.52415590
  -2.48059030  5.69938683  7.52661436
  -3.69112411  7.84347150  7.53011305
  -4.91390737  9.98440807  7.53144423
  -6.14594430 12.12685420  7.53312847
  -7.38567930 14.26476346  7.52989290
   2.48007137  1.45857009  7.51089261
   1.23926324  3.59284318  7.50186164
  -0.01685407  5.69320286  7.49682597
  -1.20441030  7.83259603  7.50360762
  -2.43526954  9.97391912  7.51343128
  -3.67535621 12.12114720  7.51972439
  -4.91550011 14.26874149  7.51953599
   4.94014982  1.46454765  7.50491635
   3.75898331  3.63619411  7.48819377
   0.09070140  9.99367441  7.49274709
  -1.20093346 12.10156685  7.50654671
  -2.45259152 14.25907024  7.51151372
   7.40312333  1.44745126  7.51198183
   6.10871832  3.62415487  7.50069105
   1.25363209 12.03393843  7.50106459
   0.01534594 14.24358727  7.51262904
   9.86476988  1.42786138  7.52798260
   8.61427721  3.59350465  7.52234982
   2.47949169 14.21930453  7.52127577
  12.33267059  1.41805044  7.53997293
  11.09014808  3.57024800  7.54054374
   9.83431936  5.72644208  7.53115065
   8.55432626  7.91883095  7.50974623
   7.41896367  9.98815142  7.49847048
   6.19492384 12.00487472  7.50562776
   4.93652082 14.20962294  7.52806884
  14.79908059  1.41029428  7.53877051
  13.55752855  3.56016175  7.54177191
  12.31691871  5.71051989  7.54108775
  11.09240369  7.85376824  7.53541354
   9.88665591  9.98959400  7.53197999
   8.65438822 12.12335538  7.53122849
   7.40744656 14.23531024  7.53305671
   4.93188920  4.29407400  7.48993421
   1.24551506 10.68079735  7.49194230
   7.40815138  8.61274233  7.48554987
   6.22414646 10.66620214  7.48025959
   2.42116837  5.73255537  7.45916147
   1.24121498  7.78312281  7.46907221
   7.40254512  5.71945734  7.50542973
   3.71484566 12.10773969  7.49918362
   3.29547627  8.27944139  7.77826677
   4.43973932  7.25579337  7.77577928
   4.23750791  8.17652317  8.02331954
 


--------------------------------------------------------------------------------------------------------


 k-point   1 :   0.0000 0.0000 0.0000  plane waves:  104449
 k-point   2 :   0.5000 0.0000 0.0000  plane waves:  104264
 k-point   3 :   0.0000 0.5000 0.0000  plane waves:  104264
 k-point   4 :   0.5000 0.5000 0.0000  plane waves:  104264

 maximum and minimum number of plane-waves per node :    104449   104264

 maximum number of plane-waves:    104449
 maximum index in each direction: 
   IXMAX=   32   IYMAX=   32   IZMAX=   27
   IXMIN=  -32   IYMIN=  -32   IZMIN=  -27


 serial   3D FFT for wavefunctions
 parallel 3D FFT for charge:
    minimum data exchange during FFTs selected (reduces bandwidth)


 total amount of memory used by VASP MPI-rank0   344383. kBytes
=======================================================================

   base      :      30000. kBytes
   nonlr-proj:       8791. kBytes
   fftplans  :      49947. kBytes
   grid      :      93499. kBytes
   one-center:        559. kBytes
   wavefun   :     161587. kBytes
 
     INWAV:  cpu time      0.0000: real time      0.0000
 Broyden mixing: mesh for mixing (old mesh)
   NGX = 65   NGY = 65   NGZ = 55
  (NGX  =192   NGY  =192   NGZ  =168)
  gives a total of 232375 points

 initial charge density was supplied:
 charge density of overlapping atoms calculated
 number of electron     368.0000000 magnetization       0.0000000
 keeping initial charge density in first step


--------------------------------------------------------------------------------------------------------


 Maximum index for non-local projection operator         1579
 Maximum index for augmentation-charges         1497 (set IRDMAX)


--------------------------------------------------------------------------------------------------------


 First call to EWALD:  gamma=   0.113
 Maximum number of real-space cells 3x 3x 3
 Maximum number of reciprocal cells 3x 3x 3

    FEWALD:  cpu time      0.0034: real time      0.0034


--------------------------------------- Ionic step        1  -------------------------------------------




--------------------------------------- Iteration      1(   1)  ---------------------------------------


    POTLOK:  cpu time      0.5380: real time      0.5816
    SETDIJ:  cpu time      1.1855: real time      1.1964
     EDDAV:  cpu time     33.7209: real time     34.7157
       DOS:  cpu time      0.0025: real time      0.0550
    --------------------------------------------
      LOOP:  cpu time     35.4470: real time     36.5488

 eigenvalue-minimisations  :  4060
 total energy-change (2. order) : 0.3500957E+04  (-0.1377179E+05)
 number of electron     368.0000000 magnetization       0.0000000
 augmentation part      368.0000000 magnetization       0.0000000

 Free energy of the ion-electron system (eV)
  ---------------------------------------------------
  alpha Z        PSCENC =       175.06488379
  Ewald energy   TEWEN  =     36476.00252330
  -Hartree energ DENC   =    -47299.75101378
  -exchange      EXHF   =         0.00000000
  -V(xc)+E(xc)   XCENC  =      1240.51197204
  PAW double counting   =     10672.04303313   -10728.93979680
  entropy T*S    EENTRO =        -0.04092108
  eigenvalues    EBANDS =     -1379.46548613
  atomic energy  EATOM  =     14345.53195627
  Solvation  Ediel_sol  =         0.00000000
  ---------------------------------------------------
  free energy    TOTEN  =      3500.95715073 eV

  energy without entropy =     3500.99807182  energy(sigma->0) =     3500.97761128


--------------------------------------------------------------------------------------------------------




--------------------------------------- Iteration      1(   2)  ---------------------------------------


     EDDAV:  cpu time     46.1548: real time     47.5678
       DOS:  cpu time      0.0009: real time      0.0295
    --------------------------------------------
      LOOP:  cpu time     46.1557: real time     47.5973

 eigenvalue-minimisations  :  5760
 total energy-change (2. order) :-0.3667532E+04  (-0.3492570E+04)
 number of electron     368.0000000 magnetization       0.0000000
 augmentation part      368.0000000 magnetization       0.0000000

 Free energy of the ion-electron system (eV)
  ---------------------------------------------------
  alpha Z        PSCENC =       175.06488379
  Ewald energy   TEWEN  =     36476.00252330
  -Hartree energ DENC   =    -47299.75101378
  -exchange      EXHF   =         0.00000000
  -V(xc)+E(xc)   XCENC  =      1240.51197204
  PAW double counting   =     10672.04303313   -10728.93979680
  entropy T*S    EENTRO =        -0.00000202
  eigenvalues    EBANDS =     -5047.03871993
  atomic energy  EATOM  =     14345.53195627
  Solvation  Ediel_sol  =         0.00000000
  ---------------------------------------------------
  free energy    TOTEN  =      -166.57516400 eV

  energy without entropy =     -166.57516198  energy(sigma->0) =     -166.57516299


--------------------------------------------------------------------------------------------------------




--------------------------------------- Iteration      1(   3)  ---------------------------------------


     EDDAV:  cpu time     38.0482: real time     39.3382
       DOS:  cpu time      0.0008: real time      0.0323
    --------------------------------------------
      LOOP:  cpu time     38.0489: real time     39.3705

 eigenvalue-minimisations  :  4640
 total energy-change (2. order) :-0.6751216E+03  (-0.6722522E+03)
 number of electron     368.0000000 magnetization       0.0000000
 augmentation part      368.0000000 magnetization       0.0000000

 Free energy of the ion-electron system (eV)
  ---------------------------------------------------
  alpha Z        PSCENC =       175.06488379
  Ewald energy   TEWEN  =     36476.00252330
  -Hartree energ DENC   =    -47299.75101378
  -exchange      EXHF   =         0.00000000
  -V(xc)+E(xc)   XCENC  =      1240.51197204
  PAW double counting   =     10672.04303313   -10728.93979680
  entropy T*S    EENTRO =        -0.00000028
  eigenvalues    EBANDS =     -5722.16032467
  atomic energy  EATOM  =     14345.53195627
  Solvation  Ediel_sol  =         0.00000000
  ---------------------------------------------------
  free energy    TOTEN  =      -841.69676700 eV

  energy without entropy =     -841.69676672  energy(sigma->0) =     -841.69676686


--------------------------------------------------------------------------------------------------------




--------------------------------------- Iteration      1(   4)  ---------------------------------------


     EDDAV:  cpu time     38.6454: real time     39.8449
       DOS:  cpu time      0.0011: real time      0.0227
    --------------------------------------------
      LOOP:  cpu time     38.6466: real time     39.8677

 eigenvalue-minimisations  :  4700
 total energy-change (2. order) :-0.2395074E+02  (-0.2383080E+02)
 number of electron     368.0000000 magnetization       0.0000000
 augmentation part      368.0000000 magnetization       0.0000000

 Free energy of the ion-electron system (eV)
  ---------------------------------------------------
  alpha Z        PSCENC =       175.06488379
  Ewald energy   TEWEN  =     36476.00252330
  -Hartree energ DENC   =    -47299.75101378
  -exchange      EXHF   =         0.00000000
  -V(xc)+E(xc)   XCENC  =      1240.51197204
  PAW double counting   =     10672.04303313   -10728.93979680
  entropy T*S    EENTRO =        -0.00000038
  eigenvalues    EBANDS =     -5746.11105977
  atomic energy  EATOM  =     14345.53195627
  Solvation  Ediel_sol  =         0.00000000
  ---------------------------------------------------
  free energy    TOTEN  =      -865.64750220 eV

  energy without entropy =     -865.64750182  energy(sigma->0) =     -865.64750201


--------------------------------------------------------------------------------------------------------




--------------------------------------- Iteration      1(   5)  ---------------------------------------


     EDDAV:  cpu time     43.2517: real time     44.6153
       DOS:  cpu time      0.0009: real time      0.0211
    CHARGE:  cpu time      2.7686: real time      2.8634
    MIXING:  cpu time      0.0093: real time      0.0101
    --------------------------------------------
      LOOP:  cpu time     46.0305: real time     47.5099

 eigenvalue-minimisations  :  5500
 total energy-change (2. order) :-0.7343114E+00  (-0.7331542E+00)
 number of electron     368.0000000 magnetization      -0.0000000
 augmentation part       11.1386154 magnetization       0.0013509

 Broyden mixing:
  rms(total) = 0.42790E+01    rms(broyden)= 0.42782E+01
  rms(prec ) = 0.47807E+01
  weight for this iteration     100.00

 Free energy of the ion-electron system (eV)
  ---------------------------------------------------
  alpha Z        PSCENC =       175.06488379
  Ewald energy   TEWEN  =     36476.00252330
  -Hartree energ DENC   =    -47299.75101378
  -exchange      EXHF   =         0.00000000
  -V(xc)+E(xc)   XCENC  =      1240.51197204
  PAW double counting   =     10672.04303313   -10728.93979680
  entropy T*S    EENTRO =        -0.00000039
  eigenvalues    EBANDS =     -5746.84537118
  atomic energy  EATOM  =     14345.53195627
  Solvation  Ediel_sol  =         0.00000000
  ---------------------------------------------------
  free energy    TOTEN  =      -866.38181362 eV

  energy without entropy =     -866.38181324  energy(sigma->0) =     -866.38181343


--------------------------------------------------------------------------------------------------------




--------------------------------------- Iteration      1(   6)  ---------------------------------------


    POTLOK:  cpu time      0.6372: real time      0.7013
    SETDIJ:  cpu time      1.4059: real time      1.4453
     EDDAV:  cpu time     37.0918: real time     38.0715
       DOS:  cpu time      0.0008: real time      0.0693
    CHARGE:  cpu time      2.7541: real time      2.8504
    MIXING:  cpu time      0.0152: real time      0.0153
    --------------------------------------------
      LOOP:  cpu time     41.9050: real time     43.1532

 eigenvalue-minimisations  :  4440
 total energy-change (2. order) : 0.2879990E+02  (-0.2023223E+01)
 number of electron     368.0000000 magnetization      -0.0000000
 augmentation part       10.6788653 magnetization      -0.0000345

 Broyden mixing:
  rms(total) = 0.32334E+01    rms(broyden)= 0.32333E+01
  rms(prec ) = 0.35510E+01
  weight for this iteration     100.00

 eigenvalues of (default mixing * dielectric matrix)
  average eigenvalue GAMMA=   3.1327
  3.1327

 Free energy of the ion-electron system (eV)
  ---------------------------------------------------
  alpha Z        PSCENC =       175.06488379
  Ewald energy   TEWEN  =     36476.00252330
  -Hartree energ DENC   =    -47722.67558475
  -exchange      EXHF   =         0.00000000
  -V(xc)+E(xc)   XCENC  =      1255.87220483
  PAW double counting   =     14353.48439329   -14413.83860721
  entropy T*S    EENTRO =        -0.00000007
  eigenvalues    EBANDS =     -5307.02368445
  atomic energy  EATOM  =     14345.53195627
  Solvation  Ediel_sol  =         0.00000000
  ---------------------------------------------------
  free energy    TOTEN  =      -837.58191499 eV

  energy without entropy =     -837.58191493  energy(sigma->0) =     -837.58191496


--------------------------------------------------------------------------------------------------------




--------------------------------------- Iteration      1(   7)  ---------------------------------------


    POTLOK:  cpu time      0.6291: real time      0.7513
    SETDIJ:  cpu time      1.4425: real time      1.4855
     EDDAV:  cpu time     36.8885: real time     37.9613
       DOS:  cpu time      0.0009: real time      0.0333
    CHARGE:  cpu time      2.8358: real time      2.9333
    MIXING:  cpu time      0.0172: real time      0.0181
    --------------------------------------------
      LOOP:  cpu time     41.8141: real time     43.1827

 eigenvalue-minimisations  :  4460
 total energy-change (2. order) : 0.2355785E+02  (-0.8005872E+01)
 number of electron     368.0000000 magnetization      -0.0005446
 augmentation part        9.6915659 magnetization       0.0017393

 Broyden mixing:
  rms(total) = 0.19980E+01    rms(broyden)= 0.19964E+01
  rms(prec ) = 0.23043E+01
  weight for this iteration     100.00

 eigenvalues of (default mixing * dielectric matrix)
  average eigenvalue GAMMA=   1.7491
  3.0925  0.4056

 Free energy of the ion-electron system (eV)
  ---------------------------------------------------
  alpha Z        PSCENC =       175.06488379
  Ewald energy   TEWEN  =     36476.00252330
  -Hartree energ DENC   =    -48645.74468493
  -exchange      EXHF   =         0.00000000
  -V(xc)+E(xc)   XCENC  =      1290.25247273
  PAW double counting   =     26168.10440070   -26235.49978569
  entropy T*S    EENTRO =        -0.01102303
  eigenvalues    EBANDS =     -4387.72480849
  atomic energy  EATOM  =     14345.53195627
  Solvation  Ediel_sol  =         0.00000000
  ---------------------------------------------------
  free energy    TOTEN  =      -814.02406536 eV

  energy without entropy =     -814.01304233  energy(sigma->0) =     -814.01855385


--------------------------------------------------------------------------------------------------------




--------------------------------------- Iteration      1(   8)  ---------------------------------------


    POTLOK:  cpu time      0.6422: real time      0.6929
    SETDIJ:  cpu time      1.4042: real time      1.4601
     EDDAV:  cpu time     36.7791: real time     37.9307
       DOS:  cpu time      0.0008: real time      0.0357
    CHARGE:  cpu time      2.7905: real time      2.8484
    MIXING:  cpu time      0.0278: real time      0.0280
    --------------------------------------------
      LOOP:  cpu time     41.6447: real time     42.9959

 eigenvalue-minimisations  :  4540
 total energy-change (2. order) : 0.8122198E+00  (-0.2929386E+01)
 number of electron     368.0000000 magnetization      -0.0005473
 augmentation part        9.9094518 magnetization      -0.0005957

 Broyden mixing:
  rms(total) = 0.13133E+01    rms(broyden)= 0.13120E+01
  rms(prec ) = 0.13508E+01
  weight for this iteration     100.00

 eigenvalues of (default mixing * dielectric matrix)
  average eigenvalue GAMMA=   2.0369
  4.0803  1.7920  0.2383

 Free energy of the ion-electron system (eV)
  ---------------------------------------------------
  alpha Z        PSCENC =       175.06488379
  Ewald energy   TEWEN  =     36476.00252330
  -Hartree energ DENC   =    -48644.63453452
  -exchange      EXHF   =         0.00000000
  -V(xc)+E(xc)   XCENC  =      1289.89176726
  PAW double counting   =     26607.48117697   -26674.75395377
  entropy T*S    EENTRO =        -0.00000014
  eigenvalues    EBANDS =     -4387.79566476
  atomic energy  EATOM  =     14345.53195627
  Solvation  Ediel_sol  =         0.00000000
  ---------------------------------------------------
  free energy    TOTEN  =      -813.21184560 eV

  energy without entropy =     -813.21184546  energy(sigma->0) =     -813.21184553


--------------------------------------------------------------------------------------------------------




--------------------------------------- Iteration      1(   9)  ---------------------------------------


    POTLOK:  cpu time      0.6272: real time      0.6958
    SETDIJ:  cpu time      1.4318: real time      1.4632
     EDDAV:  cpu time     36.0860: real time     37.0928
       DOS:  cpu time      0.0008: real time      0.0418
    CHARGE:  cpu time      2.6391: real time      2.7318
    MIXING:  cpu time      0.0192: real time      0.0195
    --------------------------------------------
      LOOP:  cpu time     40.8040: real time     42.0448

 eigenvalue-minimisations  :  4400
 total energy-change (2. order) :-0.2643004E+00  (-0.6413865E+00)
 number of electron     368.0000000 magnetization      -0.0005015
 augmentation part        9.9456277 magnetization      -0.0005143

 Broyden mixing:
  rms(total) = 0.66936E+00    rms(broyden)= 0.66914E+00
  rms(prec ) = 0.72885E+00
  weight for this iteration     100.00

 eigenvalues of (default mixing * dielectric matrix)
  average eigenvalue GAMMA=   2.0107
  4.4354  1.9740  1.3871  0.2463

 Free energy of the ion-electron system (eV)
  ---------------------------------------------------
  alpha Z        PSCENC =       175.06488379
  Ewald energy   TEWEN  =     36476.00252330
  -Hartree energ DENC   =    -48781.67255744
  -exchange      EXHF   =         0.00000000
  -V(xc)+E(xc)   XCENC  =      1295.12254640
  PAW double counting   =     32904.55886883   -32972.70840779
  entropy T*S    EENTRO =        -0.00000018
  eigenvalues    EBANDS =     -4255.37595922
  atomic energy  EATOM  =     14345.53195627
  Solvation  Ediel_sol  =         0.00000000
  ---------------------------------------------------
  free energy    TOTEN  =      -813.47614603 eV

  energy without entropy =     -813.47614585  energy(sigma->0) =     -813.47614594


--------------------------------------------------------------------------------------------------------




--------------------------------------- Iteration      1(  10)  ---------------------------------------


    POTLOK:  cpu time      0.6321: real time      0.6736
    SETDIJ:  cpu time      1.4388: real time      1.4696
     EDDAV:  cpu time     34.9474: real time     35.9167
       DOS:  cpu time      0.0008: real time      0.0451
    CHARGE:  cpu time      2.7887: real time      2.8468
    MIXING:  cpu time      0.0213: real time      0.0240
    --------------------------------------------
      LOOP:  cpu time     39.8291: real time     40.9759

 eigenvalue-minimisations  :  4160
 total energy-change (2. order) : 0.1483928E+00  (-0.6649676E-01)
 number of electron     368.0000000 magnetization      -0.0004038
 augmentation part        9.9163919 magnetization      -0.0004191

 Broyden mixing:
  rms(total) = 0.42074E+00    rms(broyden)= 0.42073E+00
  rms(prec ) = 0.48620E+00
  weight for this iteration     100.00

 eigenvalues of (default mixing * dielectric matrix)
  average eigenvalue GAMMA=   2.1990
  4.8153  3.2536  1.4731  1.2083  0.2448

 Free energy of the ion-electron system (eV)
  ---------------------------------------------------
  alpha Z        PSCENC =       175.06488379
  Ewald energy   TEWEN  =     36476.00252330
  -Hartree energ DENC   =    -48765.10412452
  -exchange      EXHF   =         0.00000000
  -V(xc)+E(xc)   XCENC  =      1295.00891145
  PAW double counting   =     35300.38263586   -35368.44182561
  entropy T*S    EENTRO =        -0.00000011
  eigenvalues    EBANDS =     -4271.77271369
  atomic energy  EATOM  =     14345.53195627
  Solvation  Ediel_sol  =         0.00000000
  ---------------------------------------------------
  free energy    TOTEN  =      -813.32775325 eV

  energy without entropy =     -813.32775314  energy(sigma->0) =     -813.32775319


--------------------------------------------------------------------------------------------------------




--------------------------------------- Iteration      1(  11)  ---------------------------------------


    POTLOK:  cpu time      0.6169: real time      0.6835
    SETDIJ:  cpu time      1.4466: real time      1.4873
     EDDAV:  cpu time     36.5032: real time     37.3629
       DOS:  cpu time      0.0007: real time      0.0350
    CHARGE:  cpu time      2.8043: real time      2.8824
    MIXING:  cpu time      0.0321: real time      0.0333
    --------------------------------------------
      LOOP:  cpu time     41.4039: real time     42.4846

 eigenvalue-minimisations  :  4200
 total energy-change (2. order) : 0.2763852E+00  (-0.6849069E-01)
 number of electron     368.0000000 magnetization      -0.0003472
 augmentation part        9.9293690 magnetization      -0.0003509

 Broyden mixing:
  rms(total) = 0.21810E+00    rms(broyden)= 0.21808E+00
  rms(prec ) = 0.27825E+00
  weight for this iteration     100.00

 eigenvalues of (default mixing * dielectric matrix)
  average eigenvalue GAMMA=   2.0223
  4.7780  3.1706  0.2449  1.4730  1.4730  0.9941

 Free energy of the ion-electron system (eV)
  ---------------------------------------------------
  alpha Z        PSCENC =       175.06488379
  Ewald energy   TEWEN  =     36476.00252330
  -Hartree energ DENC   =    -48693.49095428
  -exchange      EXHF   =         0.00000000
  -V(xc)+E(xc)   XCENC  =      1292.83956553
  PAW double counting   =     37061.43980866   -37128.95150249
  entropy T*S    EENTRO =        -0.00000011
  eigenvalues    EBANDS =     -4341.48764867
  atomic energy  EATOM  =     14345.53195627
  Solvation  Ediel_sol  =         0.00000000
  ---------------------------------------------------
  free energy    TOTEN  =      -813.05136800 eV

  energy without entropy =     -813.05136790  energy(sigma->0) =     -813.05136795


--------------------------------------------------------------------------------------------------------




--------------------------------------- Iteration      1(  12)  ---------------------------------------


    POTLOK:  cpu time      0.6353: real time      0.6732
    SETDIJ:  cpu time      1.4425: real time      1.4762
     EDDAV:  cpu time     36.8889: real time     37.8050
       DOS:  cpu time      0.0046: real time      0.0340
    CHARGE:  cpu time      2.8254: real time      2.8955
    MIXING:  cpu time      0.0442: real time      0.0452
    --------------------------------------------
      LOOP:  cpu time     41.8409: real time     42.9290

 eigenvalue-minimisations  :  4340
 total energy-change (2. order) : 0.5273667E-01  (-0.4733653E-02)
 number of electron     368.0000000 magnetization      -0.0003083
 augmentation part        9.9309003 magnetization      -0.0002939

 Broyden mixing:
  rms(total) = 0.19756E+00    rms(broyden)= 0.19756E+00
  rms(prec ) = 0.25362E+00
  weight for this iteration     100.00

 eigenvalues of (default mixing * dielectric matrix)
  average eigenvalue GAMMA=   1.9243
  4.7234  3.1503  1.6844  1.6844  0.2449  0.9913  0.9913

 Free energy of the ion-electron system (eV)
  ---------------------------------------------------
  alpha Z        PSCENC =       175.06488379
  Ewald energy   TEWEN  =     36476.00252330
  -Hartree energ DENC   =    -48695.42250752
  -exchange      EXHF   =         0.00000000
  -V(xc)+E(xc)   XCENC  =      1292.92987084
  PAW double counting   =     37076.31731180   -37143.82661596
  entropy T*S    EENTRO =        -0.00000011
  eigenvalues    EBANDS =     -4339.59605375
  atomic energy  EATOM  =     14345.53195627
  Solvation  Ediel_sol  =         0.00000000
  ---------------------------------------------------
  free energy    TOTEN  =      -812.99863134 eV

  energy without entropy =     -812.99863123  energy(sigma->0) =     -812.99863129


--------------------------------------------------------------------------------------------------------




--------------------------------------- Iteration      1(  13)  ---------------------------------------


    POTLOK:  cpu time      0.6589: real time      0.7564
    SETDIJ:  cpu time      1.4156: real time      1.4536
     EDDAV:  cpu time     40.9071: real time     41.9427
       DOS:  cpu time      0.0008: real time      0.0183
    CHARGE:  cpu time      2.8056: real time      2.8752
    MIXING:  cpu time      0.0353: real time      0.0367
    --------------------------------------------
      LOOP:  cpu time     45.8234: real time     47.0829

 eigenvalue-minimisations  :  4860
 total energy-change (2. order) : 0.5959379E-01  (-0.2184936E-02)
 number of electron     368.0000000 magnetization      -0.0002996
 augmentation part        9.9273762 magnetization      -0.0002803

 Broyden mixing:
  rms(total) = 0.17595E+00    rms(broyden)= 0.17595E+00
  rms(prec ) = 0.22637E+00
  weight for this iteration     100.00

 eigenvalues of (default mixing * dielectric matrix)
  average eigenvalue GAMMA=   1.7356
  4.7192  3.1194  1.7057  1.7057  0.2449  0.9334  0.9334  0.5227

[...]
   -.283E+02 -.175E+02 0.233E+01   0.287E+02 0.180E+02 -.233E+01   -.401E+00 -.570E+00 0.277E-02   -.124E-02 0.339E-03 -.132E-03
   -.179E+02 0.287E+01 0.862E+00   0.179E+02 -.286E+01 -.869E+00   -.571E-01 -.556E-02 0.880E-02   -.729E-03 -.357E-03 -.694E-04
   -.351E+01 0.312E+01 -.108E+00   0.351E+01 -.313E+01 0.103E+00   -.266E-02 0.106E-01 0.543E-02   -.130E-03 -.312E-03 -.447E-04
   0.867E+00 -.463E+01 -.313E+00   -.872E+00 0.465E+01 0.308E+00   0.961E-02 -.110E-01 0.708E-02   -.300E-03 0.121E-04 -.454E-04
   0.499E+00 -.142E+02 0.185E+01   -.536E+00 0.143E+02 -.185E+01   0.384E-01 -.118E+00 -.227E-03   -.209E-03 -.690E-03 -.740E-04
   0.216E+02 -.604E+02 0.574E+01   -.240E+02 0.597E+02 -.577E+01   0.240E+01 0.769E+00 0.303E-01   -.871E-03 -.209E-02 -.273E-03
   -.414E+02 0.492E+02 0.486E+01   0.395E+02 -.507E+02 -.487E+01   0.185E+01 0.157E+01 0.619E-02   -.224E-02 0.143E-03 -.250E-03
   -.121E+02 0.763E+01 0.172E+01   0.122E+02 -.773E+01 -.172E+01   -.106E+00 0.934E-01 0.235E-02   -.726E-03 0.203E-03 -.752E-04
   -.383E+01 -.212E+01 0.892E+00   0.386E+01 0.213E+01 -.893E+00   -.269E-01 -.659E-02 0.219E-02   -.428E-03 -.336E-03 -.471E-04
   0.752E+01 -.115E+02 0.109E+01   -.750E+01 0.115E+02 -.109E+01   -.180E-01 -.625E-02 -.827E-03   0.249E-04 -.238E-03 -.564E-04
   -.146E+02 -.577E+02 0.300E+01   0.170E+02 0.570E+02 -.297E+01   -.241E+01 0.684E+00 -.327E-01   0.599E-03 -.159E-02 -.203E-03
   -.576E+02 0.161E+02 0.302E+01   0.582E+02 -.137E+02 -.300E+01   -.657E+00 -.243E+01 -.242E-01   -.111E-02 0.129E-02 -.176E-03
   -.628E+01 0.124E+02 0.944E+00   0.630E+01 -.124E+02 -.947E+00   -.225E-01 0.995E-02 0.323E-02   -.164E-03 0.128E-03 -.599E-04
   0.461E+01 0.270E+01 -.129E+01   -.474E+01 -.279E+01 0.130E+01   0.131E+00 0.861E-01 -.412E-02   0.221E-03 0.832E-04 -.463E-04
   0.249E+02 -.105E+02 -.347E+00   -.257E+02 0.106E+02 0.348E+00   0.733E+00 -.105E+00 -.160E-02   0.501E-03 -.351E-03 -.862E-04
   0.343E+01 0.270E+02 -.396E+00   -.370E+01 -.277E+02 0.400E+00   0.267E+00 0.731E+00 -.324E-02   -.171E-03 0.598E-03 -.863E-04
   0.371E+01 0.119E+02 -.321E+01   -.375E+01 -.120E+02 0.322E+01   0.283E-01 0.311E-01 -.105E-01   0.252E-03 0.481E-03 -.433E-04
   0.121E+02 -.274E+01 -.312E+01   -.121E+02 0.271E+01 0.313E+01   0.283E-01 0.245E-01 -.949E-02   0.502E-03 -.139E-05 -.484E-04
   0.262E+02 -.173E+02 -.159E+01   -.267E+02 0.179E+02 0.159E+01   0.528E+00 -.613E+00 -.246E-02   0.118E-02 0.338E-03 -.927E-04
   0.466E+02 0.433E+02 0.298E+01   -.451E+02 -.446E+02 -.292E+01   -.153E+01 0.137E+01 -.621E-01   0.276E-02 -.423E-04 -.234E-03
   0.660E+02 0.384E+02 0.610E+01   -.638E+02 -.371E+02 -.601E+01   -.216E+01 -.130E+01 -.930E-01   0.299E-02 0.150E-02 -.431E-03
   0.613E+02 0.187E+02 0.347E+01   -.618E+02 -.168E+02 -.340E+01   0.469E+00 -.200E+01 -.651E-01   0.137E-02 0.247E-02 -.232E-03
   -.185E+01 0.315E+02 -.137E+01   0.210E+01 -.323E+02 0.138E+01   -.261E+00 0.808E+00 -.109E-01   0.827E-03 0.885E-03 -.936E-04
   0.110E+01 0.719E+01 -.304E+01   -.108E+01 -.737E+01 0.305E+01   -.232E-01 0.180E+00 -.726E-02   0.306E-03 -.403E-04 -.559E-04
   0.930E+00 0.514E+00 -.336E+01   -.941E+00 -.517E+00 0.338E+01   0.445E-02 0.417E-02 -.819E-02   0.368E-03 0.274E-03 -.545E-04
   0.669E+01 -.278E+01 -.322E+01   -.684E+01 0.289E+01 0.322E+01   0.143E+00 -.110E+00 -.298E-02   0.180E-03 0.385E-03 -.558E-04
   0.181E+02 0.138E+01 -.225E+01   -.182E+02 -.134E+01 0.226E+01   0.131E+00 -.441E-01 0.417E-03   0.304E-03 -.382E-03 -.108E-03
   0.173E+02 0.944E+01 -.236E+01   -.174E+02 -.959E+01 0.236E+01   0.120E+00 0.152E+00 0.629E-02   0.132E-02 0.170E-03 -.887E-04
   0.168E+02 0.103E+02 -.240E+01   -.170E+02 -.103E+02 0.239E+01   0.204E+00 0.134E-01 0.123E-01   0.874E-03 0.101E-02 -.899E-04
   0.104E+02 0.150E+02 -.213E+01   -.105E+02 -.152E+02 0.213E+01   0.331E-01 0.149E+00 0.650E-04   -.901E-04 0.386E-03 -.107E-03
   -.370E+00 -.226E+03 0.831E+01   0.804E+00 0.260E+03 -.850E+01   -.434E+00 -.344E+02 0.183E+00   0.370E-03 -.399E-02 -.534E-03
   -.196E+03 0.113E+03 0.810E+01   0.227E+03 -.129E+03 -.830E+01   -.304E+02 0.170E+02 0.200E+00   -.327E-02 0.229E-02 -.416E-03
   0.216E+03 0.935E+02 0.171E+02   -.248E+03 -.109E+03 -.179E+02   0.316E+02 0.157E+02 0.809E+00   0.660E-02 0.116E-02 -.647E-03
   0.190E+03 0.140E+03 0.188E+02   -.220E+03 -.160E+03 -.197E+02   0.298E+02 0.196E+02 0.962E+00   0.458E-02 0.512E-02 -.815E-03
   -.184E+03 -.129E+03 0.226E+02   0.213E+03 0.147E+03 -.233E+02   -.285E+02 -.186E+02 0.746E+00   -.442E-02 -.546E-02 -.123E-02
   -.201E+03 -.951E+02 0.194E+02   0.230E+03 0.110E+03 -.199E+02   -.294E+02 -.148E+02 0.528E+00   -.708E-02 -.979E-03 -.121E-02
   0.196E+03 -.117E+03 0.687E+01   -.226E+03 0.134E+03 -.724E+01   0.303E+02 -.171E+02 0.367E+00   0.332E-02 -.215E-02 -.417E-03
   -.349E+01 0.229E+03 0.845E+01   0.314E+01 -.264E+03 -.888E+01   0.359E+00 0.353E+02 0.434E+00   -.289E-03 0.408E-02 -.335E-03
   0.526E+02 -.195E+02 0.923E+01   -.604E+02 0.206E+02 -.112E+02   0.785E+01 -.110E+01 0.198E+01   -.522E-02 0.662E-03 -.131E-02
   -.254E+02 0.638E+02 0.111E+02   0.273E+02 -.716E+02 -.131E+02   -.194E+01 0.781E+01 0.204E+01   0.116E-02 -.501E-02 -.131E-02
   -.540E+02 -.498E+02 -.128E+03   0.828E+02 0.826E+02 0.147E+03   -.287E+02 -.328E+02 -.182E+02   0.712E-03 0.134E-02 0.298E-02
 -----------------------------------------------------------------------------------------------
   0.180E+02 0.225E+02 0.107E+02   -.441E-12 0.568E-12 0.000E+00   -.179E+02 -.224E+02 -.105E+02   -.406E-02 -.306E-02 -.140E-01
 
 
 POSITION                                       TOTAL-FORCE (eV/Angst)
 -----------------------------------------------------------------------------------
      0.00531      0.00644      7.53206         0.000151      0.001242      0.000093
     16.03265      2.13443      7.53138         0.001482      0.001133      0.000363
     14.79313      4.27389      7.53213         0.005011     -0.006601      0.000575
     13.56125      6.41671      7.53494         0.002353     -0.004479      0.000599
     -4.93043      8.55728      7.53438        -0.002143      0.001173      0.000011
     -6.14278     10.70129      7.53445        -0.004373      0.003522     -0.001252
     -7.37919     12.84236      7.53389         0.000163      0.001125     -0.000426
      2.48316      0.03236      7.52087         0.001194     -0.005303      0.000966
      1.24011      2.16428      7.51409        -0.002552      0.001653      0.000616
     -0.00797      4.27532      7.50717         0.001696     -0.003896      0.000265
     -1.23972      6.41130      7.50890         0.008992     -0.006306      0.000699
     -2.44266      8.54738      7.51631         0.005236      0.001511     -0.001524
     -3.66937     10.68958      7.52226         0.000548      0.003880     -0.000776
     -4.91041     12.84012      7.52538        -0.000463      0.001468      0.000201
      4.95004      0.02511      7.51186        -0.001852     -0.001160     -0.000733
      3.70991      2.19018      7.50052        -0.000352     -0.001104     -0.000075
      2.45261      4.39103      7.48102        -0.001665      0.002839      0.000249
      1.22501      6.40732      7.47333         0.001098     -0.002578      0.000102
      0.09411      8.48504      7.48674         0.006826     -0.002913      0.000122
     -1.18732     10.67309      7.50339         0.001096      0.007386     -0.001146
     -2.44261     12.82950      7.51229         0.001852      0.001422     -0.001265
      7.41763      0.01496      7.51161        -0.001236     -0.000879     -0.002187
      6.16766      2.18182      7.50440        -0.000114     -0.000905     -0.002649
      0.03375     12.80627      7.50638         0.000194      0.000185     -0.001763
      1.24334     14.95278      7.52146        -0.001216     -0.001207     -0.002115
      8.63148      2.15616      7.52130        -0.001248     -0.000046     -0.002646
      7.39584      4.36634      7.50998        -0.000236      0.000269     -0.002954
      2.54036     12.77769      7.50721        -0.003317     -0.002659     -0.001927
      3.70676     14.93633      7.53129         0.005528      0.004216     -0.002695
     11.09962      2.14085      7.53787         0.001841     -0.000017     -0.001170
      9.84886      4.29800      7.53283         0.000373      0.000089     -0.001063
      8.55687      6.40781      7.51522        -0.001118     -0.001085     -0.000472
      4.88735     12.76269      7.50958         0.001486     -0.001378     -0.002634
      6.16708     14.94109      7.53506         0.003389      0.002749     -0.001239
     13.56240      2.13133      7.54190         0.016557      0.001856     -0.000155
     12.32263      4.27928      7.54284         0.004292     -0.001706      0.000265
     11.08323      6.42685      7.53805        -0.000917     -0.001262      0.000102
      9.85573      8.56893      7.52851        -0.000848      0.001869     -0.000672
      8.66187     10.70494      7.52552         0.000195      0.001288     -0.000805
      7.40863     12.80689      7.52704         0.001971      0.001528     -0.002516
      0.00630      1.43619      7.52672         0.001455     -0.001619      0.000398
     -1.24514      3.55743      7.52416        -0.002742      0.002530      0.000511
     -2.48059      5.69939      7.52661        -0.005710      0.006964      0.000412
     -3.69112      7.84347      7.53011        -0.000996      0.000193      0.000239
     -4.91391      9.98441      7.53144         0.002692     -0.004079     -0.000442
     -6.14594     12.12685      7.53313         0.002271     -0.002540     -0.000153
     -7.38568     14.26476      7.52989         0.000383      0.000433      0.000325
      2.48007      1.45857      7.51089         0.002359      0.002482      0.000645
      1.23926      3.59284      7.50186        -0.000090     -0.000434      0.000772
     -0.01685      5.69320      7.49683        -0.005594      0.006739     -0.000185
     -1.20441      7.83260      7.50361        -0.006290      0.002976      0.000108
     -2.43527      9.97392      7.51343        -0.000969     -0.004484     -0.000730
     -3.67536     12.12115      7.51972        -0.002191     -0.002055     -0.001781
     -4.91550     14.26874      7.51954         0.003466      0.001335     -0.000566
      4.94015      1.46455      7.50492         0.000713      0.001731     -0.001166
      3.75898      3.63619      7.48819         0.002416      0.000730     -0.000773
      0.09070      9.99367      7.49275        -0.003136     -0.005775     -0.001976
     -1.20093     12.10157      7.50655        -0.001322     -0.003358     -0.001354
     -2.45259     14.25907      7.51151         0.000652      0.000469     -0.001757
      7.40312      1.44745      7.51198         0.001718      0.001332     -0.002631
      6.10872      3.62415      7.50069         0.000656      0.000203     -0.003077
      1.25363     12.03394      7.50106         0.001271      0.000467     -0.002353
      0.01535     14.24359      7.51263         0.002400      0.000493     -0.002018
      9.86477      1.42786      7.52798         0.000824     -0.000717     -0.001977
      8.61428      3.59350      7.52235         0.001335     -0.001255     -0.002589
      2.47949     14.21930      7.52128         0.000239     -0.000917     -0.001110
     12.33267      1.41805      7.53997        -0.007616     -0.005453     -0.000804
     11.09015      3.57025      7.54054        -0.001394     -0.001497     -0.000541
      9.83432      5.72644      7.53115         0.001543     -0.000793     -0.000266
      8.55433      7.91883      7.50975        -0.000243      0.000377     -0.000450
      7.41896      9.98815      7.49847         0.000120     -0.000576     -0.001190
      6.19492     12.00487      7.50563         0.000162     -0.002539     -0.002722
      4.93652     14.20962      7.52807        -0.005193      0.000464     -0.002769
     14.79908      1.41029      7.53877        -0.006955     -0.001945     -0.000202
     13.55753      3.56016      7.54177        -0.006558      0.000900      0.000461
     12.31692      5.71052      7.54109        -0.000182      0.001621      0.000460
     11.09240      7.85377      7.53541         0.003116      0.000178     -0.000022
      9.88666      9.98959      7.53198         0.002385     -0.002152     -0.000559
      8.65439     12.12336      7.53123        -0.001254      0.000116     -0.000200
      7.40745     14.23531      7.53306         0.000109     -0.002209     -0.001427
      4.93189      4.29407      7.48993        -0.000768     -0.000361     -0.002226
      1.24552     10.68080      7.49194         0.001805      0.002162     -0.002207
      7.40815      8.61274      7.48555         0.001052     -0.000948     -0.000466
      6.22415     10.66620      7.48026         0.000388      0.000906     -0.002188
      2.42117      5.73256      7.45916         0.000205     -0.001710     -0.000431
      1.24121      7.78312      7.46907        -0.005146      0.004219     -0.001512
      7.40255      5.71946      7.50543         0.001329      0.000086     -0.001743
      3.71485     12.10774      7.49918        -0.000333      0.000029     -0.002844
      3.29548      8.27944      7.77827         0.003810      0.004646     -0.000775
      4.43974      7.25579      7.77578        -0.014752      0.004810      0.000481
      4.23751      8.17652      8.02332        -0.011315      0.000908      0.079005
 -----------------------------------------------------------------------------------
    total drift:                                0.066875      0.019306      0.214715


--------------------------------------------------------------------------------------------------------



  FREE ENERGIE OF THE ION-ELECTRON SYSTEM (eV)
  ---------------------------------------------------
  free  energy   TOTEN  =      -820.06571845 eV

  energy  without entropy=     -820.06114071  energy(sigma->0) =     -820.06342958
 


--------------------------------------------------------------------------------------------------------


    POTLOK:  cpu time      1.8658: real time      2.0030


--------------------------------------------------------------------------------------------------------


 NEB: the previous image is higher in energy: F
 NEB: the next image is higher in energy    : T
 NEB: only next energy greater

 NEB: Tangent
 ----------------------------------------------
     -0.00433      0.00785      0.01559
     -0.00516      0.00701      0.01078
     -0.00514      0.00730      0.00811
     -0.00502      0.00791      0.00971
     -0.00352      0.00814      0.01490
     -0.00346      0.00787      0.01483
     -0.00418      0.00791      0.01480
     -0.00408      0.00822      0.01406
     -0.00472      0.00786      0.01636
     -0.00621      0.00601      0.01636
     -0.00651      0.00747      0.01642
     -0.00369      0.00803      0.01618
     -0.00332      0.00840      0.01371
     -0.00387      0.00808      0.01017
     -0.00432      0.00865      0.01995
     -0.00465      0.00873      0.02746
     -0.00527      0.00838      0.03805
     -0.01106      0.00547      0.04144
     -0.00228      0.00629      0.03394
     -0.00291      0.00797      0.02595
     -0.00362      0.00846      0.01990
     -0.00434      0.00905      0.03289
     -0.00463      0.00895      0.03716
     -0.00395      0.00892      0.03616
     -0.00422      0.00923      0.03957
     -0.00494      0.00959      0.03895
     -0.00623      0.00934      0.04563
     -0.00450      0.00864      0.05006
     -0.00430      0.00837      0.03297
     -0.00460      0.00910      0.02953
     -0.00514      0.00912      0.03112
     -0.00435      0.00905      0.04940
     -0.00469      0.00775      0.05649
     -0.00470      0.00758      0.02273
     -0.00462      0.00784      0.01607
     -0.00498      0.00838      0.01641
     -0.00454      0.00816      0.02109
     -0.00319      0.00807      0.03318
     -0.00324      0.00774      0.03770
     -0.00400      0.00776      0.03427
     -0.00476      0.00771      0.01310
     -0.00561      0.00666      0.00974
     -0.00588      0.00756      0.00909
     -0.00385      0.00797      0.01175
     -0.00325      0.00807      0.01308
     -0.00390      0.00806      0.01151
     -0.00412      0.00813      0.01366
     -0.00434      0.00843      0.01911
     -0.00518      0.00759      0.02107
     -0.00892      0.00539      0.02280
     -0.00427      0.00774      0.02172
     -0.00327      0.00823      0.01809
     -0.00369      0.00842      0.01309
     -0.00401      0.00832      0.01277
     -0.00450      0.00860      0.02796
     -0.00501      0.00923      0.03772
     -0.00220      0.00775      0.03460
     -0.00349      0.00816      0.02715
     -0.00415      0.00846      0.02330
     -0.00454      0.00925      0.03735
     -0.00527      0.00898      0.04230
     -0.00416      0.00889      0.04341
     -0.00416      0.00894      0.03711
     -0.00481      0.00939      0.03682
     -0.00567      0.00965      0.03845
     -0.00449      0.00872      0.04074
     -0.00480      0.00831      0.02569
     -0.00523      0.00885      0.02528
     -0.00493      0.00890      0.03232
     -0.00262      0.00857      0.05796
     -0.00390      0.00866      0.07133
     -0.00359      0.00752      0.06269
     -0.00457      0.00782      0.03548
     -0.00503      0.00732      0.01392
     -0.00513      0.00803      0.01206
     -0.00490      0.00820      0.01381
     -0.00345      0.00787      0.02123
     -0.00318      0.00789      0.02731
     -0.00382      0.00799      0.02770
     -0.00442      0.00763      0.02228
     -0.00491      0.00911      0.04342
     -0.00357      0.00914      0.04276
     -0.00266      0.00798      0.08611
     -0.00320      0.00817      0.09239
     -0.00995      0.00824      0.05478
     -0.00481      0.00364      0.04556
     -0.00580      0.01028      0.05374
     -0.00455      0.00839      0.06195
      0.20230     -0.43809     -0.25252
      0.50615      0.06834     -0.23034
      0.18253     -0.03911     -0.49272

 NEB: forces: par spring, perp REAL, dneb     0.031467    0.045075    0.000000
 NEB: distance to prev, next image, angle between     1.068407    1.062114  102.018743
 NEB: projections on to tangent (spring, REAL)    -0.031467   -0.013891

 stress matrix after NEB project (eV)
    -29.66879     10.47157     -0.04530
     10.47157    -40.94015      0.00597
     -0.04530      0.00597     -0.68422
  FORCES: max atom, RMS     0.024347    0.005691
  FORCE total and by dimension    0.054286    0.023648
  Stress total and by dimension   52.688831   40.940152
 OPT: skip step - force has converged


--------------------------------------------------------------------------------------------------------


  
 reached required accuracy - stopping structural energy minimisation
     LOOP+:  cpu time   1647.1005: real time   1687.4150
    4ORBIT:  cpu time      0.0000: real time      0.0000

 total amount of memory used by VASP MPI-rank0   344383. kBytes
=======================================================================

   base      :      30000. kBytes
   nonlr-proj:       8791. kBytes
   fftplans  :      49947. kBytes
   grid      :      93499. kBytes
   one-center:        559. kBytes
   wavefun   :     161587. kBytes
 
  
  
 General timing and accounting informations for this job:
 ========================================================
  
                  Total CPU time used (sec):     1667.387
                            User time (sec):     1494.981
                          System time (sec):      172.407
                         Elapsed time (sec):     1710.040
  
                   Maximum memory used (kb):      636116.
                   Average memory used (kb):          N/A
  
                          Minor page faults:        54047
                          Major page faults:            0
                 Voluntary context switches:         2210
