<?xml version="1.0" encoding="ISO-8859-1"?>
<modeling>
 <generator>
  <i name="program" type="string">vasp </i>
  <i name="version" type="string">6.4.2  </i>
  <i name="subversion" type="string">20Jul23 (build Aug 26 2025 15:10:52) complex                          parallel </i>
  <i name="platform" type="string">LinuxIFC </i>
  <i name="date" type="string">2025 11 27 </i>
  <i name="time" type="string">11:30:10 </i>
 </generator>
 <incar>
  <i type="int" name="ISTART">     0</i>
  <i type="string" name="ALGO">Normal</i>
  <i type="logical" name="ADDGRID"> T  </i>
  <i type="int" name="ISPIN">     2</i>
  <i type="int" name="IMIX">     4</i>
  <i name="AMIX">      0.20000000</i>
  <i name="BMIX">      0.00010000</i>
  <i name="AMIX_MAG">      0.80000000</i>
  <i name="BMIX_MAG">      0.00010000</i>
  <i type="int" name="ICHARG">     2</i>
  <i type="int" name="NELM">   200</i>
  <i type="int" name="IBRION">     3</i>
  <i name="EDIFF">      0.00000100</i>
  <i name="EDIFFG">     -0.03000000</i>
  <i type="int" name="NSW">   300</i>
  <i type="int" name="ISIF">     2</i>
  <i type="int" name="ISYM">     0</i>
  <i name="ENCUT">    520.00000000</i>
  <i name="POTIM">      0.00000000</i>
  <v name="MAGMOM">      0.00000000      0.00000000      0.00000000      0.00000000      0.00000000      0.00000000      0.00000000      0.00000000      0.00000000      0.00000000      0.00000000      0.00000000      0.00000000      0.00000000      0.00000000      0.00000000      0.00000000      0.00000000      0.00000000      0.00000000
      0.00000000      0.00000000      0.00000000      0.00000000      0.00000000      0.00000000      0.00000000      0.00000000      0.00000000      0.00000000      0.00000000      0.00000000      0.00000000      0.00000000      0.00000000      0.00000000      0.00000000      0.00000000      0.00000000      0.00000000
      0.00000000      0.00000000      0.00000000      0.00000000      0.00000000      0.00000000      0.00000000      0.00000000      0.00000000      0.00000000      0.00000000      0.00000000      0.00000000      0.00000000      0.00000000      0.00000000      0.00000000      0.00000000      0.00000000      0.00000000
      0.00000000      0.00000000      0.00000000      0.00000000      0.00000000      0.00000000      0.00000000      0.00000000      0.00000000      0.00000000      0.00000000      0.00000000      0.00000000      0.00000000      0.00000000      0.00000000      0.00000000      0.00000000      0.00000000      0.00000000
      0.00000000      0.00000000      0.00000000      0.00000000      0.00000000      0.00000000      0.00000000      0.00000000      0.00000000      0.00000000      0.00000000</v>
  <i type="string" name="LREAL">Auto</i>
  <i type="int" name="ISMEAR">     0</i>
  <i name="SIGMA">      0.05000000</i>
  <i type="logical" name="LWAVE"> F  </i>
  <i type="logical" name="LCHARG"> F  </i>
  <i type="logical" name="LASPH"> T  </i>
  <i type="int" name="IVDW">    12</i>
  <i name="SPRING">     -5.00000000</i>
 </incar>
 <primitive_cell>
  <structure name="primitive_cell" >
   <crystal>
    <varray name="basis" >
     <v>      17.27103806       0.00000000       0.00000000 </v>
     <v>      -8.63551903      14.95715771       0.00000000 </v>
     <v>       0.00000000       0.00000000      15.00000000 </v>
    </varray>
    <i name="volume">   3874.88459904 </i>
    <varray name="rec_basis" >
     <v>       0.05790040       0.03342881       0.00000000 </v>
     <v>       0.00000000       0.06685762       0.00000000 </v>
     <v>       0.00000000       0.00000000       0.06666667 </v>
    </varray>
   </crystal>
   <varray name="positions" >
    <v>       0.00052282       0.00043085       0.50213732 </v>
    <v>       0.99964813       0.14270282       0.50209187 </v>
    <v>       0.99939924       0.28574218       0.50214201 </v>
    <v>       0.99970500       0.42900610       0.50232951 </v>
    <v>       0.00058597       0.57211923       0.50229211 </v>
    <v>       0.00206186       0.71546280       0.50229664 </v>
    <v>       0.00204698       0.85860979       0.50225940 </v>
    <v>       0.14485789       0.00216345       0.50139105 </v>
    <v>       0.14415192       0.14469838       0.50093938 </v>
    <v>       0.14245739       0.28583743       0.50047799 </v>
    <v>       0.14254206       0.42864450       0.50059339 </v>
    <v>       0.14429785       0.57145758       0.50108745 </v>
    <v>       0.14488178       0.71467998       0.50148396 </v>
    <v>       0.14491515       0.85845975       0.50169196 </v>
    <v>       0.28744849       0.00167894       0.50079088 </v>
    <v>       0.28802021       0.14643026       0.50003458 </v>
    <v>       0.28879422       0.29357387       0.49873469 </v>
    <v>       0.28511778       0.42837831       0.49822174 </v>
    <v>       0.28909377       0.56728991       0.49911588 </v>
    <v>       0.28804285       0.71357773       0.50022614 </v>
    <v>       0.28744690       0.85775008       0.50081959 </v>
    <v>       0.42998394       0.00100033       0.50077423 </v>
    <v>       0.43004533       0.14587128       0.50029344 </v>
    <v>       0.43005260       0.85619665       0.50042529 </v>
    <v>       0.57184318       0.99970705       0.50143094 </v>
    <v>       0.57184395       0.14415546       0.50141970 </v>
    <v>       0.57418349       0.29192329       0.50066511 </v>
    <v>       0.57423075       0.85428628       0.50048076 </v>
    <v>       0.71392638       0.99860748       0.50208627 </v>
    <v>       0.71423848       0.14313220       0.50252498 </v>
    <v>       0.71393000       0.28735418       0.50218868 </v>
    <v>       0.70965132       0.42841080       0.50101439 </v>
    <v>       0.70962105       0.85328296       0.50063868 </v>
    <v>       0.85653894       0.99892548       0.50233711 </v>
    <v>       0.85651592       0.14249554       0.50279317 </v>
    <v>       0.85653640       0.28610248       0.50285611 </v>
    <v>       0.85656548       0.42968362       0.50253635 </v>
    <v>       0.85709998       0.57289799       0.50190083 </v>
    <v>       0.85937920       0.71570683       0.50170146 </v>
    <v>       0.85708195       0.85623819       0.50180271 </v>
    <v>       0.04837499       0.09602042       0.50178111 </v>
    <v>       0.04682666       0.23784112       0.50161039 </v>
    <v>       0.04689656       0.38104745       0.50177429 </v>
    <v>       0.04848037       0.52439586       0.50200754 </v>
    <v>       0.04924969       0.66753378       0.50209628 </v>
    <v>       0.04953369       0.81077264       0.50220856 </v>
    <v>       0.04922030       0.95370817       0.50199286 </v>
    <v>       0.19235539       0.09751653       0.50072617 </v>
    <v>       0.19185831       0.24020895       0.50012411 </v>
    <v>       0.18934115       0.38063401       0.49978840 </v>
    <v>       0.19209854       0.52366875       0.50024051 </v>
    <v>       0.19241318       0.66683252       0.50089542 </v>
    <v>       0.19239095       0.81039108       0.50131496 </v>
    <v>       0.19237765       0.95397413       0.50130240 </v>
    <v>       0.33499473       0.09791617       0.50032776 </v>
    <v>       0.33920028       0.24310729       0.49921292 </v>
    <v>       0.33932830       0.66815331       0.49951647 </v>
    <v>       0.33500647       0.80908199       0.50043645 </v>
    <v>       0.33465774       0.95332753       0.50076758 </v>
    <v>       0.47703037       0.09677315       0.50079879 </v>
    <v>       0.47484842       0.24230238       0.50004607 </v>
    <v>       0.47486605       0.80456051       0.50007097 </v>
    <v>       0.47703472       0.95229238       0.50084194 </v>
    <v>       0.61890582       0.09546342       0.50186551 </v>
    <v>       0.61889668       0.24025318       0.50148999 </v>
    <v>       0.61889800       0.95066889       0.50141838 </v>
    <v>       0.76147029       0.09480748       0.50266486 </v>
    <v>       0.76147315       0.23869829       0.50270292 </v>
    <v>       0.76083917       0.38285630       0.50207671 </v>
    <v>       0.76001601       0.52943421       0.50064975 </v>
    <v>       0.76345299       0.66778405       0.49989803 </v>
    <v>       0.75999725       0.80261738       0.50037518 </v>
    <v>       0.76083733       0.95002160       0.50187126 </v>
    <v>       0.90401714       0.09428892       0.50258470 </v>
    <v>       0.90399829       0.23802395       0.50278479 </v>
    <v>       0.90405040       0.38179178       0.50273918 </v>
    <v>       0.90479674       0.52508427       0.50236090 </v>
    <v>       0.90638158       0.66788050       0.50213200 </v>
    <v>       0.90636189       0.81053871       0.50208190 </v>
    <v>       0.90476361       0.95173899       0.50220378 </v>
    <v>       0.42910414       0.28709158       0.49932895 </v>
    <v>       0.42916218       0.71409271       0.49946282 </v>
    <v>       0.71684866       0.57582747       0.49903666 </v>
    <v>       0.71693902       0.71311691       0.49868397 </v>
    <v>       0.33181913       0.38326502       0.49727743 </v>
    <v>       0.33204739       0.52036109       0.49793815 </v>
    <v>       0.61980498       0.38238932       0.50036198 </v>
    <v>       0.61983839       0.80949469       0.49994557 </v>
    <v>       0.46758127       0.55354377       0.51855112 </v>
    <v>       0.49961523       0.48510509       0.51838529 </v>
    <v>       0.51868485       0.54666290       0.53488797 </v>
   </varray>
  </structure>
  <varray name="primitive_index" >
   <v type="int" >        1 </v>
   <v type="int" >        2 </v>
   <v type="int" >        3 </v>
   <v type="int" >        4 </v>
   <v type="int" >        5 </v>
   <v type="int" >        6 </v>
   <v type="int" >        7 </v>
   <v type="int" >        8 </v>
   <v type="int" >        9 </v>
   <v type="int" >       10 </v>
   <v type="int" >       11 </v>
   <v type="int" >       12 </v>
   <v type="int" >       13 </v>
   <v type="int" >       14 </v>
   <v type="int" >       15 </v>
   <v type="int" >       16 </v>
   <v type="int" >       17 </v>
   <v type="int" >       18 </v>
   <v type="int" >       19 </v>
   <v type="int" >       20 </v>
   <v type="int" >       21 </v>
   <v type="int" >       22 </v>
   <v type="int" >       23 </v>
   <v type="int" >       24 </v>
   <v type="int" >       25 </v>
   <v type="int" >       26 </v>
   <v type="int" >       27 </v>
   <v type="int" >       28 </v>
   <v type="int" >       29 </v>
   <v type="int" >       30 </v>
   <v type="int" >       31 </v>
   <v type="int" >       32 </v>
   <v type="int" >       33 </v>
   <v type="int" >       34 </v>
   <v type="int" >       35 </v>
   <v type="int" >       36 </v>
   <v type="int" >       37 </v>
   <v type="int" >       38 </v>
   <v type="int" >       39 </v>
   <v type="int" >       40 </v>
   <v type="int" >       41 </v>
   <v type="int" >       42 </v>
   <v type="int" >       43 </v>
   <v type="int" >       44 </v>
   <v type="int" >       45 </v>
   <v type="int" >       46 </v>
   <v type="int" >       47 </v>
   <v type="int" >       48 </v>
   <v type="int" >       49 </v>
   <v type="int" >       50 </v>
   <v type="int" >       51 </v>
   <v type="int" >       52 </v>
   <v type="int" >       53 </v>
   <v type="int" >       54 </v>
   <v type="int" >       55 </v>
   <v type="int" >       56 </v>
   <v type="int" >       57 </v>
   <v type="int" >       58 </v>
   <v type="int" >       59 </v>
   <v type="int" >       60 </v>
   <v type="int" >       61 </v>
   <v type="int" >       62 </v>
   <v type="int" >       63 </v>
   <v type="int" >       64 </v>
   <v type="int" >       65 </v>
   <v type="int" >       66 </v>
   <v type="int" >       67 </v>
   <v type="int" >       68 </v>
   <v type="int" >       69 </v>
   <v type="int" >       70 </v>
   <v type="int" >       71 </v>
   <v type="int" >       72 </v>
   <v type="int" >       73 </v>
   <v type="int" >       74 </v>
   <v type="int" >       75 </v>
   <v type="int" >       76 </v>
   <v type="int" >       77 </v>
   <v type="int" >       78 </v>
   <v type="int" >       79 </v>
   <v type="int" >       80 </v>
   <v type="int" >       81 </v>
   <v type="int" >       82 </v>
   <v type="int" >       83 </v>
   <v type="int" >       84 </v>
   <v type="int" >       85 </v>
   <v type="int" >       86 </v>
   <v type="int" >       87 </v>
   <v type="int" >       88 </v>
   <v type="int" >       89 </v>
   <v type="int" >       90 </v>
   <v type="int" >       91 </v>
  </varray>
 </primitive_cell>
 <kpoints>
  <generation param="Gamma">
   <v type="int" name="divisions">       2        2        1 </v>
   <v name="usershift">      0.00000000       0.00000000       0.00000000 </v>
   <v name="genvec1">      0.50000000       0.00000000       0.00000000 </v>
   <v name="genvec2">      0.00000000       0.50000000       0.00000000 </v>
   <v name="genvec3">      0.00000000       0.00000000       1.00000000 </v>
   <v name="shift">      0.00000000       0.00000000       0.00000000 </v>
  </generation>
  <varray name="kpointlist" >
   <v>       0.00000000       0.00000000       0.00000000 </v>
   <v>       0.50000000       0.00000000       0.00000000 </v>
   <v>       0.00000000       0.50000000       0.00000000 </v>
   <v>       0.50000000       0.50000000       0.00000000 </v>
  </varray>
  <varray name="weights" >
   <v>       0.25000000 </v>
   <v>       0.25000000 </v>
   <v>       0.25000000 </v>
   <v>       0.25000000 </v>
  </varray>
 </kpoints>
 <parameters>
  <separator name="general" >
   <i type="string" name="SYSTEM">unknown system</i>
   <i type="logical" name="LCOMPAT"> F  </i>
  </separator>
  <separator name="electronic" >
   <i type="string" name="PREC">normal</i>
   <i name="ENMAX">    520.00000000</i>
   <i name="ENAUG">    644.87300000</i>
   <i name="EDIFF">      0.00000100</i>
   <i type="int" name="IALGO">    38</i>
   <i type="int" name="IWAVPR">    11</i>
   <i type="int" name="NBANDS">   240</i>
   <i type="int" name="NBANDSLOW">    -1</i>
   <i type="int" name="NBANDSHIGH">    -1</i>
   <i name="NELECT">    368.00000000</i>
   <i type="int" name="TURBO">     0</i>
   <i type="int" name="IRESTART">     0</i>
   <i type="int" name="NREBOOT">     0</i>
   <i type="int" name="NMIN">     0</i>
   <i name="EREF">      0.00000000</i>
   <separator name="electronic smearing" >
    <i type="int" name="ISMEAR">     0</i>
    <i name="SIGMA">      0.05000000</i>
    <i name="KSPACING">      0.50000000</i>
    <i type="logical" name="KGAMMA"> T  </i>
    <i type="logical" name="KBLOWUP"> T  </i>
   </separator>
   <separator name="electronic projectors" >
    <i type="logical" name="LREAL"> T  </i>
    <v name="ROPT">     -0.00050000     -0.00050000     -0.00050000     -0.00050000</v>
    <i type="int" name="LMAXPAW">  -100</i>
    <i type="int" name="LMAXMIX">     2</i>
    <i type="logical" name="NLSPLINE"> F  </i>
   </separator>
   <separator name="electronic startup" >
    <i type="int" name="ISTART">     0</i>
    <i type="int" name="ICHARG">     2</i>
    <i type="int" name="INIWAV">     1</i>
   </separator>
   <separator name="electronic spin" >
    <i type="int" name="ISPIN">     2</i>
    <i type="logical" name="LNONCOLLINEAR"> F  </i>
    <v name="MAGMOM">      0.00000000      0.00000000      0.00000000      0.00000000      0.00000000      0.00000000      0.00000000      0.00000000      0.00000000      0.00000000      0.00000000      0.00000000      0.00000000      0.00000000      0.00000000      0.00000000      0.00000000      0.00000000      0.00000000      0.00000000
      0.00000000      0.00000000      0.00000000      0.00000000      0.00000000      0.00000000      0.00000000      0.00000000      0.00000000      0.00000000      0.00000000      0.00000000      0.00000000      0.00000000      0.00000000      0.00000000      0.00000000      0.00000000      0.00000000      0.00000000
      0.00000000      0.00000000      0.00000000      0.00000000      0.00000000      0.00000000      0.00000000      0.00000000      0.00000000      0.00000000      0.00000000      0.00000000      0.00000000      0.00000000      0.00000000      0.00000000      0.00000000      0.00000000      0.00000000      0.00000000
      0.00000000      0.00000000      0.00000000      0.00000000      0.00000000      0.00000000      0.00000000      0.00000000      0.00000000      0.00000000      0.00000000      0.00000000      0.00000000      0.00000000      0.00000000      0.00000000      0.00000000      0.00000000      0.00000000      0.00000000
      0.00000000      0.00000000      0.00000000      0.00000000      0.00000000      0.00000000      0.00000000      0.00000000      0.00000000      0.00000000      0.00000000</v>
    <i name="NUPDOWN">     -1.00000000</i>
    <i type="logical" name="LSORBIT"> F  </i>
    <v name="SAXIS">      0.00000000      0.00000000      1.00000000</v>
    <i type="logical" name="LSPIRAL"> F  </i>
    <v name="QSPIRAL">      0.00000000      0.00000000      0.00000000</v>
    <i type="logical" name="LZEROZ"> F  </i>
   </separator>
   <separator name="electronic exchange-correlation" >
    <i type="logical" name="LASPH"> T  </i>
    <i type="logical" name="LMETAGGA"> F  </i>
   </separator>
   <separator name="electronic convergence" >
    <i type="int" name="NELM">   200</i>
    <i type="int" name="NELMDL">    -5</i>
    <i type="int" name="NELMIN">     2</i>
    <i name="ENINI">    520.00000000</i>
    <separator name="electronic convergence detail" >
     <i type="logical" name="LDIAG"> T  </i>
     <i type="logical" name="LSUBROT"> F  </i>
     <i name="WEIMIN">      0.00100000</i>
     <i name="EBREAK">      0.00000000</i>
     <i name="DEPER">      0.30000000</i>
     <i type="int" name="NRMM">     4</i>
     <i name="TIME">      0.40000000</i>
    </separator>
   </separator>
   <separator name="electronic mixer" >
    <i name="AMIX">      0.20000000</i>
    <i name="BMIX">      0.00010000</i>
    <i name="AMIN">      0.10000000</i>
    <i name="AMIX_MAG">      0.80000000</i>
    <i name="BMIX_MAG">      0.00010000</i>
    <separator name="electronic mixer details" >
     <i type="int" name="IMIX">     4</i>
     <i type="logical" name="MIXFIRST"> F  </i>
     <i type="int" name="MAXMIX">   -45</i>
     <i name="WC">    100.00000000</i>
     <i type="int" name="INIMIX">     1</i>
     <i type="int" name="MIXPRE">     1</i>
     <i type="int" name="MREMOVE">     5</i>
    </separator>
   </separator>
   <separator name="electronic dipolcorrection" >
    <i type="logical" name="LDIPOL"> F  </i>
    <i type="logical" name="LMONO"> F  </i>
    <i type="int" name="IDIPOL">     0</i>
    <i name="EPSILON">      1.00000000</i>
    <v name="DIPOL">   -100.00000000   -100.00000000   -100.00000000</v>
    <i name="EFIELD">      0.00000000</i>
   </separator>
  </separator>
  <separator name="grids" >
   <i type="int" name="NGX">    96</i>
   <i type="int" name="NGY">    96</i>
   <i type="int" name="NGZ">    84</i>
   <i type="int" name="NGXF">   192</i>
   <i type="int" name="NGYF">   192</i>
   <i type="int" name="NGZF">   168</i>
   <i type="logical" name="ADDGRID"> T  </i>
  </separator>
  <separator name="ionic" >
   <i type="int" name="NSW">   300</i>
   <i type="int" name="IBRION">     3</i>
   <i type="int" name="MDALGO">     0</i>
   <i type="int" name="ISIF">     2</i>
   <i name="PSTRESS">      0.00000000</i>
   <i name="EDIFFG">     -0.03000000</i>
   <i type="int" name="NFREE">     0</i>
   <i name="POTIM">      0.00000000</i>
   <i name="SMASS">     -3.00000000</i>
   <i name="SCALEE">      1.00000000</i>
  </separator>
  <separator name="ionic md" >
   <i name="TEBEG">      0.00010000</i>
   <i name="TEEND">      0.00010000</i>
   <i type="int" name="NBLOCK">     1</i>
   <i type="int" name="KBLOCK">   300</i>
   <i type="int" name="NPACO">   256</i>
   <i name="APACO">     10.00000000</i>
  </separator>
  <separator name="symmetry" >
   <i type="int" name="ISYM">     0</i>
   <i name="SYMPREC">      0.00001000</i>
  </separator>
  <separator name="dos" >
   <i type="int" name="LORBIT">     0</i>
   <v name="RWIGS">     -1.00000000     -1.00000000     -1.00000000     -1.00000000</v>
   <i type="int" name="NEDOS">   301</i>
   <i name="EMIN">     10.00000000</i>
   <i name="EMAX">    -10.00000000</i>
   <i name="EFERMI">      0.00000000</i>
  </separator>
  <separator name="writing" >
   <i type="int" name="NWRITE">     2</i>
   <i type="logical" name="LWAVE"> F  </i>
   <i type="logical" name="LDOWNSAMPLE"> F  </i>
   <i type="logical" name="LCHARG"> F  </i>
   <i type="logical" name="LPARD"> F  </i>
   <i type="logical" name="LVTOT"> F  </i>
   <i type="logical" name="LVHAR"> F  </i>
   <i type="logical" name="LELF"> F  </i>
   <i type="logical" name="LOPTICS"> F  </i>
   <v name="STM">      0.00000000      0.00000000      0.00000000      0.00000000      0.00000000      0.00000000      0.00000000</v>
  </separator>
  <separator name="performance" >
   <i type="int" name="NPAR">    20</i>
   <i type="int" name="NSIM">     4</i>
   <i type="int" name="NBLK">    -1</i>
   <i type="logical" name="LPLANE"> T  </i>
   <i type="logical" name="LSCALAPACK"> T  </i>
   <i type="logical" name="LSCAAWARE"> F  </i>
   <i type="logical" name="LSCALU"> F  </i>
   <i type="logical" name="LASYNC"> F  </i>
   <i type="logical" name="LORBITALREAL"> F  </i>
  </separator>
  <separator name="miscellaneous" >
   <i type="int" name="IDIOT">     3</i>
   <i type="int" name="PHON_NSTRUCT">    -1</i>
   <i type="logical" name="LMUSIC"> F  </i>
   <v name="POMASS">     12.01100000     14.00100000      1.00000000     16.00000000</v>
   <v name="DARWINR">      0.00000000      0.00000000      0.00000000      0.00000000</v>
   <v name="DARWINV">      1.00000000      1.00000000      1.00000000      1.00000000</v>
   <i type="logical" name="LCORR"> T  </i>
  </separator>
  <i type="logical" name="GGA_COMPAT"> T  </i>
  <i type="logical" name="LBERRY"> F  </i>
  <i type="int" name="ICORELEVEL">     0</i>
  <i type="logical" name="LDAU"> F  </i>
  <i type="int" name="I_CONSTRAINED_M">     0</i>
  <separator name="electronic exchange-correlation" >
   <i type="string" name="GGA">--</i>
   <i type="int" name="VOSKOWN">     0</i>
   <i type="logical" name="LHFCALC"> F  </i>
   <i type="string" name="PRECFOCK"></i>
   <i type="logical" name="LSYMGRAD"> F  </i>
   <i type="logical" name="LHFONE"> F  </i>
   <i type="logical" name="LRHFCALC"> F  </i>
   <i type="logical" name="LTHOMAS"> F  </i>
   <i type="logical" name="LMODELHF"> F  </i>
   <i type="logical" name="LFOCKACE"> F  </i>
   <i name="ENCUT4O">     -1.00000000</i>
   <i type="int" name="EXXOEP">     0</i>
   <i type="int" name="FOURORBIT">     0</i>
   <i name="AEXX">      0.00000000</i>
   <i name="HFALPHA">      0.00000000</i>
   <i name="MCALPHA">      0.00000000</i>
   <i name="ALDAX">      1.00000000</i>
   <i name="AGGAX">      1.00000000</i>
   <i name="ALDAC">      1.00000000</i>
   <i name="AGGAC">      1.00000000</i>
   <i type="int" name="NKREDX">     1</i>
   <i type="int" name="NKREDY">     1</i>
   <i type="int" name="NKREDZ">     1</i>
   <i type="logical" name="SHIFTRED"> F  </i>
   <i type="logical" name="ODDONLY"> F  </i>
   <i type="logical" name="EVENONLY"> F  </i>
   <i type="int" name="LMAXFOCK">     0</i>
   <i type="int" name="NMAXFOCKAE">     0</i>
   <i type="logical" name="LFOCKAEDFT"> F  </i>
   <i name="HFSCREEN">      0.00000000</i>
   <i name="HFSCREENC">      0.00000000</i>
   <i type="int" name="NBANDSGWLOW">     0</i>
  </separator>
  <separator name="vdW DFT" >
   <i type="logical" name="LUSE_VDW"> F  </i>
   <i type="int" name="IVDW_NL">     1</i>
   <i type="logical" name="LSPIN_VDW"> F  </i>
   <i name="Zab_VDW">     -0.84910000</i>
   <i name="PARAM1">      0.12340000</i>
   <i name="PARAM2">      1.00000000</i>
   <i name="PARAM3">      0.00000000</i>
  </separator>
  <separator name="model GW" >
   <i type="int" name="MODEL_GW">     0</i>
   <i name="MODEL_EPS0">     25.54868966</i>
   <i name="MODEL_ALPHA">      1.00000000</i>
  </separator>
  <separator name="linear response parameters" >
   <i type="logical" name="LEPSILON"> F  </i>
   <i type="logical" name="LRPA"> F  </i>
   <i type="logical" name="LNABLA"> F  </i>
   <i type="logical" name="LVEL"> F  </i>
   <i name="CSHIFT">      0.10000000</i>
   <i name="OMEGAMAX">     -1.00000000</i>
   <i name="DEG_THRESHOLD">      0.00200000</i>
   <i name="RTIME">     -0.10000000</i>
   <i name="WPLASMAI">      0.00000000</i>
   <v name="DFIELD">      0.00000000      0.00000000      0.00000000</v>
   <v name="WPLASMA">      0.00000000      0.00000000      0.00000000      0.00000000      0.00000000      0.00000000      0.00000000      0.00000000      0.00000000</v>
  </separator>
  <separator name="orbital magnetization" >
   <i type="logical" name="NUCIND"> F  </i>
   <v name="MAGPOS">      0.00000000      0.00000000      0.00000000</v>
   <i type="logical" name="LNICSALL"> T  </i>
   <i type="logical" name="ORBITALMAG"> F  </i>
   <i type="logical" name="LMAGBLOCH"> F  </i>
   <i type="logical" name="LCHIMAG"> F  </i>
   <i type="logical" name="LGAUGE"> T  </i>
   <i type="int" name="MAGATOM">     0</i>
   <v name="MAGDIPOL">      0.00000000      0.00000000      0.00000000</v>
   <v name="AVECCONST">      0.00000000      0.00000000      0.00000000</v>
  </separator>
  <separator name="response functions" >
   <i type="logical" name="LALL_IN_ONE"> F  </i>
   <i type="int" name="IALL_IN_ONE">    -1</i>
   <i type="int" name="NBANDS_WAVE">    -1</i>
   <i type="logical" name="LFINITE_TEMPERATURE"> F  </i>
   <i type="logical" name="LADDER"> F  </i>
   <i type="logical" name="LRPAFORCE"> F  </i>
   <i type="logical" name="LFXC"> F  </i>
   <i type="logical" name="LHARTREE"> T  </i>
   <i type="int" name="IBSE">     0</i>
   <v type="int" name="KPOINT">    -1     0     0     0</v>
   <i type="logical" name="LTCTC"> F  </i>
   <i type="logical" name="LTCTE"> F  </i>
   <i type="logical" name="LTETE"> F  </i>
   <i type="logical" name="LTRIPLET"> F  </i>
   <i type="logical" name="LFXCEPS"> F  </i>
   <i type="logical" name="LFXHEG"> F  </i>
   <i type="int" name="NATURALO">     2</i>
   <i type="logical" name="LHOLEGF"> F  </i>
   <i type="logical" name="L2ORDER"> F  </i>
   <i type="logical" name="LDMP1"> F  </i>
   <i type="logical" name="LMP2LT"> F  </i>
   <i type="logical" name="LSMP2LT"> F  </i>
   <i type="logical" name="LGWLF"> F  </i>
   <i name="ENCUTGW">     -1.60000002</i>
   <i name="ENCUTGWSOFT">     -1.60000002</i>
   <i name="ENCUTLF">     -1.00000000</i>
   <i type="logical" name="LESF_SPLINES"> F  </i>
   <i type="int" name="LMAXMP2">    -1</i>
   <i name="SCISSOR">      0.00000000</i>
   <i type="int" name="NOMEGA">     0</i>
   <i type="int" name="NOMEGAR">     0</i>
   <i type="int" name="NBANDSGW">    -1</i>
   <i type="int" name="NBANDSO">    -1</i>
   <i type="int" name="NBANDSV">    -1</i>
   <i type="int" name="NELMGW">     1</i>
   <i type="int" name="NELMHF">     1</i>
   <i type="int" name="DIM">     3</i>
   <i type="int" name="IESPILON">     4</i>
   <i type="int" name="ANTIRES">     0</i>
   <i name="OMEGAMAX">    -30.00000000</i>
   <i name="OMEGAMIN">    -30.00000000</i>
   <i name="OMEGATL">   -200.00000000</i>
   <i type="int" name="OMEGAGRID">     0</i>
   <i name="CSHIFT">     -0.10000000</i>
   <i type="logical" name="LSELFENERGY"> F  </i>
   <i type="logical" name="LSPECTRAL"> F  </i>
   <i type="logical" name="LSPECTRALGW"> F  </i>
   <i type="logical" name="LSINGLES"> F  </i>
   <i type="logical" name="LFERMIGW"> F  </i>
   <i type="logical" name="ODDONLYGW"> F  </i>
   <i type="logical" name="EVENONLYGW"> F  </i>
   <i type="int" name="NKREDLFX">     1</i>
   <i type="int" name="NKREDLFY">     1</i>
   <i type="int" name="NKREDLFZ">     1</i>
   <i type="int" name="MAXMEM">  2800</i>
   <i type="int" name="TELESCOPE">     0</i>
   <i type="int" name="NTAUPAR">    -1</i>
   <i type="int" name="NOMEGAPAR">    -1</i>
   <i name="DAMP_NEWTON">      0.80000001</i>
   <i name="LAMBDA">      1.00000000</i>
  </separator>
  <separator name="External order field" >
   <i name="OFIELD_KAPPA">      0.00000000</i>
   <v name="OFIELD_K">      0.00000000      0.00000000      0.00000000</v>
   <i name="OFIELD_Q6_NEAR">      0.00000000</i>
   <i name="OFIELD_Q6_FAR">      0.00000000</i>
   <i name="OFIELD_A">      0.00000000</i>
  </separator>
  <separator name="optional k-points parameters" >
   <i type="int" name="KPOINTS_OPT_MODE">     1</i>
   <i type="logical" name="LKPOINTS_OPT"> F  </i>
  </separator>
 </parameters>
 <atominfo>
  <atoms>      91 </atoms>
  <types>       4 </types>
  <array name="atoms" >
   <dimension dim="1">ion</dimension>
   <field type="string">element</field>
   <field type="int">atomtype</field>
   <set>
    <rc><c>C </c><c>   1</c></rc>
    <rc><c>C </c><c>   1</c></rc>
    <rc><c>C </c><c>   1</c></rc>
    <rc><c>C </c><c>   1</c></rc>
    <rc><c>C </c><c>   1</c></rc>
    <rc><c>C </c><c>   1</c></rc>
    <rc><c>C </c><c>   1</c></rc>
    <rc><c>C </c><c>   1</c></rc>
    <rc><c>C </c><c>   1</c></rc>
    <rc><c>C </c><c>   1</c></rc>
    <rc><c>C </c><c>   1</c></rc>
    <rc><c>C </c><c>   1</c></rc>
    <rc><c>C </c><c>   1</c></rc>
    <rc><c>C </c><c>   1</c></rc>
    <rc><c>C </c><c>   1</c></rc>
    <rc><c>C </c><c>   1</c></rc>
    <rc><c>C </c><c>   1</c></rc>
    <rc><c>C </c><c>   1</c></rc>
    <rc><c>C </c><c>   1</c></rc>
    <rc><c>C </c><c>   1</c></rc>
    <rc><c>C </c><c>   1</c></rc>
    <rc><c>C </c><c>   1</c></rc>
    <rc><c>C </c><c>   1</c></rc>
    <rc><c>C </c><c>   1</c></rc>
    <rc><c>C </c><c>   1</c></rc>
    <rc><c>C </c><c>   1</c></rc>
    <rc><c>C </c><c>   1</c></rc>
    <rc><c>C </c><c>   1</c></rc>
    <rc><c>C </c><c>   1</c></rc>
    <rc><c>C </c><c>   1</c></rc>
    <rc><c>C </c><c>   1</c></rc>
    <rc><c>C </c><c>   1</c></rc>
    <rc><c>C </c><c>   1</c></rc>
    <rc><c>C </c><c>   1</c></rc>
    <rc><c>C </c><c>   1</c></rc>
    <rc><c>C </c><c>   1</c></rc>
    <rc><c>C </c><c>   1</c></rc>
    <rc><c>C </c><c>   1</c></rc>
    <rc><c>C </c><c>   1</c></rc>
    <rc><c>C </c><c>   1</c></rc>
    <rc><c>C </c><c>   1</c></rc>
    <rc><c>C </c><c>   1</c></rc>
    <rc><c>C </c><c>   1</c></rc>
    <rc><c>C </c><c>   1</c></rc>
    <rc><c>C </c><c>   1</c></rc>
    <rc><c>C </c><c>   1</c></rc>
    <rc><c>C </c><c>   1</c></rc>
    <rc><c>C </c><c>   1</c></rc>
    <rc><c>C </c><c>   1</c></rc>
    <rc><c>C </c><c>   1</c></rc>
    <rc><c>C </c><c>   1</c></rc>
    <rc><c>C </c><c>   1</c></rc>
    <rc><c>C </c><c>   1</c></rc>
    <rc><c>C </c><c>   1</c></rc>
    <rc><c>C </c><c>   1</c></rc>
    <rc><c>C </c><c>   1</c></rc>
    <rc><c>C </c><c>   1</c></rc>
    <rc><c>C </c><c>   1</c></rc>
    <rc><c>C </c><c>   1</c></rc>
    <rc><c>C </c><c>   1</c></rc>
    <rc><c>C </c><c>   1</c></rc>
    <rc><c>C </c><c>   1</c></rc>
    <rc><c>C </c><c>   1</c></rc>
    <rc><c>C </c><c>   1</c></rc>
    <rc><c>C </c><c>   1</c></rc>
    <rc><c>C </c><c>   1</c></rc>
    <rc><c>C </c><c>   1</c></rc>
    <rc><c>C </c><c>   1</c></rc>
    <rc><c>C </c><c>   1</c></rc>
    <rc><c>C </c><c>   1</c></rc>
    <rc><c>C </c><c>   1</c></rc>
    <rc><c>C </c><c>   1</c></rc>
    <rc><c>C </c><c>   1</c></rc>
    <rc><c>C </c><c>   1</c></rc>
    <rc><c>C </c><c>   1</c></rc>
    <rc><c>C </c><c>   1</c></rc>
    <rc><c>C </c><c>   1</c></rc>
    <rc><c>C </c><c>   1</c></rc>
    <rc><c>C </c><c>   1</c></rc>
    <rc><c>C </c><c>   1</c></rc>
    <rc><c>N </c><c>   2</c></rc>
    <rc><c>N </c><c>   2</c></rc>
    <rc><c>N </c><c>   2</c></rc>
    <rc><c>N </c><c>   2</c></rc>
    <rc><c>N </c><c>   2</c></rc>
    <rc><c>N </c><c>   2</c></rc>
    <rc><c>N </c><c>   2</c></rc>
    <rc><c>N </c><c>   2</c></rc>
    <rc><c>H </c><c>   3</c></rc>
    <rc><c>H </c><c>   3</c></rc>
    <rc><c>O </c><c>   4</c></rc>
   </set>
  </array>
  <array name="atomtypes" >
   <dimension dim="1">type</dimension>
   <field type="int">atomspertype</field>
   <field type="string">element</field>
   <field>mass</field>
   <field>valence</field>
   <field type="string">pseudopotential</field>
   <set>
    <rc><c>  80</c><c>C </c><c>     12.01100000</c><c>      4.00000000</c><c>  PAW_PBE C 08Apr2002                   </c></rc>
    <rc><c>   8</c><c>N </c><c>     14.00100000</c><c>      5.00000000</c><c>  PAW_PBE N 08Apr2002                   </c></rc>
    <rc><c>   2</c><c>H </c><c>      1.00000000</c><c>      1.00000000</c><c>  PAW_PBE H 15Jun2001                   </c></rc>
    <rc><c>   1</c><c>O </c><c>     16.00000000</c><c>      6.00000000</c><c>  PAW_PBE O 08Apr2002                   </c></rc>
   </set>
  </array>
 </atominfo>
 <structure name="initialpos" >
  <crystal>
   <varray name="basis" >
    <v>      17.27103806       0.00000000       0.00000000 </v>
    <v>      -8.63551903      14.95715771       0.00000000 </v>
    <v>       0.00000000       0.00000000      15.00000000 </v>
   </varray>
   <i name="volume">   3874.88459904 </i>
   <varray name="rec_basis" >
    <v>       0.05790040       0.03342881       0.00000000 </v>
    <v>       0.00000000       0.06685762       0.00000000 </v>
    <v>       0.00000000       0.00000000       0.06666667 </v>
   </varray>
  </crystal>
  <varray name="positions" >
   <v>       0.00052282       0.00043085       0.50213732 </v>
   <v>       0.99964813       0.14270282       0.50209187 </v>
   <v>       0.99939924       0.28574218       0.50214201 </v>
   <v>       0.99970500       0.42900610       0.50232951 </v>
   <v>       0.00058597       0.57211923       0.50229211 </v>
   <v>       0.00206186       0.71546280       0.50229664 </v>
   <v>       0.00204698       0.85860979       0.50225940 </v>
   <v>       0.14485789       0.00216345       0.50139105 </v>
   <v>       0.14415192       0.14469838       0.50093938 </v>
   <v>       0.14245739       0.28583743       0.50047799 </v>
   <v>       0.14254206       0.42864450       0.50059339 </v>
   <v>       0.14429785       0.57145758       0.50108745 </v>
   <v>       0.14488178       0.71467998       0.50148396 </v>
   <v>       0.14491515       0.85845975       0.50169196 </v>
   <v>       0.28744849       0.00167894       0.50079088 </v>
   <v>       0.28802021       0.14643026       0.50003458 </v>
   <v>       0.28879422       0.29357387       0.49873469 </v>
   <v>       0.28511778       0.42837831       0.49822174 </v>
   <v>       0.28909377       0.56728991       0.49911588 </v>
   <v>       0.28804285       0.71357773       0.50022614 </v>
   <v>       0.28744690       0.85775008       0.50081959 </v>
   <v>       0.42998394       0.00100033       0.50077423 </v>
   <v>       0.43004533       0.14587128       0.50029344 </v>
   <v>       0.43005260       0.85619665       0.50042529 </v>
   <v>       0.57184318       0.99970705       0.50143094 </v>
   <v>       0.57184395       0.14415546       0.50141970 </v>
   <v>       0.57418349       0.29192329       0.50066511 </v>
   <v>       0.57423075       0.85428628       0.50048076 </v>
   <v>       0.71392638       0.99860748       0.50208627 </v>
   <v>       0.71423848       0.14313220       0.50252498 </v>
   <v>       0.71393000       0.28735418       0.50218868 </v>
   <v>       0.70965132       0.42841080       0.50101439 </v>
   <v>       0.70962105       0.85328296       0.50063868 </v>
   <v>       0.85653894       0.99892548       0.50233711 </v>
   <v>       0.85651592       0.14249554       0.50279317 </v>
   <v>       0.85653640       0.28610248       0.50285611 </v>
   <v>       0.85656548       0.42968362       0.50253635 </v>
   <v>       0.85709998       0.57289799       0.50190083 </v>
   <v>       0.85937920       0.71570683       0.50170146 </v>
   <v>       0.85708195       0.85623819       0.50180271 </v>
   <v>       0.04837499       0.09602042       0.50178111 </v>
   <v>       0.04682666       0.23784112       0.50161039 </v>
   <v>       0.04689656       0.38104745       0.50177429 </v>
   <v>       0.04848037       0.52439586       0.50200754 </v>
   <v>       0.04924969       0.66753378       0.50209628 </v>
   <v>       0.04953369       0.81077264       0.50220856 </v>
   <v>       0.04922030       0.95370817       0.50199286 </v>
   <v>       0.19235539       0.09751653       0.50072617 </v>
   <v>       0.19185831       0.24020895       0.50012411 </v>
   <v>       0.18934115       0.38063401       0.49978840 </v>
   <v>       0.19209854       0.52366875       0.50024051 </v>
   <v>       0.19241318       0.66683252       0.50089542 </v>
   <v>       0.19239095       0.81039108       0.50131496 </v>
   <v>       0.19237765       0.95397413       0.50130240 </v>
   <v>       0.33499473       0.09791617       0.50032776 </v>
   <v>       0.33920028       0.24310729       0.49921292 </v>
   <v>       0.33932830       0.66815331       0.49951647 </v>
   <v>       0.33500647       0.80908199       0.50043645 </v>
   <v>       0.33465774       0.95332753       0.50076758 </v>
   <v>       0.47703037       0.09677315       0.50079879 </v>
   <v>       0.47484842       0.24230238       0.50004607 </v>
   <v>       0.47486605       0.80456051       0.50007097 </v>
   <v>       0.47703472       0.95229238       0.50084194 </v>
   <v>       0.61890582       0.09546342       0.50186551 </v>
   <v>       0.61889668       0.24025318       0.50148999 </v>
   <v>       0.61889800       0.95066889       0.50141838 </v>
   <v>       0.76147029       0.09480748       0.50266486 </v>
   <v>       0.76147315       0.23869829       0.50270292 </v>
   <v>       0.76083917       0.38285630       0.50207671 </v>
   <v>       0.76001601       0.52943421       0.50064975 </v>
   <v>       0.76345299       0.66778405       0.49989803 </v>
   <v>       0.75999725       0.80261738       0.50037518 </v>
   <v>       0.76083733       0.95002160       0.50187126 </v>
   <v>       0.90401714       0.09428892       0.50258470 </v>
   <v>       0.90399829       0.23802395       0.50278479 </v>
   <v>       0.90405040       0.38179178       0.50273918 </v>
   <v>       0.90479674       0.52508427       0.50236090 </v>
   <v>       0.90638158       0.66788050       0.50213200 </v>
   <v>       0.90636189       0.81053871       0.50208190 </v>
   <v>       0.90476361       0.95173899       0.50220378 </v>
   <v>       0.42910414       0.28709158       0.49932895 </v>
   <v>       0.42916218       0.71409271       0.49946282 </v>
   <v>       0.71684866       0.57582747       0.49903666 </v>
   <v>       0.71693902       0.71311691       0.49868397 </v>
   <v>       0.33181913       0.38326502       0.49727743 </v>
   <v>       0.33204739       0.52036109       0.49793815 </v>
   <v>       0.61980498       0.38238932       0.50036198 </v>
   <v>       0.61983839       0.80949469       0.49994557 </v>
   <v>       0.46758127       0.55354377       0.51855112 </v>
   <v>       0.49961523       0.48510509       0.51838529 </v>
   <v>       0.51868485       0.54666290       0.53488797 </v>
  </varray>
  <varray name="selective"  type="logical" >
   <v type="logical" >  T  T  T </v>
   <v type="logical" >  T  T  T </v>
   <v type="logical" >  T  T  T </v>
   <v type="logical" >  T  T  T </v>
   <v type="logical" >  T  T  T </v>
   <v type="logical" >  T  T  T </v>
   <v type="logical" >  T  T  T </v>
   <v type="logical" >  T  T  T </v>
   <v type="logical" >  T  T  T </v>
   <v type="logical" >  T  T  T </v>
   <v type="logical" >  T  T  T </v>
   <v type="logical" >  T  T  T </v>
   <v type="logical" >  T  T  T </v>
   <v type="logical" >  T  T  T </v>
   <v type="logical" >  T  T  T </v>
   <v type="logical" >  T  T  T </v>
   <v type="logical" >  T  T  T </v>
   <v type="logical" >  T  T  T </v>
   <v type="logical" >  T  T  T </v>
   <v type="logical" >  T  T  T </v>
   <v type="logical" >  T  T  T </v>
   <v type="logical" >  T  T  T </v>
   <v type="logical" >  T  T  T </v>
   <v type="logical" >  T  T  T </v>
   <v type="logical" >  T  T  T </v>
   <v type="logical" >  T  T  T </v>
   <v type="logical" >  T  T  T </v>
   <v type="logical" >  T  T  T </v>
   <v type="logical" >  T  T  T </v>
   <v type="logical" >  T  T  T </v>
   <v type="logical" >  T  T  T </v>
   <v type="logical" >  T  T  T </v>
   <v type="logical" >  T  T  T </v>
   <v type="logical" >  T  T  T </v>
   <v type="logical" >  T  T  T </v>
   <v type="logical" >  T  T  T </v>
   <v type="logical" >  T  T  T </v>
   <v type="logical" >  T  T  T </v>
   <v type="logical" >  T  T  T </v>
   <v type="logical" >  T  T  T </v>
   <v type="logical" >  T  T  T </v>
   <v type="logical" >  T  T  T </v>
   <v type="logical" >  T  T  T </v>
   <v type="logical" >  T  T  T </v>
   <v type="logical" >  T  T  T </v>
   <v type="logical" >  T  T  T </v>
   <v type="logical" >  T  T  T </v>
   <v type="logical" >  T  T  T </v>
   <v type="logical" >  T  T  T </v>
   <v type="logical" >  T  T  T </v>
   <v type="logical" >  T  T  T </v>
   <v type="logical" >  T  T  T </v>
   <v type="logical" >  T  T  T </v>
   <v type="logical" >  T  T  T </v>
   <v type="logical" >  T  T  T </v>
   <v type="logical" >  T  T  T </v>
   <v type="logical" >  T  T  T </v>
   <v type="logical" >  T  T  T </v>
   <v type="logical" >  T  T  T </v>
   <v type="logical" >  T  T  T </v>
   <v type="logical" >  T  T  T </v>
   <v type="logical" >  T  T  T </v>
   <v type="logical" >  T  T  T </v>
   <v type="logical" >  T  T  T </v>
   <v type="logical" >  T  T  T </v>
   <v type="logical" >  T  T  T </v>
   <v type="logical" >  T  T  T </v>
   <v type="logical" >  T  T  T </v>
   <v type="logical" >  T  T  T </v>
   <v type="logical" >  T  T  T </v>
   <v type="logical" >  T  T  T </v>
   <v type="logical" >  T  T  T </v>
   <v type="logical" >  T  T  T </v>
   <v type="logical" >  T  T  T </v>
   <v type="logical" >  T  T  T </v>
   <v type="logical" >  T  T  T </v>
   <v type="logical" >  T  T  T </v>
   <v type="logical" >  T  T  T </v>
   <v type="logical" >  T  T  T </v>
   <v type="logical" >  T  T  T </v>
   <v type="logical" >  T  T  T </v>
   <v type="logical" >  T  T  T </v>
   <v type="logical" >  T  T  T </v>
   <v type="logical" >  T  T  T </v>
   <v type="logical" >  T  T  T </v>
   <v type="logical" >  T  T  T </v>
   <v type="logical" >  T  T  T </v>
   <v type="logical" >  T  T  T </v>
   <v type="logical" >  T  T  T </v>
   <v type="logical" >  T  T  T </v>
   <v type="logical" >  T  T  F </v>
  </varray>
  <nose>
   <v>      -3.00000000       0.00000000       0.00010000       0.00010000 </v>
  </nose>
 </structure>
 <calculation>
  <scstep>
   <time name="dav">   33.72   34.72</time>
   <time name="total">   35.45   36.55</time>
   <energy>
    <i name="alphaZ">    175.06488379 </i>
    <i name="ewald">  36476.00252330 </i>
    <i name="hartreedc"> -47299.75101378 </i>
    <i name="XCdc">   1240.51197204 </i>
    <i name="pawpsdc">  10672.04303313 </i>
    <i name="pawaedc"> -10728.93979680 </i>
    <i name="eentropy">     -0.04092108 </i>
    <i name="bandstr">  -1379.46548613 </i>
    <i name="atom">  14345.53195627 </i>
    <i name="e_fr_energy">   3500.95715073 </i>
    <i name="e_wo_entrp">   3500.99807182 </i>
    <i name="e_0_energy">   3500.97761128 </i>
   </energy>
  </scstep>
  <scstep>
   <time name="dav">   46.15   47.57</time>
   <time name="total">   46.16   47.60</time>
   <energy>
    <i name="e_fr_energy">   -166.57516400 </i>
    <i name="e_wo_entrp">   -166.57516198 </i>
    <i name="e_0_energy">   -166.57516299 </i>
   </energy>
  </scstep>
  <scstep>
   <time name="dav">   38.05   39.34</time>
   <time name="total">   38.05   39.37</time>
   <energy>
    <i name="e_fr_energy">   -841.69676700 </i>
    <i name="e_wo_entrp">   -841.69676672 </i>
    <i name="e_0_energy">   -841.69676686 </i>
   </energy>
  </scstep>
  <scstep>
   <time name="dav">   38.65   39.84</time>
   <time name="total">   38.65   39.87</time>
   <energy>
    <i name="e_fr_energy">   -865.64750220 </i>
    <i name="e_wo_entrp">   -865.64750182 </i>
    <i name="e_0_energy">   -865.64750201 </i>
   </energy>
  </scstep>
  <scstep>
   <time name="dav">   43.25   44.62</time>
   <time name="total">   46.03   47.51</time>
   <energy>
    <i name="e_fr_energy">   -866.38181362 </i>
    <i name="e_wo_entrp">   -866.38181324 </i>
    <i name="e_0_energy">   -866.38181343 </i>
   </energy>
  </scstep>
  <scstep>
   <time name="dav">   37.09   38.07</time>
   <time name="total">   41.90   43.15</time>
   <energy>
    <i name="e_fr_energy">   -837.58191499 </i>
    <i name="e_wo_entrp">   -837.58191493 </i>
    <i name="e_0_energy">   -837.58191496 </i>
   </energy>
  </scstep>
  <scstep>
   <time name="dav">   36.89   37.96</time>
   <time name="total">   41.81   43.18</time>
   <energy>
    <i name="e_fr_energy">   -814.02406536 </i>
    <i name="e_wo_entrp">   -814.01304233 </i>
    <i name="e_0_energy">   -814.01855385 </i>
   </energy>
  </scstep>
  <scstep>
   <time name="dav">   36.78   37.93</time>
   <time name="total">   41.64   43.00</time>
   <energy>
    <i name="e_fr_energy">   -813.21184560 </i>
    <i name="e_wo_entrp">   -813.21184546 </i>
    <i name="e_0_energy">   -813.21184553 </i>
   </energy>
  </scstep>
  <scstep>
   <time name="dav">   36.09   37.09</time>
   <time name="total">   40.80   42.04</time>
   <energy>
    <i name="e_fr_energy">   -813.47614603 </i>
    <i name="e_wo_entrp">   -813.47614585 </i>
    <i name="e_0_energy">   -813.47614594 </i>
   </energy>
  </scstep>
  <scstep>
   <time name="dav">   34.95   35.92</time>
   <time name="total">   39.83   40.98</time>
   <energy>
    <i name="e_fr_energy">   -813.32775325 </i>
    <i name="e_wo_entrp">   -813.32775314 </i>
    <i name="e_0_energy">   -813.32775319 </i>
   </energy>
  </scstep>
  <scstep>
   <time name="dav">   36.50   37.36</time>
   <time name="total">   41.40   42.48</time>
   <energy>
    <i name="e_fr_energy">   -813.05136800 </i>
    <i name="e_wo_entrp">   -813.05136790 </i>
    <i name="e_0_energy">   -813.05136795 </i>
   </energy>
  </scstep>
  <scstep>
   <time name="dav">   36.89   37.81</time>
   <time name="total">   41.84   42.93</time>
   <energy>
    <i name="e_fr_energy">   -812.99863134 </i>
    <i name="e_wo_entrp">   -812.99863123 </i>
    <i name="e_0_energy">   -812.99863129 </i>
   </energy>
  </scstep>
  <scstep>
   <time name="dav">   40.91   41.94</time>
   <time name="total">   45.82   47.08</time>
   <energy>
    <i name="e_fr_energy">   -812.93903755 </i>
    <i name="e_wo_entrp">   -812.93903745 </i>
    <i name="e_0_energy">   -812.93903750 </i>
   </energy>
  </scstep>
  <scstep>
   <time name="dav">   37.53   38.51</time>
   <time name="total">   42.34   43.62</time>
   <energy>
    <i name="e_fr_energy">   -812.92545179 </i>
    <i name="e_wo_entrp">   -812.92545169 </i>
    <i name="e_0_energy">   -812.92545174 </i>
   </energy>
  </scstep>
  <scstep>
   <time name="dav">   37.16   38.11</time>
   <time name="total">   42.07   43.22</time>
   <energy>
    <i name="e_fr_energy">   -812.92663958 </i>
    <i name="e_wo_entrp">   -812.92663948 </i>
    <i name="e_0_energy">   -812.92663953 </i>
   </energy>
  </scstep>
  <scstep>
   <time name="dav">   38.62   39.67</time>
   <time name="total">   43.63   44.90</time>
   <energy>
    <i name="e_fr_energy">   -812.86316653 </i>
    <i name="e_wo_entrp">   -812.86316643 </i>
    <i name="e_0_energy">   -812.86316648 </i>
   </energy>
  </scstep>
  <scstep>
   <time name="dav">   40.16   41.12</time>
   <time name="total">   45.30   46.56</time>
   <energy>
    <i name="e_fr_energy">   -812.73634010 </i>
    <i name="e_wo_entrp">   -812.73634003 </i>
    <i name="e_0_energy">   -812.73634006 </i>
   </energy>
  </scstep>
  <scstep>
   <time name="dav">   38.62   39.59</time>
   <time name="total">   43.47   44.60</time>
   <energy>
    <i name="e_fr_energy">   -812.70926904 </i>
    <i name="e_wo_entrp">   -812.70926896 </i>
    <i name="e_0_energy">   -812.70926900 </i>
   </energy>
  </scstep>
  <scstep>
   <time name="dav">   39.68   40.68</time>
   <time name="total">   44.76   45.94</time>
   <energy>
    <i name="e_fr_energy">   -812.69288715 </i>
    <i name="e_wo_entrp">   -812.68961263 </i>
    <i name="e_0_energy">   -812.69124989 </i>
   </energy>
  </scstep>
  <scstep>
   <time name="dav">   37.25   38.14</time>
   <time name="total">   42.10   43.18</time>
   <energy>
    <i name="e_fr_energy">   -812.69335030 </i>
    <i name="e_wo_entrp">   -812.68662348 </i>
    <i name="e_0_energy">   -812.68998689 </i>
   </energy>
  </scstep>
  <scstep>
   <time name="dav">   38.51   39.44</time>
   <time name="total">   43.59   44.70</time>
   <energy>
    <i name="e_fr_energy">   -812.69454446 </i>
    <i name="e_wo_entrp">   -812.69389518 </i>
    <i name="e_0_energy">   -812.69421982 </i>
   </energy>
  </scstep>
  <scstep>
   <time name="dav">   37.00   37.85</time>
   <time name="total">   41.50   42.53</time>
   <energy>
    <i name="e_fr_energy">   -812.69689749 </i>
    <i name="e_wo_entrp">   -812.67800290 </i>
    <i name="e_0_energy">   -812.68745019 </i>
   </energy>
  </scstep>
  <scstep>
   <time name="dav">   32.91   33.50</time>
   <time name="total">   37.39   38.13</time>
   <energy>
    <i name="e_fr_energy">   -812.69285159 </i>
    <i name="e_wo_entrp">   -812.69187749 </i>
    <i name="e_0_energy">   -812.69236454 </i>
   </energy>
  </scstep>
  <scstep>
   <time name="dav">   31.45   32.10</time>
   <time name="total">   36.00   36.76</time>
   <energy>
    <i name="e_fr_energy">   -812.69390603 </i>
    <i name="e_wo_entrp">   -812.69271842 </i>
    <i name="e_0_energy">   -812.69331222 </i>
   </energy>
  </scstep>
  <scstep>
   <time name="dav">   35.08   35.69</time>
   <time name="total">   39.47   40.22</time>
   <energy>
    <i name="e_fr_energy">   -812.69397618 </i>
    <i name="e_wo_entrp">   -812.69306840 </i>
    <i name="e_0_energy">   -812.69352229 </i>
   </energy>
  </scstep>
  <scstep>
   <time name="dav">   34.47   35.05</time>
   <time name="total">   38.74   39.47</time>
   <energy>
    <i name="e_fr_energy">   -812.69323102 </i>
    <i name="e_wo_entrp">   -812.69101227 </i>
    <i name="e_0_energy">   -812.69212165 </i>
   </energy>
  </scstep>
  <scstep>
   <time name="dav">   37.31   38.17</time>
   <time name="total">   41.73   42.73</time>
   <energy>
    <i name="e_fr_energy">   -812.69303040 </i>
    <i name="e_wo_entrp">   -812.68899149 </i>
    <i name="e_0_energy">   -812.69101094 </i>
   </energy>
  </scstep>
  <scstep>
   <time name="dav">   30.88   31.44</time>
   <time name="total">   35.00   35.77</time>
   <energy>
    <i name="e_fr_energy">   -812.69312205 </i>
    <i name="e_wo_entrp">   -812.68918911 </i>
    <i name="e_0_energy">   -812.69115558 </i>
   </energy>
  </scstep>
  <scstep>
   <time name="dav">   28.78   29.22</time>
   <time name="total">   33.29   33.85</time>
   <energy>
    <i name="e_fr_energy">   -812.69311063 </i>
    <i name="e_wo_entrp">   -812.68864858 </i>
    <i name="e_0_energy">   -812.69087960 </i>
   </energy>
  </scstep>
  <scstep>
   <time name="dav">   27.25   27.76</time>
   <time name="total">   31.55   32.22</time>
   <energy>
    <i name="e_fr_energy">   -812.69311484 </i>
    <i name="e_wo_entrp">   -812.68844399 </i>
    <i name="e_0_energy">   -812.69077941 </i>
   </energy>
  </scstep>
  <scstep>
   <time name="dav">   27.67   28.17</time>
   <time name="total">   32.06   32.72</time>
   <energy>
    <i name="e_fr_energy">   -812.69312199 </i>
    <i name="e_wo_entrp">   -812.68892674 </i>
    <i name="e_0_energy">   -812.69102436 </i>
   </energy>
  </scstep>
  <scstep>
   <time name="dav">   28.22   28.78</time>
   <time name="total">   32.75   33.45</time>
   <energy>
    <i name="e_fr_energy">   -812.69311148 </i>
    <i name="e_wo_entrp">   -812.68863256 </i>
    <i name="e_0_energy">   -812.69087202 </i>
   </energy>
  </scstep>
  <scstep>
   <time name="dav">   27.15   27.60</time>
   <time name="total">   28.86   29.40</time>
   <energy>
    <i name="alphaZ">    175.06488379 </i>
    <i name="ewald">  36476.00252330 </i>
    <i name="hartreedc"> -48683.74906048 </i>
    <i name="XCdc">   1292.92833836 </i>
    <i name="pawpsdc">  37081.06844955 </i>
    <i name="pawaedc"> -37148.52623820 </i>
    <i name="eentropy">     -0.00457774 </i>
    <i name="bandstr">  -4351.00938704 </i>
    <i name="atom">  14345.53195627 </i>
    <i name="e_fr_energy">   -812.69311219 </i>
    <i name="e_wo_entrp">   -812.68853445 </i>
    <i name="e_0_energy">   -812.69082332 </i>
   </energy>
  </scstep>
  <structure>
   <crystal>
    <varray name="basis" >
     <v>      17.27103806       0.00000000       0.00000000 </v>
     <v>      -8.63551903      14.95715771       0.00000000 </v>
     <v>       0.00000000       0.00000000      15.00000000 </v>
    </varray>
    <i name="volume">   3874.88459904 </i>
    <varray name="rec_basis" >
     <v>       0.05790040       0.03342881       0.00000000 </v>
     <v>       0.00000000       0.06685762       0.00000000 </v>
     <v>       0.00000000       0.00000000       0.06666667 </v>
    </varray>
   </crystal>
   <varray name="positions" >
    <v>       0.00052282       0.00043085       0.50213732 </v>
    <v>       0.99964813       0.14270282       0.50209187 </v>
    <v>       0.99939924       0.28574218       0.50214201 </v>
    <v>       0.99970500       0.42900610       0.50232951 </v>
    <v>       0.00058597       0.57211923       0.50229211 </v>
    <v>       0.00206186       0.71546280       0.50229664 </v>
    <v>       0.00204698       0.85860979       0.50225940 </v>
    <v>       0.14485789       0.00216345       0.50139105 </v>
    <v>       0.14415192       0.14469838       0.50093938 </v>
    <v>       0.14245739       0.28583743       0.50047799 </v>
    <v>       0.14254206       0.42864450       0.50059339 </v>
    <v>       0.14429785       0.57145758       0.50108745 </v>
    <v>       0.14488178       0.71467998       0.50148396 </v>
    <v>       0.14491515       0.85845975       0.50169196 </v>
    <v>       0.28744849       0.00167894       0.50079088 </v>
    <v>       0.28802021       0.14643026       0.50003458 </v>
    <v>       0.28879422       0.29357387       0.49873469 </v>
    <v>       0.28511778       0.42837831       0.49822174 </v>
    <v>       0.28909377       0.56728991       0.49911588 </v>
    <v>       0.28804285       0.71357773       0.50022614 </v>
    <v>       0.28744690       0.85775008       0.50081959 </v>
    <v>       0.42998394       0.00100033       0.50077423 </v>
    <v>       0.43004533       0.14587128       0.50029344 </v>
    <v>       0.43005260       0.85619665       0.50042529 </v>
    <v>       0.57184318       0.99970705       0.50143094 </v>
    <v>       0.57184395       0.14415546       0.50141970 </v>
    <v>       0.57418349       0.29192329       0.50066511 </v>
    <v>       0.57423075       0.85428628       0.50048076 </v>
    <v>       0.71392638       0.99860748       0.50208627 </v>
    <v>       0.71423848       0.14313220       0.50252498 </v>
    <v>       0.71393000       0.28735418       0.50218868 </v>
    <v>       0.70965132       0.42841080       0.50101439 </v>
    <v>       0.70962105       0.85328296       0.50063868 </v>
    <v>       0.85653894       0.99892548       0.50233711 </v>
    <v>       0.85651592       0.14249554       0.50279317 </v>
    <v>       0.85653640       0.28610248       0.50285611 </v>
    <v>       0.85656548       0.42968362       0.50253635 </v>
    <v>       0.85709998       0.57289799       0.50190083 </v>
    <v>       0.85937920       0.71570683       0.50170146 </v>
    <v>       0.85708195       0.85623819       0.50180271 </v>
    <v>       0.04837499       0.09602042       0.50178111 </v>
    <v>       0.04682666       0.23784112       0.50161039 </v>
    <v>       0.04689656       0.38104745       0.50177429 </v>
    <v>       0.04848037       0.52439586       0.50200754 </v>
    <v>       0.04924969       0.66753378       0.50209628 </v>
    <v>       0.04953369       0.81077264       0.50220856 </v>
    <v>       0.04922030       0.95370817       0.50199286 </v>
    <v>       0.19235539       0.09751653       0.50072617 </v>
    <v>       0.19185831       0.24020895       0.50012411 </v>
    <v>       0.18934115       0.38063401       0.49978840 </v>
    <v>       0.19209854       0.52366875       0.50024051 </v>
    <v>       0.19241318       0.66683252       0.50089542 </v>
    <v>       0.19239095       0.81039108       0.50131496 </v>
    <v>       0.19237765       0.95397413       0.50130240 </v>
    <v>       0.33499473       0.09791617       0.50032776 </v>
    <v>       0.33920028       0.24310729       0.49921292 </v>
    <v>       0.33932830       0.66815331       0.49951647 </v>
    <v>       0.33500647       0.80908199       0.50043645 </v>
    <v>       0.33465774       0.95332753       0.50076758 </v>
    <v>       0.47703037       0.09677315       0.50079879 </v>
    <v>       0.47484842       0.24230238       0.50004607 </v>
    <v>       0.47486605       0.80456051       0.50007097 </v>
    <v>       0.47703472       0.95229238       0.50084194 </v>
    <v>       0.61890582       0.09546342       0.50186551 </v>
    <v>       0.61889668       0.24025318       0.50148999 </v>
    <v>       0.61889800       0.95066889       0.50141838 </v>
    <v>       0.76147029       0.09480748       0.50266486 </v>
    <v>       0.76147315       0.23869829       0.50270292 </v>
    <v>       0.76083917       0.38285630       0.50207671 </v>
    <v>       0.76001601       0.52943421       0.50064975 </v>
    <v>       0.76345299       0.66778405       0.49989803 </v>
    <v>       0.75999725       0.80261738       0.50037518 </v>
    <v>       0.76083733       0.95002160       0.50187126 </v>
    <v>       0.90401714       0.09428892       0.50258470 </v>
    <v>       0.90399829       0.23802395       0.50278479 </v>
    <v>       0.90405040       0.38179178       0.50273918 </v>
    <v>       0.90479674       0.52508427       0.50236090 </v>
    <v>       0.90638158       0.66788050       0.50213200 </v>
    <v>       0.90636189       0.81053871       0.50208190 </v>
    <v>       0.90476361       0.95173899       0.50220378 </v>
    <v>       0.42910414       0.28709158       0.49932895 </v>
    <v>       0.42916218       0.71409271       0.49946282 </v>
    <v>       0.71684866       0.57582747       0.49903666 </v>
    <v>       0.71693902       0.71311691       0.49868397 </v>
    <v>       0.33181913       0.38326502       0.49727743 </v>
    <v>       0.33204739       0.52036109       0.49793815 </v>
    <v>       0.61980498       0.38238932       0.50036198 </v>
    <v>       0.61983839       0.80949469       0.49994557 </v>
    <v>       0.46758127       0.55354377       0.51855112 </v>
    <v>       0.49961523       0.48510509       0.51838529 </v>
    <v>       0.51868485       0.54666290       0.53488797 </v>
   </varray>
  </structure>
  <varray name="forces" >
   <v>       0.00015132       0.00124206       0.00009335 </v>
   <v>       0.00148150       0.00113297       0.00036341 </v>
   <v>       0.00501143      -0.00660090       0.00057534 </v>
   <v>       0.00235338      -0.00447928       0.00059918 </v>
   <v>      -0.00214302       0.00117253       0.00001122 </v>
   <v>      -0.00437311       0.00352217      -0.00125206 </v>
   <v>       0.00016287       0.00112532      -0.00042571 </v>
   <v>       0.00119447      -0.00530282       0.00096586 </v>
   <v>      -0.00255180       0.00165325       0.00061627 </v>
   <v>       0.00169583      -0.00389574       0.00026499 </v>
   <v>       0.00899214      -0.00630592       0.00069862 </v>
   <v>       0.00523603       0.00151084      -0.00152356 </v>
   <v>       0.00054802       0.00388025      -0.00077559 </v>
   <v>      -0.00046266       0.00146779       0.00020107 </v>
   <v>      -0.00185214      -0.00116040      -0.00073311 </v>
   <v>      -0.00035170      -0.00110385      -0.00007510 </v>
   <v>      -0.00166472       0.00283865       0.00024856 </v>
   <v>       0.00109773      -0.00257850       0.00010210 </v>
   <v>       0.00682602      -0.00291295       0.00012186 </v>
   <v>       0.00109587       0.00738624      -0.00114584 </v>
   <v>       0.00185174       0.00142185      -0.00126456 </v>
   <v>      -0.00123645      -0.00087928      -0.00218674 </v>
   <v>      -0.00011371      -0.00090530      -0.00264906 </v>
   <v>       0.00019399       0.00018468      -0.00176259 </v>
   <v>      -0.00121618      -0.00120722      -0.00211538 </v>
   <v>      -0.00124769      -0.00004588      -0.00264600 </v>
   <v>      -0.00023592       0.00026878      -0.00295399 </v>
   <v>      -0.00331700      -0.00265876      -0.00192717 </v>
   <v>       0.00552755       0.00421594      -0.00269508 </v>
   <v>       0.00184075      -0.00001671      -0.00117015 </v>
   <v>       0.00037321       0.00008936      -0.00106326 </v>
   <v>      -0.00111837      -0.00108493      -0.00047225 </v>
   <v>       0.00148582      -0.00137831      -0.00263411 </v>
   <v>       0.00338933       0.00274885      -0.00123901 </v>
   <v>       0.01655733       0.00185599      -0.00015520 </v>
   <v>       0.00429166      -0.00170641       0.00026492 </v>
   <v>      -0.00091717      -0.00126208       0.00010180 </v>
   <v>      -0.00084785       0.00186942      -0.00067244 </v>
   <v>       0.00019465       0.00128762      -0.00080512 </v>
   <v>       0.00197071       0.00152794      -0.00251646 </v>
   <v>       0.00145455      -0.00161879       0.00039778 </v>
   <v>      -0.00274157       0.00253032       0.00051130 </v>
   <v>      -0.00570952       0.00696445       0.00041215 </v>
   <v>      -0.00099567       0.00019273       0.00023877 </v>
   <v>       0.00269249      -0.00407866      -0.00044237 </v>
   <v>       0.00227058      -0.00253960      -0.00015332 </v>
   <v>       0.00038336       0.00043337       0.00032518 </v>
   <v>       0.00235923       0.00248231       0.00064467 </v>
   <v>      -0.00008955      -0.00043380       0.00077155 </v>
   <v>      -0.00559418       0.00673878      -0.00018501 </v>
   <v>      -0.00629034       0.00297604       0.00010800 </v>
   <v>      -0.00096911      -0.00448376      -0.00073012 </v>
   <v>      -0.00219107      -0.00205455      -0.00178081 </v>
   <v>       0.00346601       0.00133542      -0.00056577 </v>
   <v>       0.00071332       0.00173107      -0.00116582 </v>
   <v>       0.00241597       0.00072961      -0.00077345 </v>
   <v>      -0.00313564      -0.00577496      -0.00197591 </v>
   <v>      -0.00132233      -0.00335804      -0.00135438 </v>
   <v>       0.00065250       0.00046889      -0.00175691 </v>
   <v>       0.00171773       0.00133179      -0.00263145 </v>
   <v>       0.00065555       0.00020262      -0.00307710 </v>
   <v>       0.00127106       0.00046703      -0.00235350 </v>
   <v>       0.00240041       0.00049339      -0.00201792 </v>
   <v>       0.00082438      -0.00071731      -0.00197749 </v>
   <v>       0.00133546      -0.00125472      -0.00258945 </v>
   <v>       0.00023861      -0.00091668      -0.00111028 </v>
   <v>      -0.00761601      -0.00545291      -0.00080364 </v>
   <v>      -0.00139350      -0.00149717      -0.00054119 </v>
   <v>       0.00154339      -0.00079322      -0.00026635 </v>
   <v>      -0.00024327       0.00037685      -0.00045022 </v>
   <v>       0.00012016      -0.00057554      -0.00118984 </v>
   <v>       0.00016182      -0.00253859      -0.00272202 </v>
   <v>      -0.00519342       0.00046357      -0.00276891 </v>
   <v>      -0.00695523      -0.00194527      -0.00020213 </v>
   <v>      -0.00655808       0.00089966       0.00046130 </v>
   <v>      -0.00018169       0.00162070       0.00046035 </v>
   <v>       0.00311609       0.00017782      -0.00002223 </v>
   <v>       0.00238478      -0.00215230      -0.00055856 </v>
   <v>      -0.00125379       0.00011606      -0.00020011 </v>
   <v>       0.00010901      -0.00220914      -0.00142723 </v>
   <v>      -0.00076817      -0.00036093      -0.00222593 </v>
   <v>       0.00180458       0.00216186      -0.00220719 </v>
   <v>       0.00105152      -0.00094825      -0.00046583 </v>
   <v>       0.00038753       0.00090595      -0.00218829 </v>
   <v>       0.00020521      -0.00171040      -0.00043104 </v>
   <v>      -0.00514634       0.00421868      -0.00151192 </v>
   <v>       0.00132931       0.00008565      -0.00174277 </v>
   <v>      -0.00033346       0.00002903      -0.00284429 </v>
   <v>       0.00381028       0.00464566      -0.00077488 </v>
   <v>      -0.01475181       0.00481027       0.00048101 </v>
   <v>      -0.01131494       0.00090774       0.07900456 </v>
  </varray>
  <varray name="stress" >
   <v>     -12.26737306       4.32975937      -0.01873081 </v>
   <v>       4.32975919     -16.92782894       0.00246969 </v>
   <v>      -0.01873107       0.00246923      -0.28291102 </v>
  </varray>
  <energy>
   <i name="e_fr_energy">   -820.06571845 </i>
   <i name="e_wo_entrp">   -820.06114071 </i>
   <i name="e_0_energy">   -820.06342958 </i>
  </energy>
  <time name="totalsc"> 1647.10 1687.41</time>
  <eigenvalues>
   <array>
    <dimension dim="1">band</dimension>
    <dimension dim="2">kpoint</dimension>
    <dimension dim="3">spin</dimension>
    <field>eigene</field>
    <field>occ</field>
    <set>
     <set comment="spin 1">
      <set comment="kpoint 1">
       <r>  -22.8570    1.0000 </r>
       <r>  -22.6903    1.0000 </r>
       <r>  -22.5698    1.0000 </r>
       <r>  -22.4274    1.0000 </r>
       <r>  -22.2186    1.0000 </r>
       <r>  -22.0803    1.0000 </r>
       <r>  -21.9460    1.0000 </r>
       <r>  -21.5962    1.0000 </r>
       <r>  -21.5611    1.0000 </r>
       <r>  -21.4664    1.0000 </r>
       <r>  -21.4057    1.0000 </r>
       <r>  -21.1238    1.0000 </r>
       <r>  -21.0556    1.0000 </r>
       <r>  -21.0169    1.0000 </r>
       <r>  -20.8803    1.0000 </r>
       <r>  -20.6695    1.0000 </r>
       <r>  -20.5505    1.0000 </r>
       <r>  -20.4246    1.0000 </r>
       <r>  -20.2450    1.0000 </r>
       <r>  -20.1173    1.0000 </r>
       <r>  -20.0601    1.0000 </r>
       <r>  -19.6198    1.0000 </r>
       <r>  -19.5841    1.0000 </r>
       <r>  -19.0864    1.0000 </r>
       <r>  -18.9704    1.0000 </r>
       <r>  -18.9430    1.0000 </r>
       <r>  -18.9346    1.0000 </r>
       <r>  -18.9235    1.0000 </r>
       <r>  -18.8538    1.0000 </r>
       <r>  -18.7040    1.0000 </r>
       <r>  -18.5434    1.0000 </r>
       <r>  -18.3394    1.0000 </r>
       <r>  -18.1944    1.0000 </r>
       <r>  -18.1687    1.0000 </r>
       <r>  -17.9318    1.0000 </r>
       <r>  -17.7478    1.0000 </r>
       <r>  -17.3908    1.0000 </r>
       <r>  -17.1860    1.0000 </r>
       <r>  -17.0649    1.0000 </r>
       <r>  -17.0392    1.0000 </r>
       <r>  -16.9145    1.0000 </r>
       <r>  -16.8577    1.0000 </r>
       <r>  -16.7879    1.0000 </r>
       <r>  -16.7762    1.0000 </r>
       <r>  -16.7662    1.0000 </r>
       <r>  -16.1821    1.0000 </r>
       <r>  -16.0303    1.0000 </r>
       <r>  -15.7910    1.0000 </r>
       <r>  -15.5453    1.0000 </r>
       <r>  -15.4882    1.0000 </r>
       <r>  -15.4219    1.0000 </r>
       <r>  -15.1423    1.0000 </r>
       <r>  -15.1151    1.0000 </r>
       <r>  -14.9762    1.0000 </r>
       <r>  -14.9497    1.0000 </r>
       <r>  -14.8712    1.0000 </r>
       <r>  -14.7945    1.0000 </r>
       <r>  -14.6692    1.0000 </r>
       <r>  -14.5510    1.0000 </r>
       <r>  -14.2334    1.0000 </r>
       <r>  -13.9795    1.0000 </r>
       <r>  -13.7620    1.0000 </r>
       <r>  -13.5929    1.0000 </r>
       <r>  -13.3146    1.0000 </r>
       <r>  -13.2698    1.0000 </r>
       <r>  -13.1382    1.0000 </r>
       <r>  -13.0657    1.0000 </r>
       <r>  -13.0205    1.0000 </r>
       <r>  -12.9187    1.0000 </r>
       <r>  -12.9106    1.0000 </r>
       <r>  -12.7888    1.0000 </r>
       <r>  -12.6923    1.0000 </r>
       <r>  -12.6917    1.0000 </r>
       <r>  -12.6585    1.0000 </r>
       <r>  -12.5813    1.0000 </r>
       <r>  -12.2095    1.0000 </r>
       <r>  -12.1545    1.0000 </r>
       <r>  -11.8599    1.0000 </r>
       <r>  -11.6690    1.0000 </r>
       <r>  -11.6678    1.0000 </r>
       <r>  -11.5935    1.0000 </r>
       <r>  -11.4665    1.0000 </r>
       <r>  -10.9376    1.0000 </r>
       <r>  -10.8910    1.0000 </r>
       <r>  -10.7614    1.0000 </r>
       <r>  -10.7258    1.0000 </r>
       <r>  -10.6001    1.0000 </r>
       <r>  -10.5942    1.0000 </r>
       <r>  -10.4425    1.0000 </r>
       <r>  -10.4022    1.0000 </r>
       <r>  -10.3826    1.0000 </r>
       <r>  -10.3718    1.0000 </r>
       <r>  -10.3184    1.0000 </r>
       <r>  -10.2702    1.0000 </r>
       <r>  -10.1651    1.0000 </r>
       <r>  -10.1265    1.0000 </r>
       <r>  -10.0793    1.0000 </r>
       <r>  -10.0282    1.0000 </r>
       <r>   -9.9805    1.0000 </r>
       <r>   -9.9437    1.0000 </r>
       <r>   -9.9218    1.0000 </r>
       <r>   -9.8928    1.0000 </r>
       <r>   -9.8611    1.0000 </r>
       <r>   -9.8195    1.0000 </r>
       <r>   -9.7922    1.0000 </r>
       <r>   -9.7762    1.0000 </r>
       <r>   -9.7579    1.0000 </r>
       <r>   -9.6649    1.0000 </r>
       <r>   -9.6450    1.0000 </r>
       <r>   -9.6068    1.0000 </r>
       <r>   -9.2520    1.0000 </r>
       <r>   -9.1961    1.0000 </r>
       <r>   -9.1940    1.0000 </r>
       <r>   -9.1665    1.0000 </r>
       <r>   -9.1486    1.0000 </r>
       <r>   -8.9380    1.0000 </r>
       <r>   -8.8545    1.0000 </r>
       <r>   -8.8031    1.0000 </r>
       <r>   -8.7460    1.0000 </r>
       <r>   -8.7231    1.0000 </r>
       <r>   -8.7096    1.0000 </r>
       <r>   -8.6280    1.0000 </r>
       <r>   -8.6164    1.0000 </r>
       <r>   -8.5952    1.0000 </r>
       <r>   -8.5448    1.0000 </r>
       <r>   -8.5037    1.0000 </r>
       <r>   -8.4997    1.0000 </r>
       <r>   -8.4597    1.0000 </r>
       <r>   -8.3812    1.0000 </r>
       <r>   -8.3760    1.0000 </r>
       <r>   -8.3241    1.0000 </r>
       <r>   -8.2854    1.0000 </r>
       <r>   -8.2639    1.0000 </r>
       <r>   -8.1092    1.0000 </r>
       <r>   -8.0616    1.0000 </r>
       <r>   -7.9489    1.0000 </r>
       <r>   -7.9372    1.0000 </r>
       <r>   -7.9151    1.0000 </r>
       <r>   -7.7427    1.0000 </r>
       <r>   -7.7145    1.0000 </r>
       <r>   -7.5540    1.0000 </r>
       <r>   -7.4881    1.0000 </r>
       <r>   -7.2956    1.0000 </r>
       <r>   -7.1534    1.0000 </r>
       <r>   -7.0825    1.0000 </r>
       <r>   -6.9763    1.0000 </r>
       <r>   -6.9675    1.0000 </r>
       <r>   -6.8271    1.0000 </r>
       <r>   -6.7599    1.0000 </r>
       <r>   -6.6930    1.0000 </r>
       <r>   -6.5961    1.0000 </r>
       <r>   -6.5725    1.0000 </r>
       <r>   -6.5164    1.0000 </r>
       <r>   -6.5064    1.0000 </r>
       <r>   -6.3668    1.0000 </r>
       <r>   -6.2884    1.0000 </r>
       <r>   -6.2734    1.0000 </r>
       <r>   -6.2716    1.0000 </r>
       <r>   -6.2287    1.0000 </r>
       <r>   -5.9561    1.0000 </r>
       <r>   -5.8485    1.0000 </r>
       <r>   -5.8274    1.0000 </r>
       <r>   -5.6654    1.0000 </r>
       <r>   -5.4115    1.0000 </r>
       <r>   -5.3756    1.0000 </r>
       <r>   -5.1606    1.0000 </r>
       <r>   -4.9506    1.0000 </r>
       <r>   -4.8225    1.0000 </r>
       <r>   -4.7289    1.0000 </r>
       <r>   -4.7018    1.0000 </r>
       <r>   -4.6259    1.0000 </r>
       <r>   -4.5604    1.0000 </r>
       <r>   -4.5415    1.0000 </r>
       <r>   -4.5278    1.0000 </r>
       <r>   -4.4633    1.0000 </r>
       <r>   -4.4178    1.0000 </r>
       <r>   -4.3932    1.0000 </r>
       <r>   -4.3214    1.0000 </r>
       <r>   -4.3134    1.0000 </r>
       <r>   -4.1846    1.0000 </r>
       <r>   -4.0928    1.0000 </r>
       <r>   -4.0641    1.0000 </r>
       <r>   -3.8571    1.0000 </r>
       <r>   -3.0638    0.9875 </r>
       <r>   -2.5029    0.0000 </r>
       <r>   -1.8705    0.0000 </r>
       <r>   -1.8019    0.0000 </r>
       <r>   -1.4396    0.0000 </r>
       <r>   -1.3519    0.0000 </r>
       <r>   -1.3275    0.0000 </r>
       <r>   -1.3126    0.0000 </r>
       <r>   -1.2529    0.0000 </r>
       <r>   -1.2463    0.0000 </r>
       <r>   -0.9904    0.0000 </r>
       <r>   -0.8672    0.0000 </r>
       <r>   -0.6710    0.0000 </r>
       <r>   -0.5263    0.0000 </r>
       <r>   -0.3503    0.0000 </r>
       <r>   -0.2336    0.0000 </r>
       <r>    0.1932    0.0000 </r>
       <r>    0.2660    0.0000 </r>
       <r>    0.3803    0.0000 </r>
       <r>    0.6758    0.0000 </r>
       <r>    0.6918    0.0000 </r>
       <r>    0.9101    0.0000 </r>
       <r>    1.0131    0.0000 </r>
       <r>    1.0349    0.0000 </r>
       <r>    1.1047    0.0000 </r>
       <r>    1.1369    0.0000 </r>
       <r>    1.1443    0.0000 </r>
       <r>    1.1890    0.0000 </r>
       <r>    1.2118    0.0000 </r>
       <r>    1.2711    0.0000 </r>
       <r>    1.2783    0.0000 </r>
       <r>    1.4588    0.0000 </r>
       <r>    1.5324    0.0000 </r>
       <r>    1.6264    0.0000 </r>
       <r>    1.9319    0.0000 </r>
       <r>    1.9776    0.0000 </r>
       <r>    2.1649    0.0000 </r>
       <r>    2.1977    0.0000 </r>
       <r>    2.2194    0.0000 </r>
       <r>    2.2265    0.0000 </r>
       <r>    2.3785    0.0000 </r>
       <r>    2.4244    0.0000 </r>
       <r>    2.5267    0.0000 </r>
       <r>    2.6593    0.0000 </r>
       <r>    2.6690    0.0000 </r>
       <r>    2.6944    0.0000 </r>
       <r>    2.6992    0.0000 </r>
       <r>    2.7304    0.0000 </r>
       <r>    2.7663    0.0000 </r>
       <r>    2.7683    0.0000 </r>
       <r>    2.8041    0.0000 </r>
       <r>    2.8068    0.0000 </r>
       <r>    2.8106    0.0000 </r>
       <r>    2.8807    0.0000 </r>
       <r>    2.9080    0.0000 </r>
       <r>    2.9358    0.0000 </r>
       <r>    2.9889    0.0000 </r>
      </set>
      <set comment="kpoint 2">
       <r>  -22.8481    1.0000 </r>
       <r>  -22.6997    1.0000 </r>
       <r>  -22.5782    1.0000 </r>
       <r>  -22.4501    1.0000 </r>
       <r>  -22.1790    1.0000 </r>
       <r>  -22.0680    1.0000 </r>
       <r>  -21.8436    1.0000 </r>
       <r>  -21.7312    1.0000 </r>
       <r>  -21.6963    1.0000 </r>
       <r>  -21.3657    1.0000 </r>
       <r>  -21.2869    1.0000 </r>
       <r>  -21.1563    1.0000 </r>
       <r>  -21.1165    1.0000 </r>
       <r>  -21.0251    1.0000 </r>
       <r>  -20.8595    1.0000 </r>
       <r>  -20.8046    1.0000 </r>
       <r>  -20.5069    1.0000 </r>
       <r>  -20.3117    1.0000 </r>
       <r>  -20.2111    1.0000 </r>
       <r>  -19.9910    1.0000 </r>
       <r>  -19.9055    1.0000 </r>
       <r>  -19.8090    1.0000 </r>
       <r>  -19.4991    1.0000 </r>
       <r>  -19.4659    1.0000 </r>
       <r>  -19.2939    1.0000 </r>
       <r>  -19.1262    1.0000 </r>
       <r>  -19.0411    1.0000 </r>
       <r>  -18.6784    1.0000 </r>
       <r>  -18.6663    1.0000 </r>
       <r>  -18.5608    1.0000 </r>
       <r>  -18.2793    1.0000 </r>
       <r>  -18.1881    1.0000 </r>
       <r>  -18.1716    1.0000 </r>
       <r>  -17.8328    1.0000 </r>
       <r>  -17.8182    1.0000 </r>
       <r>  -17.7969    1.0000 </r>
       <r>  -17.5284    1.0000 </r>
       <r>  -17.4806    1.0000 </r>
       <r>  -17.2901    1.0000 </r>
       <r>  -17.2793    1.0000 </r>
       <r>  -17.1657    1.0000 </r>
       <r>  -17.0578    1.0000 </r>
       <r>  -16.8352    1.0000 </r>
       <r>  -16.7925    1.0000 </r>
       <r>  -16.2812    1.0000 </r>
       <r>  -15.9863    1.0000 </r>
       <r>  -15.7612    1.0000 </r>
       <r>  -15.6353    1.0000 </r>
       <r>  -15.5941    1.0000 </r>
       <r>  -15.4921    1.0000 </r>
       <r>  -15.4492    1.0000 </r>
       <r>  -15.3973    1.0000 </r>
       <r>  -15.1244    1.0000 </r>
       <r>  -14.9747    1.0000 </r>
       <r>  -14.8842    1.0000 </r>
       <r>  -14.8313    1.0000 </r>
       <r>  -14.6900    1.0000 </r>
       <r>  -14.4635    1.0000 </r>
       <r>  -14.3319    1.0000 </r>
       <r>  -14.2248    1.0000 </r>
       <r>  -13.9891    1.0000 </r>
       <r>  -13.9506    1.0000 </r>
       <r>  -13.9453    1.0000 </r>
       <r>  -13.8677    1.0000 </r>
       <r>  -13.6476    1.0000 </r>
       <r>  -13.4281    1.0000 </r>
       <r>  -13.2050    1.0000 </r>
       <r>  -12.9464    1.0000 </r>
       <r>  -12.9259    1.0000 </r>
       <r>  -12.8995    1.0000 </r>
       <r>  -12.5704    1.0000 </r>
       <r>  -12.3866    1.0000 </r>
       <r>  -12.3758    1.0000 </r>
       <r>  -12.2628    1.0000 </r>
       <r>  -12.0530    1.0000 </r>
       <r>  -11.9701    1.0000 </r>
       <r>  -11.9050    1.0000 </r>
       <r>  -11.8095    1.0000 </r>
       <r>  -11.6944    1.0000 </r>
       <r>  -11.6786    1.0000 </r>
       <r>  -11.5416    1.0000 </r>
       <r>  -11.4998    1.0000 </r>
       <r>  -11.3624    1.0000 </r>
       <r>  -11.2134    1.0000 </r>
       <r>  -11.1608    1.0000 </r>
       <r>  -10.9852    1.0000 </r>
       <r>  -10.8731    1.0000 </r>
       <r>  -10.6746    1.0000 </r>
       <r>  -10.6035    1.0000 </r>
       <r>  -10.5530    1.0000 </r>
       <r>  -10.5058    1.0000 </r>
       <r>  -10.4557    1.0000 </r>
       <r>  -10.4358    1.0000 </r>
       <r>  -10.3026    1.0000 </r>
       <r>  -10.2467    1.0000 </r>
       <r>  -10.1212    1.0000 </r>
       <r>   -9.9965    1.0000 </r>
       <r>   -9.9310    1.0000 </r>
       <r>   -9.9047    1.0000 </r>
       <r>   -9.8687    1.0000 </r>
       <r>   -9.8167    1.0000 </r>
       <r>   -9.6377    1.0000 </r>
       <r>   -9.6055    1.0000 </r>
       <r>   -9.5753    1.0000 </r>
       <r>   -9.5385    1.0000 </r>
       <r>   -9.5067    1.0000 </r>
       <r>   -9.4548    1.0000 </r>
       <r>   -9.4496    1.0000 </r>
       <r>   -9.3940    1.0000 </r>
       <r>   -9.3593    1.0000 </r>
       <r>   -9.3408    1.0000 </r>
       <r>   -9.2675    1.0000 </r>
       <r>   -9.2642    1.0000 </r>
       <r>   -9.2148    1.0000 </r>
       <r>   -9.1698    1.0000 </r>
       <r>   -9.1417    1.0000 </r>
       <r>   -9.0257    1.0000 </r>
       <r>   -8.9640    1.0000 </r>
       <r>   -8.9562    1.0000 </r>
       <r>   -8.9298    1.0000 </r>
       <r>   -8.8067    1.0000 </r>
       <r>   -8.7216    1.0000 </r>
       <r>   -8.7029    1.0000 </r>
       <r>   -8.6884    1.0000 </r>
       <r>   -8.6504    1.0000 </r>
       <r>   -8.5845    1.0000 </r>
       <r>   -8.5547    1.0000 </r>
       <r>   -8.5501    1.0000 </r>
       <r>   -8.5331    1.0000 </r>
       <r>   -8.4237    1.0000 </r>
       <r>   -8.2038    1.0000 </r>
       <r>   -8.1554    1.0000 </r>
       <r>   -8.1327    1.0000 </r>
       <r>   -8.0490    1.0000 </r>
       <r>   -7.8364    1.0000 </r>
       <r>   -7.7418    1.0000 </r>
       <r>   -7.7190    1.0000 </r>
       <r>   -7.6590    1.0000 </r>
       <r>   -7.6086    1.0000 </r>
       <r>   -7.5706    1.0000 </r>
       <r>   -7.5259    1.0000 </r>
       <r>   -7.5150    1.0000 </r>
       <r>   -7.4580    1.0000 </r>
       <r>   -7.4489    1.0000 </r>
       <r>   -7.3244    1.0000 </r>
       <r>   -7.0971    1.0000 </r>
       <r>   -7.0786    1.0000 </r>
       <r>   -7.0267    1.0000 </r>
       <r>   -6.9504    1.0000 </r>
       <r>   -6.6957    1.0000 </r>
       <r>   -6.6377    1.0000 </r>
       <r>   -6.6059    1.0000 </r>
       <r>   -6.5876    1.0000 </r>
       <r>   -6.5433    1.0000 </r>
       <r>   -6.4059    1.0000 </r>
       <r>   -6.2966    1.0000 </r>
       <r>   -6.1978    1.0000 </r>
[...]
       <r>   -14.9086     9.0001    54.3069 </r>
       <r>   -14.8133    10.6813    55.3253 </r>
       <r>   -14.7179    12.6411    56.5306 </r>
       <r>   -14.6226    10.9757    57.5771 </r>
       <r>   -14.5272     4.9087    58.0451 </r>
       <r>   -14.4319     6.7428    58.6880 </r>
       <r>   -14.3365     1.8291    58.8624 </r>
       <r>   -14.2412     3.3538    59.1822 </r>
       <r>   -14.1458     4.2087    59.5835 </r>
       <r>   -14.0505     7.0374    60.2545 </r>
       <r>   -13.9551    13.6483    61.5558 </r>
       <r>   -13.8598    10.4397    62.5512 </r>
       <r>   -13.7645     8.3987    63.3520 </r>
       <r>   -13.6691     5.9575    63.9200 </r>
       <r>   -13.5738     5.2594    64.4215 </r>
       <r>   -13.4784     1.0290    64.5196 </r>
       <r>   -13.3831     3.8935    64.8908 </r>
       <r>   -13.2877     6.5632    65.5166 </r>
       <r>   -13.1924     4.6462    65.9596 </r>
       <r>   -13.0970     7.9539    66.7180 </r>
       <r>   -13.0017     5.4223    67.2350 </r>
       <r>   -12.9063    14.7365    68.6400 </r>
       <r>   -12.8110    10.7617    69.6661 </r>
       <r>   -12.7156     9.9532    70.6151 </r>
       <r>   -12.6203     9.4646    71.5175 </r>
       <r>   -12.5250    10.0657    72.4773 </r>
       <r>   -12.4296     5.8493    73.0350 </r>
       <r>   -12.3343     4.4384    73.4582 </r>
       <r>   -12.2389     2.9603    73.7404 </r>
       <r>   -12.1436     4.3098    74.1514 </r>
       <r>   -12.0482     5.9847    74.7220 </r>
       <r>   -11.9529     9.9930    75.6748 </r>
       <r>   -11.8575     9.3986    76.5709 </r>
       <r>   -11.7622    12.2413    77.7381 </r>
       <r>   -11.6668    17.9140    79.4461 </r>
       <r>   -11.5715     8.7402    80.2794 </r>
       <r>   -11.4761    10.1602    81.2482 </r>
       <r>   -11.3808     9.0755    82.1135 </r>
       <r>   -11.2855    13.2565    83.3775 </r>
       <r>   -11.1901     9.5743    84.2903 </r>
       <r>   -11.0948     4.7415    84.7424 </r>
       <r>   -10.9994     3.0987    85.0379 </r>
       <r>   -10.9041     8.3787    85.8368 </r>
       <r>   -10.8087     4.4968    86.2655 </r>
       <r>   -10.7134     6.8595    86.9195 </r>
       <r>   -10.6180    13.5126    88.2079 </r>
       <r>   -10.5227    14.0010    89.5428 </r>
       <r>   -10.4273    12.8478    90.7678 </r>
       <r>   -10.3320    14.9855    92.1966 </r>
       <r>   -10.2366    14.1967    93.5503 </r>
       <r>   -10.1413    16.4633    95.1200 </r>
       <r>   -10.0459    15.5806    96.6055 </r>
       <r>    -9.9506    12.9112    97.8366 </r>
       <r>    -9.8553    27.4329   100.4522 </r>
       <r>    -9.7599    19.8342   102.3433 </r>
       <r>    -9.6646    13.5972   103.6397 </r>
       <r>    -9.5692    19.0130   105.4526 </r>
       <r>    -9.4739    12.5668   106.6508 </r>
       <r>    -9.3785    19.3562   108.4963 </r>
       <r>    -9.2832    30.3945   111.3943 </r>
       <r>    -9.1878    25.2113   113.7981 </r>
       <r>    -9.0925    19.4849   115.6559 </r>
       <r>    -8.9971    12.8162   116.8779 </r>
       <r>    -8.9018    20.9462   118.8751 </r>
       <r>    -8.8064    16.2527   120.4247 </r>
       <r>    -8.7111    19.8228   122.3147 </r>
       <r>    -8.6158    21.0583   124.3225 </r>
       <r>    -8.5204    27.5014   126.9447 </r>
       <r>    -8.4251    18.5864   128.7169 </r>
       <r>    -8.3297    15.7308   130.2167 </r>
       <r>    -8.2344    10.8402   131.2503 </r>
       <r>    -8.1390    10.7386   132.2742 </r>
       <r>    -8.0437    12.7095   133.4860 </r>
       <r>    -7.9483     9.2557   134.3685 </r>
       <r>    -7.8530     7.4606   135.0798 </r>
       <r>    -7.7576     8.9180   135.9301 </r>
       <r>    -7.6623    24.8673   138.3011 </r>
       <r>    -7.5669    23.2817   140.5210 </r>
       <r>    -7.4716    16.5060   142.0947 </r>
       <r>    -7.3762    13.6363   143.3949 </r>
       <r>    -7.2809     6.4631   144.0111 </r>
       <r>    -7.1856     7.7919   144.7541 </r>
       <r>    -7.0902     9.5827   145.6677 </r>
       <r>    -6.9949    16.6639   147.2566 </r>
       <r>    -6.8995     8.5667   148.0734 </r>
       <r>    -6.8042     7.0181   148.7425 </r>
       <r>    -6.7088    14.8377   150.1573 </r>
       <r>    -6.6135    15.2136   151.6078 </r>
       <r>    -6.5181    15.9228   153.1260 </r>
       <r>    -6.4228     8.7206   153.9575 </r>
       <r>    -6.3274    13.7835   155.2717 </r>
       <r>    -6.2321    13.6250   156.5708 </r>
       <r>    -6.1367     6.6319   157.2031 </r>
       <r>    -6.0414     7.2711   157.8964 </r>
       <r>    -5.9461     3.9549   158.2735 </r>
       <r>    -5.8507     4.3394   158.6872 </r>
       <r>    -5.7554     5.7796   159.2383 </r>
       <r>    -5.6600     9.7553   160.1684 </r>
       <r>    -5.5647     8.1019   160.9409 </r>
       <r>    -5.4693    10.5071   161.9427 </r>
       <r>    -5.3740    26.6965   164.4881 </r>
       <r>    -5.2786    17.2034   166.1284 </r>
       <r>    -5.1833    17.5004   167.7970 </r>
       <r>    -5.0879     4.6936   168.2445 </r>
       <r>    -4.9926     1.7038   168.4070 </r>
       <r>    -4.8972    12.6035   169.6087 </r>
       <r>    -4.8019     4.7782   170.0643 </r>
       <r>    -4.7066     5.2641   170.5662 </r>
       <r>    -4.6112    13.1447   171.8195 </r>
       <r>    -4.5159    20.2853   173.7536 </r>
       <r>    -4.4205    20.5029   175.7085 </r>
       <r>    -4.3252    15.1955   177.1573 </r>
       <r>    -4.2298    11.8129   178.2836 </r>
       <r>    -4.1345    12.6923   179.4938 </r>
       <r>    -4.0391    10.1738   180.4638 </r>
       <r>    -3.9438     3.0250   180.7522 </r>
       <r>    -3.8484     8.4570   181.5586 </r>
       <r>    -3.7531     7.1941   182.2445 </r>
       <r>    -3.6577     0.1136   182.2554 </r>
       <r>    -3.5624     1.9080   182.4373 </r>
       <r>    -3.4670     0.6568   182.4999 </r>
       <r>    -3.3717     0.0210   182.5019 </r>
       <r>    -3.2764     2.6587   182.7554 </r>
       <r>    -3.1810     2.5528   182.9988 </r>
       <r>    -3.0857     2.7463   183.2607 </r>
       <r>    -2.9903     7.6388   183.9890 </r>
       <r>    -2.8950     3.9152   184.3623 </r>
       <r>    -2.7996     1.4418   184.4997 </r>
       <r>    -2.7043     0.0026   184.5000 </r>
       <r>    -2.6089     0.0036   184.5003 </r>
       <r>    -2.5136     0.9982   184.5955 </r>
       <r>    -2.4182     2.3181   184.8165 </r>
       <r>    -2.3229     2.4342   185.0486 </r>
       <r>    -2.2275     2.7673   185.3125 </r>
       <r>    -2.1322     3.8660   185.6811 </r>
       <r>    -2.0369     3.2974   185.9955 </r>
       <r>    -1.9415     0.1082   186.0058 </r>
       <r>    -1.8462     3.6053   186.3496 </r>
       <r>    -1.7508     9.4152   187.2473 </r>
       <r>    -1.6555     2.6377   187.4988 </r>
       <r>    -1.5601     0.0140   187.5001 </r>
       <r>    -1.4648     0.7150   187.5683 </r>
       <r>    -1.3694     6.4331   188.1816 </r>
       <r>    -1.2741    16.3977   189.7451 </r>
       <r>    -1.1787    11.2427   190.8170 </r>
       <r>    -1.0834     9.3490   191.7084 </r>
       <r>    -0.9880     8.1415   192.4847 </r>
       <r>    -0.8927    10.0733   193.4452 </r>
       <r>    -0.7973     6.0612   194.0231 </r>
       <r>    -0.7020     3.2429   194.3323 </r>
       <r>    -0.6067     9.9841   195.2842 </r>
       <r>    -0.5113     8.9905   196.1414 </r>
       <r>    -0.4160    10.7699   197.1683 </r>
       <r>    -0.3206     9.3794   198.0626 </r>
       <r>    -0.2253    12.0032   199.2070 </r>
       <r>    -0.1299     7.1511   199.8889 </r>
       <r>    -0.0346     1.1633   199.9998 </r>
       <r>     0.0608     1.2147   200.1156 </r>
       <r>     0.1561     6.1149   200.6986 </r>
       <r>     0.2515     7.0900   201.3747 </r>
       <r>     0.3468     9.6641   202.2961 </r>
       <r>     0.4422     5.0062   202.7734 </r>
       <r>     0.5375     4.8969   203.2403 </r>
       <r>     0.6328     3.1600   203.5416 </r>
       <r>     0.7282     6.7856   204.1886 </r>
       <r>     0.8235     7.3710   204.8914 </r>
       <r>     0.9189     9.8733   205.8328 </r>
       <r>     1.0142    13.3403   207.1047 </r>
       <r>     1.1096     9.0953   207.9719 </r>
       <r>     1.2049    14.6245   209.3663 </r>
       <r>     1.3003    13.6388   210.6667 </r>
       <r>     1.3956     9.7303   211.5945 </r>
       <r>     1.4910     8.5611   212.4107 </r>
       <r>     1.5863     6.3125   213.0126 </r>
       <r>     1.6817     5.2217   213.5105 </r>
       <r>     1.7770    14.1502   214.8597 </r>
       <r>     1.8723    23.9962   217.1476 </r>
       <r>     1.9677    19.7705   219.0327 </r>
       <r>     2.0630     7.6773   219.7647 </r>
       <r>     2.1584     8.6023   220.5849 </r>
       <r>     2.2537    15.1549   222.0298 </r>
       <r>     2.3491    21.1199   224.0435 </r>
       <r>     2.4444    24.4900   226.3786 </r>
       <r>     2.5398    10.4859   227.3784 </r>
       <r>     2.6351    11.0485   228.4318 </r>
       <r>     2.7305    28.1399   231.1148 </r>
       <r>     2.8258    52.8799   236.1567 </r>
       <r>     2.9212    23.5817   238.4052 </r>
       <r>     3.0165     3.8277   238.7701 </r>
       <r>     3.1119     5.7010   239.3137 </r>
       <r>     3.2072     6.9843   239.9796 </r>
       <r>     3.3025     0.2138   240.0000 </r>
       <r>     3.3979     0.0000   240.0000 </r>
       <r>     3.4932     0.0000   240.0000 </r>
       <r>     3.5886     0.0000   240.0000 </r>
       <r>     3.6839     0.0000   240.0000 </r>
       <r>     3.7793     0.0000   240.0000 </r>
       <r>     3.8746     0.0000   240.0000 </r>
       <r>     3.9700     0.0000   240.0000 </r>
       <r>     4.0653     0.0000   240.0000 </r>
       <r>     4.1607     0.0000   240.0000 </r>
       <r>     4.2560     0.0000   240.0000 </r>
       <r>     4.3514     0.0000   240.0000 </r>
       <r>     4.4467     0.0000   240.0000 </r>
      </set>
     </set>
    </array>
   </total>
  </dos>
 </calculation>
 <structure name="finalpos" >
  <crystal>
   <varray name="basis" >
    <v>      17.27103806       0.00000000       0.00000000 </v>
    <v>      -8.63551903      14.95715771       0.00000000 </v>
    <v>       0.00000000       0.00000000      15.00000000 </v>
   </varray>
   <i name="volume">   3874.88459904 </i>
   <varray name="rec_basis" >
    <v>       0.05790040       0.03342881       0.00000000 </v>
    <v>       0.00000000       0.06685762       0.00000000 </v>
    <v>       0.00000000       0.00000000       0.06666667 </v>
   </varray>
  </crystal>
  <varray name="positions" >
   <v>       0.00052282       0.00043085       0.50213732 </v>
   <v>       0.99964813       0.14270282       0.50209187 </v>
   <v>       0.99939924       0.28574218       0.50214201 </v>
   <v>       0.99970500       0.42900610       0.50232951 </v>
   <v>       0.00058597       0.57211923       0.50229211 </v>
   <v>       0.00206186       0.71546280       0.50229664 </v>
   <v>       0.00204698       0.85860979       0.50225940 </v>
   <v>       0.14485789       0.00216345       0.50139105 </v>
   <v>       0.14415192       0.14469838       0.50093938 </v>
   <v>       0.14245739       0.28583743       0.50047799 </v>
   <v>       0.14254206       0.42864450       0.50059339 </v>
   <v>       0.14429785       0.57145758       0.50108745 </v>
   <v>       0.14488178       0.71467998       0.50148396 </v>
   <v>       0.14491515       0.85845975       0.50169196 </v>
   <v>       0.28744849       0.00167894       0.50079088 </v>
   <v>       0.28802021       0.14643026       0.50003458 </v>
   <v>       0.28879422       0.29357387       0.49873469 </v>
   <v>       0.28511778       0.42837831       0.49822174 </v>
   <v>       0.28909377       0.56728991       0.49911588 </v>
   <v>       0.28804285       0.71357773       0.50022614 </v>
   <v>       0.28744690       0.85775008       0.50081959 </v>
   <v>       0.42998394       0.00100033       0.50077423 </v>
   <v>       0.43004533       0.14587128       0.50029344 </v>
   <v>       0.43005260       0.85619665       0.50042529 </v>
   <v>       0.57184318       0.99970705       0.50143094 </v>
   <v>       0.57184395       0.14415546       0.50141970 </v>
   <v>       0.57418349       0.29192329       0.50066511 </v>
   <v>       0.57423075       0.85428628       0.50048076 </v>
   <v>       0.71392638       0.99860748       0.50208627 </v>
   <v>       0.71423848       0.14313220       0.50252498 </v>
   <v>       0.71393000       0.28735418       0.50218868 </v>
   <v>       0.70965132       0.42841080       0.50101439 </v>
   <v>       0.70962105       0.85328296       0.50063868 </v>
   <v>       0.85653894       0.99892548       0.50233711 </v>
   <v>       0.85651592       0.14249554       0.50279317 </v>
   <v>       0.85653640       0.28610248       0.50285611 </v>
   <v>       0.85656548       0.42968362       0.50253635 </v>
   <v>       0.85709998       0.57289799       0.50190083 </v>
   <v>       0.85937920       0.71570683       0.50170146 </v>
   <v>       0.85708195       0.85623819       0.50180271 </v>
   <v>       0.04837499       0.09602042       0.50178111 </v>
   <v>       0.04682666       0.23784112       0.50161039 </v>
   <v>       0.04689656       0.38104745       0.50177429 </v>
   <v>       0.04848037       0.52439586       0.50200754 </v>
   <v>       0.04924969       0.66753378       0.50209628 </v>
   <v>       0.04953369       0.81077264       0.50220856 </v>
   <v>       0.04922030       0.95370817       0.50199286 </v>
   <v>       0.19235539       0.09751653       0.50072617 </v>
   <v>       0.19185831       0.24020895       0.50012411 </v>
   <v>       0.18934115       0.38063401       0.49978840 </v>
   <v>       0.19209854       0.52366875       0.50024051 </v>
   <v>       0.19241318       0.66683252       0.50089542 </v>
   <v>       0.19239095       0.81039108       0.50131496 </v>
   <v>       0.19237765       0.95397413       0.50130240 </v>
   <v>       0.33499473       0.09791617       0.50032776 </v>
   <v>       0.33920028       0.24310729       0.49921292 </v>
   <v>       0.33932830       0.66815331       0.49951647 </v>
   <v>       0.33500647       0.80908199       0.50043645 </v>
   <v>       0.33465774       0.95332753       0.50076758 </v>
   <v>       0.47703037       0.09677315       0.50079879 </v>
   <v>       0.47484842       0.24230238       0.50004607 </v>
   <v>       0.47486605       0.80456051       0.50007097 </v>
   <v>       0.47703472       0.95229238       0.50084194 </v>
   <v>       0.61890582       0.09546342       0.50186551 </v>
   <v>       0.61889668       0.24025318       0.50148999 </v>
   <v>       0.61889800       0.95066889       0.50141838 </v>
   <v>       0.76147029       0.09480748       0.50266486 </v>
   <v>       0.76147315       0.23869829       0.50270292 </v>
   <v>       0.76083917       0.38285630       0.50207671 </v>
   <v>       0.76001601       0.52943421       0.50064975 </v>
   <v>       0.76345299       0.66778405       0.49989803 </v>
   <v>       0.75999725       0.80261738       0.50037518 </v>
   <v>       0.76083733       0.95002160       0.50187126 </v>
   <v>       0.90401714       0.09428892       0.50258470 </v>
   <v>       0.90399829       0.23802395       0.50278479 </v>
   <v>       0.90405040       0.38179178       0.50273918 </v>
   <v>       0.90479674       0.52508427       0.50236090 </v>
   <v>       0.90638158       0.66788050       0.50213200 </v>
   <v>       0.90636189       0.81053871       0.50208190 </v>
   <v>       0.90476361       0.95173899       0.50220378 </v>
   <v>       0.42910414       0.28709158       0.49932895 </v>
   <v>       0.42916218       0.71409271       0.49946282 </v>
   <v>       0.71684866       0.57582747       0.49903666 </v>
   <v>       0.71693902       0.71311691       0.49868397 </v>
   <v>       0.33181913       0.38326502       0.49727743 </v>
   <v>       0.33204739       0.52036109       0.49793815 </v>
   <v>       0.61980498       0.38238932       0.50036198 </v>
   <v>       0.61983839       0.80949469       0.49994557 </v>
   <v>       0.46758127       0.55354377       0.51855112 </v>
   <v>       0.49961523       0.48510509       0.51838529 </v>
   <v>       0.51868485       0.54666290       0.53488797 </v>
  </varray>
  <varray name="selective"  type="logical" >
   <v type="logical" >  T  T  T </v>
   <v type="logical" >  T  T  T </v>
   <v type="logical" >  T  T  T </v>
   <v type="logical" >  T  T  T </v>
   <v type="logical" >  T  T  T </v>
   <v type="logical" >  T  T  T </v>
   <v type="logical" >  T  T  T </v>
   <v type="logical" >  T  T  T </v>
   <v type="logical" >  T  T  T </v>
   <v type="logical" >  T  T  T </v>
   <v type="logical" >  T  T  T </v>
   <v type="logical" >  T  T  T </v>
   <v type="logical" >  T  T  T </v>
   <v type="logical" >  T  T  T </v>
   <v type="logical" >  T  T  T </v>
   <v type="logical" >  T  T  T </v>
   <v type="logical" >  T  T  T </v>
   <v type="logical" >  T  T  T </v>
   <v type="logical" >  T  T  T </v>
   <v type="logical" >  T  T  T </v>
   <v type="logical" >  T  T  T </v>
   <v type="logical" >  T  T  T </v>
   <v type="logical" >  T  T  T </v>
   <v type="logical" >  T  T  T </v>
   <v type="logical" >  T  T  T </v>
   <v type="logical" >  T  T  T </v>
   <v type="logical" >  T  T  T </v>
   <v type="logical" >  T  T  T </v>
   <v type="logical" >  T  T  T </v>
   <v type="logical" >  T  T  T </v>
   <v type="logical" >  T  T  T </v>
   <v type="logical" >  T  T  T </v>
   <v type="logical" >  T  T  T </v>
   <v type="logical" >  T  T  T </v>
   <v type="logical" >  T  T  T </v>
   <v type="logical" >  T  T  T </v>
   <v type="logical" >  T  T  T </v>
   <v type="logical" >  T  T  T </v>
   <v type="logical" >  T  T  T </v>
   <v type="logical" >  T  T  T </v>
   <v type="logical" >  T  T  T </v>
   <v type="logical" >  T  T  T </v>
   <v type="logical" >  T  T  T </v>
   <v type="logical" >  T  T  T </v>
   <v type="logical" >  T  T  T </v>
   <v type="logical" >  T  T  T </v>
   <v type="logical" >  T  T  T </v>
   <v type="logical" >  T  T  T </v>
   <v type="logical" >  T  T  T </v>
   <v type="logical" >  T  T  T </v>
   <v type="logical" >  T  T  T </v>
   <v type="logical" >  T  T  T </v>
   <v type="logical" >  T  T  T </v>
   <v type="logical" >  T  T  T </v>
   <v type="logical" >  T  T  T </v>
   <v type="logical" >  T  T  T </v>
   <v type="logical" >  T  T  T </v>
   <v type="logical" >  T  T  T </v>
   <v type="logical" >  T  T  T </v>
   <v type="logical" >  T  T  T </v>
   <v type="logical" >  T  T  T </v>
   <v type="logical" >  T  T  T </v>
   <v type="logical" >  T  T  T </v>
   <v type="logical" >  T  T  T </v>
   <v type="logical" >  T  T  T </v>
   <v type="logical" >  T  T  T </v>
   <v type="logical" >  T  T  T </v>
   <v type="logical" >  T  T  T </v>
   <v type="logical" >  T  T  T </v>
   <v type="logical" >  T  T  T </v>
   <v type="logical" >  T  T  T </v>
   <v type="logical" >  T  T  T </v>
   <v type="logical" >  T  T  T </v>
   <v type="logical" >  T  T  T </v>
   <v type="logical" >  T  T  T </v>
   <v type="logical" >  T  T  T </v>
   <v type="logical" >  T  T  T </v>
   <v type="logical" >  T  T  T </v>
   <v type="logical" >  T  T  T </v>
   <v type="logical" >  T  T  T </v>
   <v type="logical" >  T  T  T </v>
   <v type="logical" >  T  T  T </v>
   <v type="logical" >  T  T  T </v>
   <v type="logical" >  T  T  T </v>
   <v type="logical" >  T  T  T </v>
   <v type="logical" >  T  T  T </v>
   <v type="logical" >  T  T  T </v>
   <v type="logical" >  T  T  T </v>
   <v type="logical" >  T  T  T </v>
   <v type="logical" >  T  T  T </v>
   <v type="logical" >  T  T  F </v>
  </varray>
  <nose>
   <v>      -3.00000000       0.00000000       0.00010000       0.00010000 </v>
  </nose>
 </structure>
</modeling>
