unknown system                          
           1
    17.271038    0.000000    0.000000
    -8.635519   14.957158    0.000000
     0.000000    0.000000   15.000000
   C    N    H    O 
    80     8     2     1
Direct configuration=     1
   0.00052282  0.00043085  0.50213732
   0.99964813  0.14270282  0.50209187
   0.99939924  0.28574218  0.50214201
   0.99970500  0.42900610  0.50232951
   0.00058597  0.57211923  0.50229211
   0.00206186  0.71546280  0.50229664
   0.00204698  0.85860979  0.50225940
   0.14485789  0.00216345  0.50139105
   0.14415192  0.14469838  0.50093938
   0.14245739  0.28583743  0.50047799
   0.14254206  0.42864450  0.50059339
   0.14429785  0.57145758  0.50108745
   0.14488178  0.71467998  0.50148396
   0.14491515  0.85845975  0.50169196
   0.28744849  0.00167894  0.50079088
   0.28802021  0.14643026  0.50003458
   0.28879422  0.29357387  0.49873469
   0.28511778  0.42837831  0.49822174
   0.28909377  0.56728991  0.49911588
   0.28804285  0.71357773  0.50022614
   0.28744690  0.85775008  0.50081959
   0.42998394  0.00100033  0.50077423
   0.43004533  0.14587128  0.50029344
   0.43005260  0.85619665  0.50042529
   0.57184318  0.99970705  0.50143094
   0.57184395  0.14415546  0.50141970
   0.57418349  0.29192329  0.50066511
   0.57423075  0.85428628  0.50048076
   0.71392638  0.99860748  0.50208627
   0.71423848  0.14313220  0.50252498
   0.71393000  0.28735418  0.50218868
   0.70965132  0.42841080  0.50101439
   0.70962105  0.85328296  0.50063868
   0.85653894  0.99892548  0.50233711
   0.85651592  0.14249554  0.50279317
   0.85653640  0.28610248  0.50285611
   0.85656548  0.42968362  0.50253635
   0.85709998  0.57289799  0.50190083
   0.85937920  0.71570683  0.50170146
   0.85708195  0.85623819  0.50180271
   0.04837499  0.09602042  0.50178111
   0.04682666  0.23784112  0.50161039
   0.04689656  0.38104745  0.50177429
   0.04848037  0.52439586  0.50200754
   0.04924969  0.66753378  0.50209628
   0.04953369  0.81077264  0.50220856
   0.04922030  0.95370817  0.50199286
   0.19235539  0.09751653  0.50072617
   0.19185831  0.24020895  0.50012411
   0.18934115  0.38063401  0.49978840
   0.19209854  0.52366875  0.50024051
   0.19241318  0.66683252  0.50089542
   0.19239095  0.81039108  0.50131496
   0.19237765  0.95397413  0.50130240
   0.33499473  0.09791617  0.50032776
   0.33920028  0.24310729  0.49921292
   0.33932830  0.66815331  0.49951647
   0.33500647  0.80908199  0.50043645
   0.33465774  0.95332753  0.50076758
   0.47703037  0.09677315  0.50079879
   0.47484842  0.24230238  0.50004607
   0.47486605  0.80456051  0.50007097
   0.47703472  0.95229238  0.50084194
   0.61890582  0.09546342  0.50186551
   0.61889668  0.24025318  0.50148999
   0.61889800  0.95066889  0.50141838
   0.76147029  0.09480748  0.50266486
   0.76147315  0.23869829  0.50270292
   0.76083917  0.38285630  0.50207671
   0.76001601  0.52943421  0.50064975
   0.76345299  0.66778405  0.49989803
   0.75999725  0.80261738  0.50037518
   0.76083733  0.95002160  0.50187126
   0.90401714  0.09428892  0.50258470
   0.90399829  0.23802395  0.50278479
   0.90405040  0.38179178  0.50273918
   0.90479674  0.52508427  0.50236090
   0.90638158  0.66788050  0.50213200
   0.90636189  0.81053871  0.50208190
   0.90476361  0.95173899  0.50220378
   0.42910414  0.28709158  0.49932895
   0.42916218  0.71409271  0.49946282
   0.71684866  0.57582747  0.49903666
   0.71693902  0.71311691  0.49868397
   0.33181913  0.38326502  0.49727743
   0.33204739  0.52036109  0.49793815
   0.61980498  0.38238932  0.50036198
   0.61983839  0.80949469  0.49994557
   0.46758127  0.55354377  0.51855112
   0.49961523  0.48510509  0.51838529
   0.51868485  0.54666290  0.53488797
