  95  95   0   0
  0.4078826E+02  0.1727104E-08  0.1727104E-08  0.1500000E-08  0.5000000E-15
  1.000000000000000E-004
  CAR 
 unknown system                          
      5.87288073    -24.07744383  301     -2.75343671      1.00000000
    -24.077  0.0000E+00  0.0000E+00  0.0000E+00  0.0000E+00
    -23.978  0.0000E+00  0.0000E+00  0.0000E+00  0.0000E+00
    -23.878  0.0000E+00  0.0000E+00  0.0000E+00  0.0000E+00
    -23.778  0.0000E+00  0.0000E+00  0.0000E+00  0.0000E+00
    -23.678  0.0000E+00  0.0000E+00  0.0000E+00  0.0000E+00
    -23.578  0.0000E+00  0.0000E+00  0.0000E+00  0.0000E+00
    -23.478  0.0000E+00  0.0000E+00  0.0000E+00  0.0000E+00
    -23.379  0.0000E+00  0.0000E+00  0.0000E+00  0.0000E+00
    -23.279  0.0000E+00  0.0000E+00  0.0000E+00  0.0000E+00
    -23.179  0.0000E+00  0.0000E+00  0.0000E+00  0.0000E+00
    -23.079  0.0000E+00  0.0000E+00  0.0000E+00  0.0000E+00
    -22.979  0.4110E-15  0.4101E-15  0.4104E-16  0.4094E-16
    -22.879  0.1716E-07  0.1713E-07  0.1713E-08  0.1710E-08
    -22.780  0.3444E-03  0.3441E-03  0.3438E-04  0.3435E-04
    -22.680  0.8092E-02  0.8091E-02  0.8422E-03  0.8421E-03
    -22.580  0.1580E-02  0.1581E-02  0.9999E-03  0.9999E-03
    -22.480  0.5530E-03  0.5526E-03  0.1055E-02  0.1055E-02
    -22.380  0.1220E-01  0.1220E-01  0.2273E-02  0.2273E-02
    -22.280  0.7226E-02  0.7229E-02  0.2995E-02  0.2995E-02
    -22.181  0.3152E-02  0.3152E-02  0.3309E-02  0.3309E-02
    -22.081  0.6818E-02  0.6818E-02  0.3990E-02  0.3990E-02
    -21.981  0.1003E-03  0.1003E-03  0.4000E-02  0.4000E-02
    -21.881  0.2139E-03  0.2138E-03  0.4021E-02  0.4021E-02
    -21.781  0.7478E-02  0.7476E-02  0.4768E-02  0.4768E-02
    -21.681  0.9113E-02  0.9113E-02  0.5678E-02  0.5677E-02
    -21.582  0.7428E-02  0.7429E-02  0.6419E-02  0.6419E-02
    -21.482  0.4139E-02  0.4138E-02  0.6832E-02  0.6832E-02
    -21.382  0.8963E-02  0.8965E-02  0.7727E-02  0.7727E-02
    -21.282  0.2375E-02  0.2375E-02  0.7964E-02  0.7964E-02
    -21.182  0.9670E-02  0.9670E-02  0.8930E-02  0.8930E-02
    -21.082  0.4357E-02  0.4356E-02  0.9365E-02  0.9365E-02
    -20.983  0.6526E-02  0.6527E-02  0.1002E-01  0.1002E-01
    -20.883  0.6698E-02  0.6698E-02  0.1069E-01  0.1068E-01
    -20.783  0.8856E-02  0.8856E-02  0.1157E-01  0.1157E-01
    -20.683  0.3366E-02  0.3366E-02  0.1191E-01  0.1191E-01
    -20.583  0.5096E-02  0.5097E-02  0.1241E-01  0.1241E-01
    -20.483  0.5143E-02  0.5142E-02  0.1293E-01  0.1293E-01
    -20.384  0.9920E-02  0.9920E-02  0.1392E-01  0.1392E-01
    -20.284  0.9850E-02  0.9850E-02  0.1490E-01  0.1490E-01
    -20.184  0.5911E-02  0.5912E-02  0.1549E-01  0.1549E-01
    -20.084  0.4047E-02  0.4046E-02  0.1590E-01  0.1590E-01
    -19.984  0.5901E-02  0.5902E-02  0.1648E-01  0.1648E-01
    -19.884  0.6335E-03  0.6333E-03  0.1655E-01  0.1655E-01
    -19.785  0.8728E-02  0.8727E-02  0.1742E-01  0.1742E-01
    -19.685  0.1370E-01  0.1369E-01  0.1879E-01  0.1879E-01
    -19.585  0.9268E-02  0.9269E-02  0.1971E-01  0.1971E-01
    -19.485  0.4674E-02  0.4674E-02  0.2018E-01  0.2018E-01
    -19.385  0.3361E-02  0.3362E-02  0.2051E-01  0.2051E-01
    -19.285  0.7497E-02  0.7496E-02  0.2126E-01  0.2126E-01
    -19.186  0.1076E-01  0.1076E-01  0.2234E-01  0.2234E-01
    -19.086  0.1638E-02  0.1639E-02  0.2250E-01  0.2250E-01
    -18.986  0.2000E-03  0.1999E-03  0.2252E-01  0.2252E-01
    -18.886  0.7413E-02  0.7412E-02  0.2326E-01  0.2326E-01
    -18.786  0.1406E-01  0.1406E-01  0.2466E-01  0.2466E-01
    -18.686  0.1062E-01  0.1062E-01  0.2572E-01  0.2572E-01
    -18.587  0.7195E-02  0.7196E-02  0.2644E-01  0.2644E-01
    -18.487  0.6758E-02  0.6758E-02  0.2712E-01  0.2712E-01
    -18.387  0.1028E-01  0.1028E-01  0.2814E-01  0.2814E-01
    -18.287  0.3010E-02  0.3011E-02  0.2844E-01  0.2844E-01
    -18.187  0.3041E-02  0.3041E-02  0.2875E-01  0.2875E-01
    -18.087  0.7268E-02  0.7268E-02  0.2947E-01  0.2947E-01
    -17.988  0.7875E-02  0.7875E-02  0.3026E-01  0.3026E-01
    -17.888  0.5599E-02  0.5598E-02  0.3082E-01  0.3082E-01
    -17.788  0.7449E-02  0.7449E-02  0.3156E-01  0.3156E-01
    -17.688  0.5680E-02  0.5679E-02  0.3213E-01  0.3213E-01
    -17.588  0.1924E-01  0.1924E-01  0.3405E-01  0.3405E-01
    -17.488  0.1360E-01  0.1360E-01  0.3541E-01  0.3541E-01
    -17.389  0.3449E-02  0.3450E-02  0.3575E-01  0.3575E-01
    -17.289  0.4069E-02  0.4068E-02  0.3616E-01  0.3616E-01
    -17.189  0.6256E-02  0.6256E-02  0.3678E-01  0.3678E-01
    -17.089  0.6588E-02  0.6588E-02  0.3744E-01  0.3744E-01
    -16.989  0.1025E-01  0.1025E-01  0.3846E-01  0.3846E-01
    -16.889  0.5501E-02  0.5502E-02  0.3901E-01  0.3901E-01
    -16.790  0.7762E-02  0.7761E-02  0.3979E-01  0.3979E-01
    -16.690  0.4315E-02  0.4315E-02  0.4022E-01  0.4022E-01
    -16.590  0.1478E-01  0.1478E-01  0.4169E-01  0.4169E-01
    -16.490  0.1726E-01  0.1726E-01  0.4342E-01  0.4342E-01
    -16.390  0.8372E-03  0.8378E-03  0.4350E-01  0.4350E-01
    -16.290  0.1089E-06  0.1091E-06  0.4350E-01  0.4350E-01
    -16.191  0.8282E-04  0.8275E-04  0.4351E-01  0.4351E-01
    -16.091  0.3245E-02  0.3244E-02  0.4383E-01  0.4383E-01
    -15.991  0.4163E-02  0.4164E-02  0.4425E-01  0.4425E-01
    -15.891  0.2940E-02  0.2939E-02  0.4454E-01  0.4454E-01
    -15.791  0.4519E-02  0.4520E-02  0.4499E-01  0.4499E-01
    -15.691  0.5432E-02  0.5431E-02  0.4553E-01  0.4553E-01
    -15.592  0.6284E-02  0.6284E-02  0.4616E-01  0.4616E-01
    -15.492  0.6142E-02  0.6142E-02  0.4678E-01  0.4678E-01
    -15.392  0.8468E-02  0.8468E-02  0.4762E-01  0.4762E-01
    -15.292  0.7240E-02  0.7240E-02  0.4834E-01  0.4834E-01
    -15.192  0.1520E-01  0.1520E-01  0.4986E-01  0.4986E-01
    -15.092  0.8642E-02  0.8643E-02  0.5072E-01  0.5072E-01
    -14.993  0.5416E-02  0.5417E-02  0.5126E-01  0.5126E-01
    -14.893  0.7226E-02  0.7224E-02  0.5199E-01  0.5199E-01
    -14.793  0.7842E-02  0.7843E-02  0.5277E-01  0.5277E-01
    -14.693  0.8456E-02  0.8455E-02  0.5361E-01  0.5361E-01
    -14.593  0.8424E-02  0.8424E-02  0.5445E-01  0.5445E-01
    -14.493  0.1433E-01  0.1433E-01  0.5588E-01  0.5588E-01
    -14.394  0.7020E-02  0.7019E-02  0.5658E-01  0.5658E-01
    -14.294  0.1109E-01  0.1109E-01  0.5769E-01  0.5769E-01
    -14.194  0.4374E-02  0.4374E-02  0.5813E-01  0.5813E-01
    -14.094  0.5263E-02  0.5264E-02  0.5865E-01  0.5865E-01
    -13.994  0.3396E-02  0.3396E-02  0.5899E-01  0.5899E-01
    -13.894  0.6150E-02  0.6150E-02  0.5961E-01  0.5961E-01
    -13.794  0.4548E-02  0.4549E-02  0.6006E-01  0.6006E-01
    -13.695  0.1206E-01  0.1206E-01  0.6126E-01  0.6126E-01
    -13.595  0.8285E-02  0.8285E-02  0.6209E-01  0.6209E-01
    -13.495  0.1054E-01  0.1054E-01  0.6314E-01  0.6314E-01
    -13.395  0.3565E-02  0.3565E-02  0.6350E-01  0.6350E-01
    -13.295  0.8328E-02  0.8328E-02  0.6433E-01  0.6433E-01
    -13.195  0.1700E-02  0.1701E-02  0.6450E-01  0.6450E-01
    -13.096  0.2253E-02  0.2252E-02  0.6473E-01  0.6473E-01
    -12.996  0.7509E-02  0.7509E-02  0.6548E-01  0.6548E-01
    -12.896  0.5816E-02  0.5816E-02  0.6606E-01  0.6606E-01
    -12.796  0.7868E-02  0.7867E-02  0.6684E-01  0.6684E-01
    -12.696  0.1403E-01  0.1403E-01  0.6824E-01  0.6824E-01
    -12.596  0.1320E-01  0.1320E-01  0.6956E-01  0.6956E-01
    -12.497  0.9619E-02  0.9620E-02  0.7052E-01  0.7052E-01
    -12.397  0.1004E-01  0.1004E-01  0.7152E-01  0.7152E-01
    -12.297  0.4303E-02  0.4304E-02  0.7195E-01  0.7195E-01
    -12.197  0.2224E-02  0.2223E-02  0.7217E-01  0.7217E-01
    -12.097  0.1105E-01  0.1105E-01  0.7328E-01  0.7328E-01
    -11.997  0.2858E-02  0.2858E-02  0.7356E-01  0.7356E-01
    -11.898  0.4506E-02  0.4506E-02  0.7401E-01  0.7401E-01
    -11.798  0.8654E-02  0.8653E-02  0.7488E-01  0.7488E-01
    -11.698  0.1238E-01  0.1238E-01  0.7611E-01  0.7611E-01
    -11.598  0.9535E-02  0.9535E-02  0.7706E-01  0.7706E-01
    -11.498  0.1272E-01  0.1272E-01  0.7833E-01  0.7833E-01
    -11.398  0.1244E-01  0.1244E-01  0.7957E-01  0.7957E-01
    -11.299  0.1236E-01  0.1236E-01  0.8081E-01  0.8081E-01
    -11.199  0.8407E-02  0.8406E-02  0.8165E-01  0.8165E-01
    -11.099  0.1056E-01  0.1056E-01  0.8270E-01  0.8270E-01
    -10.999  0.7079E-02  0.7080E-02  0.8341E-01  0.8341E-01
    -10.899  0.9252E-02  0.9251E-02  0.8433E-01  0.8433E-01
    -10.799  0.7125E-02  0.7125E-02  0.8504E-01  0.8504E-01
    -10.700  0.9169E-02  0.9171E-02  0.8596E-01  0.8596E-01
    -10.600  0.1145E-02  0.1145E-02  0.8607E-01  0.8607E-01
    -10.500  0.4304E-02  0.4304E-02  0.8650E-01  0.8650E-01
    -10.400  0.1229E-01  0.1229E-01  0.8773E-01  0.8773E-01
    -10.300  0.1542E-01  0.1542E-01  0.8927E-01  0.8927E-01
    -10.200  0.1653E-01  0.1653E-01  0.9092E-01  0.9092E-01
    -10.101  0.1809E-01  0.1809E-01  0.9273E-01  0.9273E-01
    -10.001  0.1548E-01  0.1549E-01  0.9427E-01  0.9427E-01
     -9.901  0.1579E-01  0.1579E-01  0.9585E-01  0.9585E-01
     -9.801  0.1672E-01  0.1672E-01  0.9752E-01  0.9752E-01
     -9.701  0.1794E-01  0.1794E-01  0.9931E-01  0.9931E-01
     -9.601  0.2328E-01  0.2328E-01  0.1016E+00  0.1016E+00
     -9.502  0.1745E-01  0.1745E-01  0.1034E+00  0.1034E+00
     -9.402  0.2120E-01  0.2120E-01  0.1055E+00  0.1055E+00
     -9.302  0.1226E-01  0.1226E-01  0.1067E+00  0.1067E+00
     -9.202  0.2385E-01  0.2384E-01  0.1091E+00  0.1091E+00
     -9.102  0.2024E-01  0.2024E-01  0.1111E+00  0.1111E+00
     -9.002  0.2931E-01  0.2931E-01  0.1140E+00  0.1140E+00
     -8.903  0.2143E-01  0.2143E-01  0.1162E+00  0.1162E+00
     -8.803  0.1631E-01  0.1631E-01  0.1178E+00  0.1178E+00
     -8.703  0.2171E-01  0.2171E-01  0.1200E+00  0.1200E+00
     -8.603  0.1350E-01  0.1350E-01  0.1213E+00  0.1213E+00
     -8.503  0.1463E-01  0.1462E-01  0.1228E+00  0.1228E+00
     -8.403  0.2141E-01  0.2141E-01  0.1249E+00  0.1249E+00
     -8.304  0.2536E-01  0.2536E-01  0.1275E+00  0.1275E+00
     -8.204  0.1815E-01  0.1815E-01  0.1293E+00  0.1293E+00
     -8.104  0.1379E-01  0.1379E-01  0.1306E+00  0.1306E+00
     -8.004  0.1629E-01  0.1629E-01  0.1323E+00  0.1323E+00
     -7.904  0.1287E-01  0.1287E-01  0.1336E+00  0.1336E+00
     -7.804  0.1693E-01  0.1693E-01  0.1352E+00  0.1352E+00
     -7.705  0.4839E-02  0.4839E-02  0.1357E+00  0.1357E+00
     -7.605  0.1189E-01  0.1189E-01  0.1369E+00  0.1369E+00
     -7.505  0.2011E-01  0.2011E-01  0.1389E+00  0.1389E+00
     -7.405  0.1552E-01  0.1552E-01  0.1405E+00  0.1405E+00
     -7.305  0.2121E-01  0.2121E-01  0.1426E+00  0.1426E+00
     -7.205  0.1591E-01  0.1591E-01  0.1442E+00  0.1442E+00
     -7.106  0.1935E-01  0.1934E-01  0.1461E+00  0.1461E+00
     -7.006  0.1183E-01  0.1183E-01  0.1473E+00  0.1473E+00
     -6.906  0.9063E-02  0.9062E-02  0.1482E+00  0.1482E+00
     -6.806  0.1045E-01  0.1045E-01  0.1492E+00  0.1492E+00
     -6.706  0.1401E-01  0.1401E-01  0.1506E+00  0.1506E+00
     -6.606  0.9710E-02  0.9711E-02  0.1516E+00  0.1516E+00
     -6.507  0.1020E-01  0.1021E-01  0.1526E+00  0.1526E+00
     -6.407  0.1671E-01  0.1670E-01  0.1543E+00  0.1543E+00
     -6.307  0.2773E-01  0.2773E-01  0.1571E+00  0.1571E+00
     -6.207  0.1168E-01  0.1168E-01  0.1582E+00  0.1582E+00
     -6.107  0.8031E-02  0.8033E-02  0.1590E+00  0.1590E+00
     -6.007  0.1169E-01  0.1169E-01  0.1602E+00  0.1602E+00
     -5.908  0.1877E-01  0.1877E-01  0.1621E+00  0.1621E+00
     -5.808  0.4500E-02  0.4501E-02  0.1625E+00  0.1625E+00
     -5.708  0.6024E-02  0.6023E-02  0.1631E+00  0.1631E+00
     -5.608  0.5819E-02  0.5819E-02  0.1637E+00  0.1637E+00
     -5.508  0.3393E-02  0.3392E-02  0.1640E+00  0.1640E+00
     -5.408  0.6878E-02  0.6878E-02  0.1647E+00  0.1647E+00
     -5.309  0.4370E-02  0.4370E-02  0.1652E+00  0.1652E+00
     -5.209  0.2166E-01  0.2166E-01  0.1673E+00  0.1673E+00
     -5.109  0.1594E-01  0.1594E-01  0.1689E+00  0.1689E+00
     -5.009  0.2308E-01  0.2308E-01  0.1712E+00  0.1712E+00
     -4.909  0.1489E-01  0.1489E-01  0.1727E+00  0.1727E+00
     -4.809  0.5253E-02  0.5254E-02  0.1732E+00  0.1732E+00
     -4.710  0.2109E-03  0.2109E-03  0.1733E+00  0.1733E+00
     -4.610  0.7233E-02  0.7231E-02  0.1740E+00  0.1740E+00
     -4.510  0.1694E-01  0.1694E-01  0.1757E+00  0.1757E+00
     -4.410  0.1095E-01  0.1095E-01  0.1768E+00  0.1768E+00
     -4.310  0.1569E-01  0.1569E-01  0.1783E+00  0.1783E+00
     -4.210  0.1888E-01  0.1888E-01  0.1802E+00  0.1802E+00
     -4.111  0.9252E-02  0.9252E-02  0.1811E+00  0.1811E+00
     -4.011  0.7986E-02  0.7986E-02  0.1819E+00  0.1819E+00
     -3.911  0.1305E-02  0.1306E-02  0.1821E+00  0.1821E+00
     -3.811  0.1828E-02  0.1828E-02  0.1822E+00  0.1822E+00
     -3.711  0.1672E-03  0.1671E-03  0.1823E+00  0.1823E+00
     -3.611  0.2282E-02  0.2282E-02  0.1825E+00  0.1825E+00
     -3.512  0.5538E-02  0.5538E-02  0.1830E+00  0.1830E+00
     -3.412  0.2071E-02  0.2072E-02  0.1833E+00  0.1833E+00
     -3.312  0.1328E-02  0.1328E-02  0.1834E+00  0.1834E+00
     -3.212  0.1167E-02  0.1168E-02  0.1835E+00  0.1835E+00
     -3.112  0.1781E-04  0.1780E-04  0.1835E+00  0.1835E+00
     -3.012  0.2558E-02  0.2557E-02  0.1838E+00  0.1838E+00
     -2.913  0.2426E-02  0.2427E-02  0.1840E+00  0.1840E+00
     -2.813  0.1069E-04  0.1071E-04  0.1840E+00  0.1840E+00
     -2.713  0.2768E-09  0.2762E-09  0.1840E+00  0.1840E+00
     -2.613  0.3038E-04  0.3034E-04  0.1840E+00  0.1840E+00
     -2.513  0.3094E-02  0.3093E-02  0.1843E+00  0.1843E+00
     -2.413  0.1880E-02  0.1881E-02  0.1845E+00  0.1845E+00
     -2.314  0.4242E-05  0.4249E-05  0.1845E+00  0.1845E+00
     -2.214  0.3944E-05  0.3938E-05  0.1845E+00  0.1845E+00
     -2.114  0.1742E-02  0.1742E-02  0.1847E+00  0.1847E+00
     -2.014  0.4926E-02  0.4926E-02  0.1852E+00  0.1852E+00
     -1.914  0.2053E-02  0.2053E-02  0.1854E+00  0.1854E+00
     -1.814  0.5352E-02  0.5352E-02  0.1859E+00  0.1859E+00
     -1.715  0.9464E-03  0.9469E-03  0.1860E+00  0.1860E+00
     -1.615  0.4585E-03  0.4582E-03  0.1860E+00  0.1860E+00
     -1.515  0.7064E-02  0.7064E-02  0.1868E+00  0.1868E+00
     -1.415  0.4536E-02  0.4536E-02  0.1872E+00  0.1872E+00
     -1.315  0.2946E-02  0.2946E-02  0.1875E+00  0.1875E+00
     -1.215  0.1187E-02  0.1187E-02  0.1876E+00  0.1876E+00
     -1.116  0.8106E-02  0.8105E-02  0.1884E+00  0.1884E+00
     -1.016  0.1788E-01  0.1788E-01  0.1902E+00  0.1902E+00
     -0.916  0.7610E-02  0.7611E-02  0.1910E+00  0.1910E+00
     -0.816  0.1069E-01  0.1069E-01  0.1920E+00  0.1920E+00
     -0.716  0.8994E-02  0.8994E-02  0.1929E+00  0.1929E+00
     -0.616  0.6335E-02  0.6335E-02  0.1936E+00  0.1936E+00
     -0.517  0.6526E-02  0.6527E-02  0.1942E+00  0.1942E+00
     -0.417  0.5494E-02  0.5493E-02  0.1948E+00  0.1948E+00
     -0.317  0.7462E-02  0.7462E-02  0.1955E+00  0.1955E+00
     -0.217  0.1081E-01  0.1081E-01  0.1966E+00  0.1966E+00
     -0.117  0.1021E-01  0.1021E-01  0.1976E+00  0.1976E+00
     -0.017  0.1075E-01  0.1075E-01  0.1987E+00  0.1987E+00
      0.082  0.9807E-02  0.9808E-02  0.1997E+00  0.1997E+00
      0.182  0.3164E-02  0.3165E-02  0.2000E+00  0.2000E+00
      0.282  0.4338E-03  0.4337E-03  0.2000E+00  0.2000E+00
      0.382  0.5068E-02  0.5067E-02  0.2005E+00  0.2005E+00
      0.482  0.7138E-02  0.7138E-02  0.2012E+00  0.2012E+00
      0.582  0.1028E-01  0.1028E-01  0.2023E+00  0.2023E+00
      0.681  0.4626E-02  0.4626E-02  0.2027E+00  0.2027E+00
      0.781  0.4400E-02  0.4400E-02  0.2032E+00  0.2032E+00
      0.881  0.6630E-02  0.6631E-02  0.2038E+00  0.2038E+00
      0.981  0.9795E-02  0.9795E-02  0.2048E+00  0.2048E+00
      1.081  0.9094E-02  0.9095E-02  0.2057E+00  0.2057E+00
      1.181  0.4401E-02  0.4399E-02  0.2062E+00  0.2062E+00
      1.280  0.1314E-01  0.1314E-01  0.2075E+00  0.2075E+00
      1.380  0.1958E-01  0.1958E-01  0.2094E+00  0.2094E+00
      1.480  0.1685E-01  0.1685E-01  0.2111E+00  0.2111E+00
      1.580  0.8166E-02  0.8167E-02  0.2119E+00  0.2119E+00
      1.680  0.5560E-02  0.5560E-02  0.2125E+00  0.2125E+00
      1.780  0.7811E-02  0.7811E-02  0.2133E+00  0.2133E+00
      1.880  0.1135E-01  0.1135E-01  0.2144E+00  0.2144E+00
      1.979  0.2289E-01  0.2289E-01  0.2167E+00  0.2167E+00
      2.079  0.2609E-01  0.2609E-01  0.2193E+00  0.2193E+00
      2.179  0.4084E-02  0.4085E-02  0.2197E+00  0.2197E+00
      2.279  0.1640E-01  0.1640E-01  0.2213E+00  0.2213E+00
      2.379  0.2367E-01  0.2367E-01  0.2237E+00  0.2237E+00
      2.479  0.2163E-01  0.2163E-01  0.2258E+00  0.2258E+00
      2.578  0.6503E-02  0.6502E-02  0.2265E+00  0.2265E+00
      2.678  0.1096E-01  0.1096E-01  0.2276E+00  0.2276E+00
      2.778  0.2071E-01  0.2071E-01  0.2297E+00  0.2297E+00
      2.878  0.4489E-01  0.4489E-01  0.2341E+00  0.2341E+00
      2.978  0.4217E-01  0.4217E-01  0.2383E+00  0.2383E+00
      3.078  0.1335E-01  0.1335E-01  0.2397E+00  0.2397E+00
      3.177  0.1025E-01  0.1025E-01  0.2407E+00  0.2407E+00
      3.277  0.1535E-01  0.1535E-01  0.2422E+00  0.2422E+00
      3.377  0.1443E-01  0.1443E-01  0.2437E+00  0.2437E+00
      3.477  0.3284E-01  0.3284E-01  0.2470E+00  0.2470E+00
      3.577  0.1003E-01  0.1003E-01  0.2480E+00  0.2480E+00
      3.677  0.1035E-01  0.1035E-01  0.2490E+00  0.2490E+00
      3.776  0.2352E-01  0.2352E-01  0.2513E+00  0.2513E+00
      3.876  0.3367E-01  0.3367E-01  0.2547E+00  0.2547E+00
      3.976  0.2330E-01  0.2330E-01  0.2570E+00  0.2570E+00
      4.076  0.1487E-01  0.1487E-01  0.2585E+00  0.2585E+00
      4.176  0.1524E-01  0.1481E-01  0.2600E+00  0.2600E+00
      4.276  0.2201E-01  0.2031E-01  0.2622E+00  0.2620E+00
      4.375  0.2114E-01  0.2242E-01  0.2643E+00  0.2643E+00
      4.475  0.6010E-02  0.5338E-02  0.2649E+00  0.2648E+00
      4.575  0.6160E-03  0.2048E-02  0.2650E+00  0.2650E+00
      4.675  0.4936E-06  0.9058E-04  0.2650E+00  0.2650E+00
      4.775  0.2400E-12  0.4789E-08  0.2650E+00  0.2650E+00
      4.875  0.0000E+00  0.1218E-15  0.2650E+00  0.2650E+00
      4.974  0.0000E+00  0.0000E+00  0.2650E+00  0.2650E+00
      5.074  0.0000E+00  0.0000E+00  0.2650E+00  0.2650E+00
      5.174  0.0000E+00  0.0000E+00  0.2650E+00  0.2650E+00
      5.274  0.0000E+00  0.0000E+00  0.2650E+00  0.2650E+00
      5.374  0.0000E+00  0.0000E+00  0.2650E+00  0.2650E+00
      5.474  0.0000E+00  0.0000E+00  0.2650E+00  0.2650E+00
      5.573  0.0000E+00  0.0000E+00  0.2650E+00  0.2650E+00
      5.673  0.0000E+00  0.0000E+00  0.2650E+00  0.2650E+00
      5.773  0.0000E+00  0.0000E+00  0.2650E+00  0.2650E+00
      5.873  0.0000E+00  0.0000E+00  0.2650E+00  0.2650E+00
