 vasp.6.4.2 20Jul23 (build Aug 26 2025 15:10:52) complex                        
  
 executed on             LinuxIFC date 2025.12.02  12:58:02
 running   50 mpi-ranks, on    1 nodes
 each image running on   10 cores
 distrk:  each k-point on    5 cores,    2 groups
 distr:  one band on NCORE=   1 cores,    5 groups


--------------------------------------------------------------------------------------------------------


 INCAR:
   ENCUT = 520
   EDIFF = 1E-6
   NELM = 200
   ALGO = Normal
   ISMEAR = 0
   SIGMA = 0.05
   LASPH = .TRUE.
   ADDGRID = .TRUE.
   LREAL = Auto
   ISYM = 0
   ISPIN = 2
   MAGMOM = 95*0.6
   IMIX = 4
   AMIX = 0.20
   BMIX = 1E-4
   AMIX_MAG = 0.80
   BMIX_MAG = 1E-4
   IBRION = 3
   IOPT = 7
   IMAGES = 5
   SPRING = -5
   LCLIMB = .TRUE.
   ISIF = 2
   EDIFFG = -0.03
   NSW = 1000
   IVDW = 12
   ISTART = 0
   ICHARG = 2
   LWAVE = .FALSE.
   LCHARG = .FALSE.
   KPAR = 2

 POTCAR:    PAW_PBE C 08Apr2002                   
 POTCAR:    PAW_PBE H 15Jun2001                   
 POTCAR:    PAW_PBE N 08Apr2002                   
 POTCAR:    PAW_PBE O 08Apr2002                   
 -----------------------------------------------------------------------------
|                                                                             |
|           W    W    AA    RRRRR   N    N  II  N    N   GGGG   !!!           |
|           W    W   A  A   R    R  NN   N  II  NN   N  G    G  !!!           |
|           W    W  A    A  R    R  N N  N  II  N N  N  G       !!!           |
|           W WW W  AAAAAA  RRRRR   N  N N  II  N  N N  G  GGG   !            |
|           WW  WW  A    A  R   R   N   NN  II  N   NN  G    G                |
|           W    W  A    A  R    R  N    N  II  N    N   GGGG   !!!           |
|                                                                             |
|     For optimal performance we recommend to set                             |
|       NCORE = 2 up to number-of-cores-per-socket                            |
|     NCORE specifies how many cores store one orbital (NPAR=cpu/NCORE).      |
|     This setting can greatly improve the performance of VASP for DFT.       |
|     The default, NCORE=1 might be grossly inefficient on modern             |
|     multi-core architectures or massively parallel machines. Do your        |
|     own testing! More info at https://www.vasp.at/wiki/index.php/NCORE      |
|     Unfortunately you need to use the default for GW and RPA                |
|     calculations (for HF NCORE is supported but not extensively tested      |
|     yet).                                                                   |
|                                                                             |
 -----------------------------------------------------------------------------

 POTCAR:    PAW_PBE C 08Apr2002                   
   SHA256 =  253f7b50bb8d59471dbedb8285d89021f4a42ed1a2c5d38a03a736e69125dd95 C/POTCAR              
   COPYR  = (c) Copyright 08Apr2002 Georg Kresse                                                    
   COPYR  = This file is part of the software VASP. Any use, copying, and all other rights are regul
   COPYR  = If you do not have a valid VASP license, you may not use, copy or distribute this file. 
   VRHFIN =C: s2p2                                                                                  
   LEXCH  = PE                                                                                      
   EATOM  =   147.1560 eV,   10.8157 Ry                                                             
                                                                                                    
   TITEL  = PAW_PBE C 08Apr2002                                                                     
   LULTRA =        F    use ultrasoft PP ?                                                          
   IUNSCR =        1    unscreen: 0-lin 1-nonlin 2-no                                               
   RPACOR =    1.200    partial core radius                                                         
   POMASS =   12.011; ZVAL   =    4.000    mass and valenz                                          
   RCORE  =    1.500    outmost cutoff radius                                                       
   RWIGS  =    1.630; RWIGS  =    0.863    wigner-seitz radius (au A)                               
   ENMAX  =  400.000; ENMIN  =  300.000 eV                                                          
   ICORE  =        2    local potential                                                             
   LCOR   =        T    correct aug charges                                                         
   LPAW   =        T    paw PP                                                                      
   EAUG   =  644.873                                                                                
   DEXC   =    0.000                                                                                
   RMAX   =    1.529    core radius for proj-oper                                                   
   RAUG   =    1.300    factor for augmentation sphere                                              
   RDEP   =    1.501    radius for radial grids                                                     
   RDEPT  =    1.300    core radius for aug-charge                                                  
                                                                                                    
   Atomic configuration                                                                             
    4 entries                                                                                       
     n  l   j            E        occ.                                                              
     1  0  0.50      -273.3789   2.0000                                                             
     2  0  0.50       -13.7508   2.0000                                                             
     2  1  0.50        -5.2854   2.0000                                                             
     3  2  1.50        -5.4423   0.0000                                                             
   Description                                                                                      
     l       E           TYP  RCUT    TYP  RCUT                                                     
     0    -13.7508458     23  1.200                                                                 
     0     -8.2022199     23  1.200                                                                 
     1     -5.2854383     23  1.500                                                                 
     1     34.0145650     23  1.500                                                                 
     2     -5.4423304      7  1.500                                                                 
  local pseudopotential read in
  partial core-charges read in
  partial kinetic energy density read in
  atomic valenz-charges read in
  non local Contribution for L=           0  read in
    real space projection operators read in
  non local Contribution for L=           0  read in
    real space projection operators read in
  non local Contribution for L=           1  read in
    real space projection operators read in
  non local Contribution for L=           1  read in
    real space projection operators read in
    PAW grid and wavefunctions read in
 
   number of l-projection  operators is LMAX  =           4
   number of lm-projection operators is LMMAX =           8
 
 POTCAR:    PAW_PBE H 15Jun2001                   
   SHA256 =  030f79b5d3ab3cf0e668861823c8fb652ff669f3e15e46930bd03bfd63a607b6 H/POTCAR              
   COPYR  = (c) Copyright 15Jun2001 Georg Kresse                                                    
   COPYR  = This file is part of the software VASP. Any use, copying, and all other rights are regul
   COPYR  = If you do not have a valid VASP license, you may not use, copy or distribute this file. 
   VRHFIN =H: ultrasoft test                                                                        
   LEXCH  = PE                                                                                      
   EATOM  =    12.4884 eV,    0.9179 Ry                                                             
                                                                                                    
   TITEL  = PAW_PBE H 15Jun2001                                                                     
   LULTRA =        F    use ultrasoft PP ?                                                          
   IUNSCR =        0    unscreen: 0-lin 1-nonlin 2-no                                               
   RPACOR =    0.000    partial core radius                                                         
   POMASS =    1.000; ZVAL   =    1.000    mass and valenz                                          
   RCORE  =    1.100    outmost cutoff radius                                                       
   RWIGS  =    0.700; RWIGS  =    0.370    wigner-seitz radius (au A)                               
   ENMAX  =  250.000; ENMIN  =  200.000 eV                                                          
   RCLOC  =    0.701    cutoff for local pot                                                        
   LCOR   =        T    correct aug charges                                                         
   LPAW   =        T    paw PP                                                                      
   EAUG   =  400.000                                                                                
   RMAX   =    1.123    core radius for proj-oper                                                   
   RAUG   =    1.200    factor for augmentation sphere                                              
   RDEP   =    1.112    radius for radial grids                                                     
   RDEPT  =    0.926    core radius for aug-charge                                                  
                                                                                                    
   Atomic configuration                                                                             
    2 entries                                                                                       
     n  l   j            E        occ.                                                              
     1  0  0.50        -6.4927   1.0000                                                             
     2  1  0.50        -3.4015   0.0000                                                             
   Description                                                                                      
     l       E           TYP  RCUT    TYP  RCUT                                                     
     0     -6.4927494     23  1.100                                                                 
     0      6.8029130     23  1.100                                                                 
     1     -4.0817478     23  1.100                                                                 
  local pseudopotential read in
  atomic valenz-charges read in
  non local Contribution for L=           0  read in
    real space projection operators read in
  non local Contribution for L=           0  read in
    real space projection operators read in
  non local Contribution for L=           1  read in
    real space projection operators read in
    PAW grid and wavefunctions read in
 
   number of l-projection  operators is LMAX  =           3
   number of lm-projection operators is LMMAX =           5
 
 POTCAR:    PAW_PBE N 08Apr2002                   
   SHA256 =  e053789ff3a61a86a1b75d8a110fcc91f86041011e7b0817c7c99e4e8a6349d7 N/POTCAR              
   COPYR  = (c) Copyright 08Apr2002 Georg Kresse                                                    
   COPYR  = This file is part of the software VASP. Any use, copying, and all other rights are regul
   COPYR  = If you do not have a valid VASP license, you may not use, copy or distribute this file. 
   VRHFIN =N: s2p3                                                                                  
   LEXCH  = PE                                                                                      
   EATOM  =   264.5486 eV,   19.4438 Ry                                                             
                                                                                                    
   TITEL  = PAW_PBE N 08Apr2002                                                                     
   LULTRA =        F    use ultrasoft PP ?                                                          
   IUNSCR =        1    unscreen: 0-lin 1-nonlin 2-no                                               
   RPACOR =    1.200    partial core radius                                                         
   POMASS =   14.001; ZVAL   =    5.000    mass and valenz                                          
   RCORE  =    1.500    outmost cutoff radius                                                       
   RWIGS  =    1.400; RWIGS  =    0.741    wigner-seitz radius (au A)                               
   ENMAX  =  400.000; ENMIN  =  300.000 eV                                                          
   ICORE  =        2    local potential                                                             
   LCOR   =        T    correct aug charges                                                         
   LPAW   =        T    paw PP                                                                      
   EAUG   =  627.112                                                                                
   DEXC   =    0.000                                                                                
   RMAX   =    1.529    core radius for proj-oper                                                   
   RAUG   =    1.300    factor for augmentation sphere                                              
   RDEP   =    1.514    radius for radial grids                                                     
   RDEPT  =    1.338    core radius for aug-charge                                                  
                                                                                                    
   Atomic configuration                                                                             
    4 entries                                                                                       
     n  l   j            E        occ.                                                              
     1  0  0.50      -384.7179   2.0000                                                             
     2  0  0.50       -18.5828   2.0000                                                             
     2  1  0.50        -7.0898   3.0000                                                             
     3  2  1.50        -6.8029   0.0000                                                             
   Description                                                                                      
     l       E           TYP  RCUT    TYP  RCUT                                                     
     0    -18.5828119     23  1.200                                                                 
     0    -13.5018863     23  1.200                                                                 
     1     -7.0897853     23  1.500                                                                 
     1      9.5240782     23  1.500                                                                 
     2     -6.8029130      7  1.500                                                                 
  local pseudopotential read in
  partial core-charges read in
  partial kinetic energy density read in
  atomic valenz-charges read in
  non local Contribution for L=           0  read in
    real space projection operators read in
  non local Contribution for L=           0  read in
    real space projection operators read in
  non local Contribution for L=           1  read in
    real space projection operators read in
  non local Contribution for L=           1  read in
    real space projection operators read in
    PAW grid and wavefunctions read in
 
   number of l-projection  operators is LMAX  =           4
   number of lm-projection operators is LMMAX =           8
 
 POTCAR:    PAW_PBE O 08Apr2002                   
   SHA256 =  818f92134a0a090dccd8ba1447fa70422a3b330e708bb4f08108d8ae51209ddf O/POTCAR              
   COPYR  = (c) Copyright 08Apr2002 Georg Kresse                                                    
   COPYR  = This file is part of the software VASP. Any use, copying, and all other rights are regul
   COPYR  = If you do not have a valid VASP license, you may not use, copy or distribute this file. 
   VRHFIN =O: s2p4                                                                                  
   LEXCH  = PE                                                                                      
   EATOM  =   432.3788 eV,   31.7789 Ry                                                             
                                                                                                    
   TITEL  = PAW_PBE O 08Apr2002                                                                     
   LULTRA =        F    use ultrasoft PP ?                                                          
   IUNSCR =        1    unscreen: 0-lin 1-nonlin 2-no                                               
   RPACOR =    1.200    partial core radius                                                         
   POMASS =   16.000; ZVAL   =    6.000    mass and valenz                                          
   RCORE  =    1.520    outmost cutoff radius                                                       
   RWIGS  =    1.550; RWIGS  =    0.820    wigner-seitz radius (au A)                               
   ENMAX  =  400.000; ENMIN  =  300.000 eV                                                          
   ICORE  =        2    local potential                                                             
   LCOR   =        T    correct aug charges                                                         
   LPAW   =        T    paw PP                                                                      
   EAUG   =  605.392                                                                                
   DEXC   =    0.000                                                                                
   RMAX   =    1.553    core radius for proj-oper                                                   
   RAUG   =    1.300    factor for augmentation sphere                                              
   RDEP   =    1.550    radius for radial grids                                                     
   RDEPT  =    1.329    core radius for aug-charge                                                  
                                                                                                    
   Atomic configuration                                                                             
    4 entries                                                                                       
     n  l   j            E        occ.                                                              
     1  0  0.50      -514.6923   2.0000                                                             
     2  0  0.50       -23.9615   2.0000                                                             
     2  1  0.50        -9.0305   4.0000                                                             
     3  2  1.50        -9.5241   0.0000                                                             
   Description                                                                                      
     l       E           TYP  RCUT    TYP  RCUT                                                     
     0    -23.9615318     23  1.200                                                                 
     0     -9.5240782     23  1.200                                                                 
     1     -9.0304911     23  1.520                                                                 
     1      8.1634956     23  1.520                                                                 
     2     -9.5240782      7  1.500                                                                 
  local pseudopotential read in
  partial core-charges read in
  partial kinetic energy density read in
  kinetic energy density of atom read in
  atomic valenz-charges read in
  non local Contribution for L=           0  read in
    real space projection operators read in
  non local Contribution for L=           0  read in
    real space projection operators read in
  non local Contribution for L=           1  read in
    real space projection operators read in
  non local Contribution for L=           1  read in
    real space projection operators read in
    PAW grid and wavefunctions read in
 
   number of l-projection  operators is LMAX  =           4
   number of lm-projection operators is LMMAX =           8
 
 Optimization of the real space projectors (new method)

 maximal supplied QI-value         = 25.13
 optimisation between [QCUT,QGAM] = [ 11.56, 23.12] = [ 37.43,149.72] Ry 
 Optimized for a Real-space Cutoff    1.04 Angstroem

   l    n(q)    QCUT    max X(q) W(low)/X(q) W(high)/X(q)  e(spline) 
   0      7    11.561   115.676    0.20E-03    0.60E-03    0.21E-06
   0      7    11.561    87.132    0.20E-03    0.59E-03    0.21E-06
   1      7    11.561     4.429    0.23E-03    0.35E-03    0.15E-06
   1      7    11.561     2.733    0.18E-03    0.25E-03    0.12E-06
 Optimization of the real space projectors (new method)

 maximal supplied QI-value         = 34.20
 optimisation between [QCUT,QGAM] = [ 11.63, 23.26] = [ 37.87,151.49] Ry 
 Optimized for a Real-space Cutoff    1.14 Angstroem

   l    n(q)    QCUT    max X(q) W(low)/X(q) W(high)/X(q)  e(spline) 
   0      8    11.629    19.460    0.27E-03    0.65E-03    0.17E-06
   0      8    11.629    12.209    0.25E-03    0.62E-03    0.16E-06
   1      7    11.629     4.655    0.29E-03    0.85E-04    0.19E-06
 Optimization of the real space projectors (new method)

 maximal supplied QI-value         = 25.13
 optimisation between [QCUT,QGAM] = [ 11.56, 23.12] = [ 37.43,149.72] Ry 
 Optimized for a Real-space Cutoff    1.25 Angstroem

   l    n(q)    QCUT    max X(q) W(low)/X(q) W(high)/X(q)  e(spline) 
   0      9    11.561    79.467    0.52E-04    0.16E-03    0.37E-06
   0      9    11.561    66.151    0.51E-04    0.16E-03    0.37E-06
   1      8    11.561    18.886    0.46E-03    0.28E-03    0.80E-06
   1      8    11.561    13.488    0.47E-03    0.29E-03    0.82E-06
 Optimization of the real space projectors (new method)

 maximal supplied QI-value         = 24.76
 optimisation between [QCUT,QGAM] = [ 11.64, 23.27] = [ 37.91,151.63] Ry 
 Optimized for a Real-space Cutoff    1.04 Angstroem

   l    n(q)    QCUT    max X(q) W(low)/X(q) W(high)/X(q)  e(spline) 
   0      7    11.635    20.381    0.14E-03    0.49E-03    0.18E-06
   0      7    11.635    15.268    0.16E-03    0.52E-03    0.19E-06
   1      7    11.635     5.964    0.30E-03    0.44E-03    0.22E-06
   1      7    11.635     5.382    0.27E-03    0.34E-03    0.19E-06
  PAW_PBE C 08Apr2002                   :
 energy of atom  1       EATOM= -147.1560
 kinetic energy error for atom=    0.0071 (will be added to EATOM!!)
  PAW_PBE H 15Jun2001                   :
 energy of atom  2       EATOM=  -12.4884
 kinetic energy error for atom=    0.0014 (will be added to EATOM!!)
  PAW_PBE N 08Apr2002                   :
 energy of atom  3       EATOM= -264.5486
 kinetic energy error for atom=    0.0125 (will be added to EATOM!!)
  PAW_PBE O 08Apr2002                   :
 energy of atom  4       EATOM= -432.3788
 kinetic energy error for atom=    0.0208 (will be added to EATOM!!)
 
 
 POSCAR: C    H    N    O
  positions in direct lattice
  velocities in cartesian coordinates
 exchange correlation table for  LEXCH =        8
   RHO(1)=    0.500       N(1)  =     2000
   RHO(2)=  100.500       N(2)  =     4000

 VTST: version 4.1, (05/19/21)

 CHAIN: initializing optimizer
 
 OPT: Using FIRE optimizer
 OPT: FIRE, Init
 OPT: FIRE, MAXMOVE       0.20000
 OPT: FIRE, TIMESTEP      0.10000
 OPT: FIRE, FTIMEMAX      1.00000
 OPT: FIRE, FTIMEINC      1.10000
 OPT: FIRE, FTIMEDEC      0.50000
 OPT: FIRE, FALPHADEC     0.99000
 OPT: FIRE, FALPHA        0.10000
 OPT: FIRE, FNMIN         5
 
 CHAIN: Read ICHAIN            0
 CHAIN: Running the NEB
 NEB:          SPRING     -5.000000
 NEB:          LCLIMB      T
 NEB:     LTANGENTOLD      F
 NEB:           LDNEB      F
 NEB:        LDNEBORG      F
 NEB:        LNEBCELL      F
 NEB:          EFIRST      0.000000
 NEB:           ELAST      0.000000
 
 POSCAR: C    H    N    O
  positions in direct lattice
  No initial velocities read in
 
 POSCAR: C    H    N    O
  positions in direct lattice
  No initial velocities read in
 
 POSCAR: C    H    N    O
  positions in direct lattice
  No initial velocities read in
 
 POSCAR: C    H    N    O
  positions in direct lattice
  No initial velocities read in
 


--------------------------------------------------------------------------------------------------------


 ion  position               nearest neighbor table
   1  0.002  0.001  0.501-  51 1.43  45 1.43  84 1.43
   2  0.001  0.143  0.500-  46 1.42  78 1.42  45 1.43
   3  0.001  0.286  0.500-  46 1.42  79 1.42  47 1.42
   4  0.001  0.429  0.500-  47 1.42  80 1.42  48 1.43
   5  0.001  0.572  0.500-  49 1.43  48 1.43  81 1.43
   6  0.002  0.715  0.500-  49 1.43  50 1.43  82 1.43
   7  0.002  0.858  0.500-  51 1.43  50 1.43  83 1.43
   8  0.145  0.002  0.500-  52 1.43  58 1.43  51 1.43
   9  0.145  0.145  0.499-  52 1.43  53 1.43  45 1.43
  10  0.143  0.286  0.499-  54 1.42  53 1.42  46 1.42
  11  0.143  0.428  0.499-  54 1.42  55 1.42  47 1.42
  12  0.145  0.572  0.499-  56 1.43  55 1.43  48 1.43
  13  0.145  0.715  0.500-  56 1.43  57 1.43  49 1.43
  14  0.145  0.858  0.500-  58 1.43  57 1.43  50 1.43
  15  0.288  0.002  0.499-  58 1.42  63 1.43  59 1.44
  16  0.288  0.147  0.499-  52 1.43  59 1.43  60 1.44
  17  0.288  0.293  0.497-  91 1.35  53 1.44  60 1.48
  18  0.286  0.428  0.496-  91 1.37  92 1.37  54 1.43
  19  0.288  0.566  0.497-  92 1.35  55 1.44  61 1.48
  20  0.288  0.713  0.499-  56 1.43  62 1.43  61 1.44
  21  0.288  0.858  0.500-  57 1.43  63 1.43  62 1.44
  22  0.431  0.001  0.500-  63 1.43  67 1.43  64 1.43
  23  0.431  0.146  0.499-  59 1.43  64 1.43  65 1.44
  24  0.431  0.287  0.499-  85 1.09  60 1.40  65 1.40
  25  0.431  0.715  0.499-  88 1.09  61 1.40  66 1.40
  26  0.431  0.857  0.499-  62 1.43  67 1.43  66 1.44
  27  0.573  0.001  0.500-  67 1.42  68 1.42  70 1.43
  28  0.573  0.144  0.500-  64 1.42  68 1.42  69 1.43
  29  0.577  0.290  0.500-  93 1.35  69 1.43  65 1.46
  30  0.577  0.858  0.500-  94 1.35  70 1.43  66 1.46
  31  0.716  0.001  0.500-  70 1.42  77 1.42  71 1.42
  32  0.716  0.144  0.501-  72 1.42  71 1.42  68 1.43
  33  0.716  0.286  0.500-  69 1.42  73 1.42  72 1.42
  34  0.712  0.426  0.500-  93 1.35  73 1.43  74 1.47
  35  0.716  0.572  0.498-  87 1.09  74 1.39  75 1.42
  36  0.716  0.715  0.498-  86 1.09  76 1.39  75 1.42
  37  0.712  0.858  0.500-  94 1.35  77 1.43  76 1.47
  38  0.858  0.000  0.501-  78 1.42  84 1.43  77 1.43
  39  0.858  0.143  0.501-  71 1.42  79 1.42  78 1.43
  40  0.858  0.286  0.501-  72 1.42  79 1.42  80 1.43
  41  0.858  0.429  0.501-  80 1.42  81 1.43  73 1.43
  42  0.857  0.572  0.500-  81 1.43  82 1.43  74 1.44
  43  0.859  0.715  0.500-  82 1.42  83 1.42  75 1.43
  44  0.858  0.857  0.500-  84 1.43  83 1.43  76 1.44
  45  0.049  0.096  0.500-   2 1.43   1 1.43   9 1.43
  46  0.048  0.238  0.500-   2 1.42   3 1.42  10 1.42
  47  0.048  0.381  0.500-   4 1.42   3 1.42  11 1.42
  48  0.049  0.524  0.500-   4 1.43   5 1.43  12 1.43
  49  0.050  0.667  0.500-   6 1.43   5 1.43  13 1.43
  50  0.050  0.810  0.500-   6 1.43   7 1.43  14 1.43
  51  0.050  0.954  0.500-   7 1.43   1 1.43   8 1.43
  52  0.193  0.097  0.499-   9 1.43   8 1.43  16 1.43
  53  0.192  0.240  0.499-  10 1.42   9 1.43  17 1.44
  54  0.190  0.381  0.498-  10 1.42  11 1.42  18 1.43
  55  0.192  0.523  0.498-  11 1.42  12 1.43  19 1.44
  56  0.193  0.667  0.499-  12 1.43  13 1.43  20 1.43
  57  0.193  0.810  0.500-  21 1.43  14 1.43  13 1.43
  58  0.193  0.954  0.500-  15 1.42  14 1.43   8 1.43
  59  0.336  0.098  0.499-  23 1.43  16 1.43  15 1.44
  60  0.337  0.243  0.498-  24 1.40  16 1.44  17 1.48
  61  0.337  0.665  0.498-  25 1.40  20 1.44  19 1.48
  62  0.336  0.809  0.499-  26 1.43  20 1.43  21 1.44
  63  0.335  0.953  0.500-  22 1.43  15 1.43  21 1.43
  64  0.478  0.097  0.500-  28 1.42  22 1.43  23 1.43
  65  0.479  0.242  0.499-  24 1.40  23 1.44  29 1.46
  66  0.479  0.808  0.499-  25 1.40  26 1.44  30 1.46
  67  0.478  0.953  0.500-  27 1.42  22 1.43  26 1.43
  68  0.620  0.096  0.500-  27 1.42  28 1.42  32 1.43
  69  0.621  0.239  0.500-  33 1.42  29 1.43  28 1.43
  70  0.621  0.953  0.500-  31 1.42  30 1.43  27 1.43
  71  0.763  0.096  0.501-  39 1.42  32 1.42  31 1.42
  72  0.763  0.238  0.501-  40 1.42  32 1.42  33 1.42
  73  0.763  0.381  0.500-  33 1.42  41 1.43  34 1.43
  74  0.761  0.524  0.500-  35 1.39  42 1.44  34 1.47
  75  0.763  0.667  0.498-  36 1.42  35 1.42  43 1.43
  76  0.761  0.808  0.499-  36 1.39  44 1.44  37 1.47
  77  0.763  0.953  0.500-  31 1.42  38 1.43  37 1.43
  78  0.906  0.095  0.501-  38 1.42   2 1.42  39 1.43
  79  0.906  0.238  0.501-   3 1.42  39 1.42  40 1.42
  80  0.906  0.382  0.501-  41 1.42   4 1.42  40 1.43
  81  0.906  0.525  0.501-  42 1.43  41 1.43   5 1.43
  82  0.906  0.667  0.500-  43 1.42  42 1.43   6 1.43
  83  0.906  0.810  0.500-  43 1.42  44 1.43   7 1.43
  84  0.906  0.953  0.501-  44 1.43  38 1.43   1 1.43
  85  0.468  0.360  0.500-  24 1.09
  86  0.643  0.678  0.495-  36 1.09
  87  0.643  0.537  0.495-  35 1.09
  88  0.468  0.680  0.500-  25 1.09
  89  0.462  0.559  0.446-  95 0.98
  90  0.461  0.473  0.446-  95 0.98
  91  0.332  0.383  0.495-  17 1.35  18 1.37
  92  0.332  0.520  0.495-  19 1.35  18 1.37
  93  0.622  0.381  0.500-  34 1.35  29 1.35
  94  0.622  0.813  0.500-  37 1.35  30 1.35
  95  0.501  0.536  0.430-  89 0.98  90 0.98
 

IMPORTANT INFORMATION: All symmetrisations will be switched off!
NOSYMM: (Re-)initialisation of all symmetry stuff for point group C_1.


----------------------------------------------------------------------------------------

                                     Primitive cell                                     

  volume of cell :    3874.8846

  direct lattice vectors                    reciprocal lattice vectors
    17.271038055  0.000000000  0.000000000     0.057900399  0.033428811  0.000000000
    -8.635519028 14.957157706  0.000000000     0.000000000  0.066857622  0.000000000
     0.000000000  0.000000000 15.000000000     0.000000000  0.000000000  0.066666667

  length of vectors
    17.271038055 17.271038055 15.000000000     0.066857622  0.066857622  0.066666667

  position of ions in fractional coordinates (direct lattice)
     0.001504193  0.000688243  0.500560341
     0.001000634  0.143166472  0.500393127
     0.000650741  0.286000776  0.500301890
     0.000979067  0.429163469  0.500230999
     0.001457461  0.572129850  0.500290089
     0.001829822  0.714990302  0.500428512
     0.001861048  0.858222585  0.500499845
     0.145272086  0.001828356  0.499771994
     0.144843146  0.144535082  0.499384131
     0.142986066  0.285971734  0.499000678
     0.142981682  0.428337443  0.498914765
     0.144840223  0.571600868  0.499147940
     0.145253852  0.714735017  0.499681466
     0.145180620  0.858255679  0.499995803
     0.288164107  0.001880835  0.499444866
     0.288439383  0.146559600  0.498515286
     0.287758398  0.292745858  0.496982007
     0.285586462  0.428443367  0.496039329
     0.287782441  0.566351243  0.496927760
     0.288486590  0.713265759  0.498548412
     0.288171646  0.857647989  0.499562301
     0.430706153  0.001017290  0.499564434
     0.431353526  0.145696449  0.499210805
     0.430543896  0.287318539  0.498803328
     0.430576993  0.714546591  0.498842524
     0.431403002  0.857013557  0.499304506
     0.573017444  0.000582586  0.499994082
     0.572995463  0.143761571  0.499986893
     0.576650211  0.290273384  0.499852911
     0.576717566  0.857721096  0.499870523
     0.715912594  0.001022883  0.500489447
     0.715730742  0.143532512  0.500594105
     0.715906928  0.286228209  0.500499305
     0.711912498  0.425698847  0.499915898
     0.716210413  0.572436475  0.497734165
     0.716266023  0.715176649  0.497746126
     0.711991817  0.857591273  0.499933957
     0.858282766  0.000314604  0.500678244
     0.858284572  0.143370518  0.500792524
     0.858275119  0.286229305  0.500838888
     0.858249069  0.429303804  0.500585634
     0.857459597  0.571552707  0.500327547
     0.858828264  0.715103915  0.499962598
     0.857540309  0.857328393  0.500361287
     0.049309246  0.096146449  0.500212718
     0.047855838  0.238172091  0.499986466
     0.047870397  0.381047233  0.499892484
     0.049283521  0.524483583  0.499932681
     0.049622407  0.667467196  0.500189368
     0.049517872  0.810428307  0.500326903
     0.049657056  0.953505579  0.500356916
     0.192883994  0.097263427  0.499132158
     0.191827936  0.240047897  0.498610298
     0.189928230  0.380622809  0.498300792
     0.191836432  0.523090064  0.498473684
     0.192898110  0.666933693  0.499005958
     0.192876301  0.810351511  0.499743231
     0.192894697  0.953845419  0.499712669
     0.335976027  0.098297898  0.499041720
     0.336979497  0.243116881  0.497820059
     0.337006219  0.665218502  0.497840892
     0.335999212  0.809062016  0.499150883
     0.335308463  0.953337991  0.499546559
     0.478009303  0.096548597  0.499585552
     0.478813799  0.241685126  0.499322634
     0.478859498  0.808452655  0.499359207
     0.478040044  0.952830665  0.499619715
     0.620310807  0.095824821  0.500211746
     0.621132755  0.239342154  0.500134435
     0.621170061  0.953138661  0.500148478
     0.763419832  0.096250109  0.500682523
     0.763421475  0.238497652  0.500743922
     0.762774685  0.381072333  0.500416694
     0.760907847  0.523997318  0.499505706
     0.762940120  0.667145938  0.498412104
     0.761000632  0.808320607  0.499492681
     0.762820091  0.953073957  0.500444192
     0.905741044  0.095345202  0.500710932
     0.905609820  0.238452615  0.500796602
     0.905709939  0.381706985  0.500634062
     0.905905186  0.524669521  0.500542689
     0.905926465  0.667068963  0.500369841
     0.905963679  0.810256562  0.500368983
     0.905970053  0.952658104  0.500712057
     0.468362686  0.360074266  0.499803545
     0.643358713  0.677802600  0.495236213
     0.643303283  0.536942736  0.495188507
     0.468368678  0.679579810  0.499832939
     0.461512849  0.559296588  0.446226728
     0.461328018  0.473498476  0.446406280
     0.331918097  0.383070067  0.494752148
     0.331921844  0.520165403  0.494743540
     0.621937934  0.380616287  0.499839420
     0.622011086  0.812678706  0.499852132
     0.501417166  0.536313566  0.430224137

  ion indices of the primitive-cell ions
   primitive index   ion index
                 1           1
                 2           2
                 3           3
                 4           4
                 5           5
                 6           6
                 7           7
                 8           8
                 9           9
                10          10
                11          11
                12          12
                13          13
                14          14
                15          15
                16          16
                17          17
                18          18
                19          19
                20          20
                21          21
                22          22
                23          23
                24          24
                25          25
                26          26
                27          27
                28          28
                29          29
                30          30
                31          31
                32          32
                33          33
                34          34
                35          35
                36          36
                37          37
                38          38
                39          39
                40          40
                41          41
                42          42
                43          43
                44          44
                45          45
                46          46
                47          47
                48          48
                49          49
                50          50
                51          51
                52          52
                53          53
                54          54
                55          55
                56          56
                57          57
                58          58
                59          59
                60          60
                61          61
                62          62
                63          63
                64          64
                65          65
                66          66
                67          67
                68          68
                69          69
                70          70
                71          71
                72          72
                73          73
                74          74
                75          75
                76          76
                77          77
                78          78
                79          79
                80          80
                81          81
                82          82
                83          83
                84          84
                85          85
                86          86
                87          87
                88          88
                89          89
                90          90
                91          91
                92          92
                93          93
                94          94
                95          95

----------------------------------------------------------------------------------------

 
 
 KPOINTS: Automatic mesh                          

Automatic generation of k-mesh.
 Grid dimensions read from file:
 generate k-points for:    2    2    1

 Generating k-lattice:

  Cartesian coordinates                     Fractional coordinates (reciprocal lattice)
     0.028950200  0.016714406  0.000000000     0.500000000  0.000000000  0.000000000
     0.000000000  0.033428811  0.000000000     0.000000000  0.500000000  0.000000000
     0.000000000  0.000000000  0.066666667     0.000000000  0.000000000  1.000000000

  Length of vectors
     0.033428811  0.033428811  0.066666667

  Shift w.r.t. Gamma in fractional coordinates (k-lattice)
     0.000000000  0.000000000  0.000000000

 
 Subroutine IBZKPT returns following result:
 ===========================================
 
 Found      4 irreducible k-points:
 
 Following reciprocal coordinates:
            Coordinates               Weight
  0.000000  0.000000  0.000000      1.000000
  0.500000  0.000000  0.000000      1.000000
  0.000000  0.500000  0.000000      1.000000
  0.500000  0.500000  0.000000      1.000000
 
 Following cartesian coordinates:
            Coordinates               Weight
  0.000000  0.000000  0.000000      1.000000
  0.028950  0.016714  0.000000      1.000000
  0.000000  0.033429  0.000000      1.000000
  0.028950  0.050143  0.000000      1.000000
 


--------------------------------------------------------------------------------------------------------




 Dimension of arrays:
   k-points           NKPTS =      4   k-points in BZ     NKDIM =      4   number of bands    NBANDS=    265
   number of dos      NEDOS =    301   number of ions     NIONS =     95
   non local maximal  LDIM  =      4   non local SUM 2l+1 LMDIM =      8
   total plane-waves  NPLWV = 774144
   max r-space proj   IRMAX =   1673   max aug-charges    IRDMAX=  20933
   dimension x,y,z NGX =    96 NGY =   96 NGZ =   84
   dimension x,y,z NGXF=   192 NGYF=  192 NGZF=  168
   support grid    NGXF=   384 NGYF=  384 NGZF=  336
   ions per type =              84   6   4   1
   NGX,Y,Z   is equivalent  to a cutoff of   9.24,  9.24,  9.31 a.u.
   NGXF,Y,Z  is equivalent  to a cutoff of  18.48, 18.48, 18.62 a.u.

 SYSTEM =  unknown system                          
 POSCAR =  C    H    N    O                        

 Startparameter for this run:
   NWRITE =      2    write-flag & timer
   PREC   = normal    normal or accurate (medium, high low for compatibility)
   ISTART =      0    job   : 0-new  1-cont  2-samecut
   ICHARG =      2    charge: 1-file 2-atom 10-const
   ISPIN  =      2    spin polarized calculation?
   LNONCOLLINEAR =      F non collinear calculations
   LSORBIT =      F    spin-orbit coupling
   INIWAV =      1    electr: 0-lowe 1-rand  2-diag
   LASPH  =      T    aspherical Exc in radial PAW
 Electronic Relaxation 1
   ENCUT  =  520.0 eV  38.22 Ry    6.18 a.u.  32.11 32.11 27.89*2*pi/ulx,y,z
   ENINI  =  520.0     initial cutoff
   ENAUG  =  644.9 eV  augmentation charge cutoff
   NELM   =    200;   NELMIN=  2; NELMDL= -5     # of ELM steps 
   EDIFF  = 0.1E-05   stopping-criterion for ELM
   LREAL  =      T    real-space projection
   NLSPLINE    = F    spline interpolate recip. space projectors
   LCOMPAT=      F    compatible to vasp.4.4
   GGA_COMPAT  = T    GGA compatible to vasp.4.4-vasp.4.6
   LMAXPAW     = -100 max onsite density
   LMAXMIX     =    2 max onsite mixed and CHGCAR
   VOSKOWN=      0    Vosko Wilk Nusair interpolation
   ROPT   =   -0.00050  -0.00050  -0.00050  -0.00050
 Ionic relaxation
   EDIFFG = -.3E-01   stopping-criterion for IOM
   NSW    =   1000    number of steps for IOM
   NBLOCK =      1;   KBLOCK =   1000    inner block; outer block 
   IBRION =      3    ionic relax: 0-MD 1-quasi-New 2-CG
   NFREE  =      0    steps in history (QN), initial steepest desc. (CG)
   ISIF   =      2    stress and relaxation
   IWAVPR =     11    prediction:  0-non 1-charg 2-wave 3-comb
   ISYM   =      0    0-nonsym 1-usesym 2-fastsym
   LCORR  =      T    Harris-Foulkes like correction to forces

   POTIM  = 0.5000    time-step for ionic-motion
   TEIN   =    0.0    initial temperature
   TEBEG  =    0.0;   TEEND  =   0.0 temperature during run
   SMASS  =  -3.00    Nose mass-parameter (am)
   estimated Nose-frequenzy (Omega)   =  0.10E-29 period in steps = 0.13E+47 mass=  -0.682E-26a.u.
   SCALEE = 1.0000    scale energy and forces
   NPACO  =    256;   APACO  = 10.0  distance and # of slots for P.C.
   PSTRESS=    0.0 pullay stress

  Mass of Ions in am
   POMASS =  12.01  1.00 14.00 16.00
  Ionic Valenz
   ZVAL   =   4.00  1.00  5.00  6.00
  Atomic Wigner-Seitz radii
   RWIGS  =  -1.00 -1.00 -1.00 -1.00
  virtual crystal weights 
   VCA    =   1.00  1.00  1.00  1.00
   NELECT =     368.0000    total number of electrons
   NUPDOWN=      -1.0000    fix difference up-down

 DOS related values:
   EMIN   =  10.00;   EMAX   =-10.00  energy-range for DOS
   EFERMI =   0.00;   METHOD = LEGACY      
   ISMEAR =     0;   SIGMA  =   0.05  broadening in eV -4-tet -1-fermi 0-gaus

 Electronic relaxation 2 (details)
   IALGO  =     38    algorithm
   LDIAG  =      T    sub-space diagonalisation (order eigenvalues)
   LSUBROT=      F    optimize rotation matrix (better conditioning)
   TURBO    =      0    0=normal 1=particle mesh
   IRESTART =      0    0=no restart 2=restart with 2 vectors
   NREBOOT  =      0    no. of reboots
   NMIN     =      0    reboot dimension
   EREF     =   0.00    reference energy to select bands
   IMIX   =      4    mixing-type and parameters
     AMIX     =   0.20;   BMIX     =  0.00
     AMIX_MAG =   0.80;   BMIX_MAG =  0.00
     AMIN     =   0.10
     WC   =   100.;   INIMIX=   1;  MIXPRE=   1;  MAXMIX= -45

 Intra band minimization:
   WEIMIN = 0.0010     energy-eigenvalue tresh-hold
   EBREAK =  0.94E-09  absolut break condition
   DEPER  =   0.30     relativ break condition  

   TIME   =   0.40     timestep for ELM

  volume/ion in A,a.u.               =      40.79       275.25
  Fermi-wavevector in a.u.,A,eV,Ry     =   0.746915  1.411465  7.590446  0.557882
  Thomas-Fermi vector in A             =   1.842848
 
 Write flags
   LWAVE        =      F    write WAVECAR
   LDOWNSAMPLE  =      F    k-point downsampling of WAVECAR
   LCHARG       =      F    write CHGCAR
   LVTOT        =      F    write LOCPOT, total local potential
   LVHAR        =      F    write LOCPOT, Hartree potential only
   LELF         =      F    write electronic localiz. function (ELF)
   LORBIT       =      0    0 simple, 1 ext, 2 COOP (PROOUT), +10 PAW based schemes


 Dipole corrections
   LMONO  =      F    monopole corrections only (constant potential shift)
   LDIPOL =      F    correct potential (dipole corrections)
   IDIPOL =      0    1-x, 2-y, 3-z, 4-all directions 
   EPSILON=  1.0000000 bulk dielectric constant

 Exchange correlation treatment:
   GGA     =    --    GGA type
   LEXCH   =     8    internal setting for exchange type
   LIBXC   =     F    Libxc                    
   VOSKOWN =     0    Vosko Wilk Nusair interpolation
   LHFCALC =     F    Hartree Fock is set to
   LHFONE  =     F    Hartree Fock one center treatment
   AEXX    =    0.0000 exact exchange contribution

 Linear response parameters
   LEPSILON=     F    determine dielectric tensor
   LRPA    =     F    only Hartree local field effects (RPA)
   LNABLA  =     F    use nabla operator in PAW spheres
   LVEL    =     F    velocity operator in full k-point grid
   CSHIFT  =0.1000    complex shift for real part using Kramers Kronig
   OMEGAMAX=  -1.0    maximum frequency
   DEG_THRESHOLD= 0.2000000E-02 threshold for treating states as degnerate
   RTIME   =   -0.100 relaxation time in fs
  (WPLASMAI=    0.000 imaginary part of plasma frequency in eV, 0.658/RTIME)
   DFIELD  = 0.0000000 0.0000000 0.0000000 field for delta impulse in time
 
  Optional k-point grid parameters
   LKPOINTS_OPT  =     F    use optional k-point grid
   KPOINTS_OPT_MODE=     1    mode for optional k-point grid
 
 Orbital magnetization related:
   ORBITALMAG=     F  switch on orbital magnetization
   LCHIMAG   =     F  perturbation theory with respect to B field
   DQ        =  0.001000  dq finite difference perturbation B field
   LLRAUG    =     F  two centre corrections for induced B field
   LBONE     =     F  B-component reconstruction in AE one-centre
   LVGVCALC  =     T  calculate vGv susceptibility
   LVGVAPPL  =     F  apply vGv susceptibility instead of pGv for G=0

 Random number generation:
   RANDOM_GENERATOR = DEFAULT
   PCG_SEED         = not used


--------------------------------------------------------------------------------------------------------


 quickmin algorithm: (dynamic with friction)
   using selective dynamics as specified on POSCAR
 charge density and potential will be updated during run
 spin polarized calculation
 Variant of blocked Davidson
 Davidson routine will perform the subspace rotation
 perform sub-space diagonalisation
    after iterative eigenvector-optimisation
 modified Broyden-mixing scheme, WC =      100.0
 initial mixing is a Kerker type mixing with AMIX =  0.2000 and BMIX =      0.0001
 Hartree-type preconditioning will be used
 using additional bands           81
 real space projection scheme for non local part
 use partial core corrections
 calculate Harris-corrections to forces 
   (improved forces if not selfconsistent)
 use gradient corrections 
 use of overlap-Matrix (Vanderbilt PP)
 Gauss-broadening in eV      SIGMA  =   0.05


--------------------------------------------------------------------------------------------------------


  energy-cutoff  :      520.00
  volume of cell :     3874.88
      direct lattice vectors                 reciprocal lattice vectors
    17.271038055  0.000000000  0.000000000     0.057900399  0.033428811  0.000000000
    -8.635519028 14.957157706  0.000000000     0.000000000  0.066857622  0.000000000
     0.000000000  0.000000000 15.000000000     0.000000000  0.000000000  0.066666667

  length of vectors
    17.271038055 17.271038055 15.000000000     0.066857622  0.066857622  0.066666667


 
 k-points in units of 2pi/SCALE and weight: Automatic mesh                          
   0.00000000  0.00000000  0.00000000       0.250
   0.02895020  0.01671441  0.00000000       0.250
   0.00000000  0.03342881  0.00000000       0.250
   0.02895020  0.05014322  0.00000000       0.250
 
 k-points in reciprocal lattice and weights: Automatic mesh                          
   0.00000000  0.00000000  0.00000000       0.250
   0.50000000  0.00000000  0.00000000       0.250
   0.00000000  0.50000000  0.00000000       0.250
   0.50000000  0.50000000  0.00000000       0.250
 
 position of ions in fractional coordinates (direct lattice) 
   0.00150419  0.00068824  0.50056034
   0.00100063  0.14316647  0.50039313
   0.00065074  0.28600078  0.50030189
   0.00097907  0.42916347  0.50023100
   0.00145746  0.57212985  0.50029009
   0.00182982  0.71499030  0.50042851
   0.00186105  0.85822259  0.50049984
   0.14527209  0.00182836  0.49977199
   0.14484315  0.14453508  0.49938413
   0.14298607  0.28597173  0.49900068
   0.14298168  0.42833744  0.49891476
   0.14484022  0.57160087  0.49914794
   0.14525385  0.71473502  0.49968147
   0.14518062  0.85825568  0.49999580
   0.28816411  0.00188083  0.49944487
   0.28843938  0.14655960  0.49851529
   0.28775840  0.29274586  0.49698201
   0.28558646  0.42844337  0.49603933
   0.28778244  0.56635124  0.49692776
   0.28848659  0.71326576  0.49854841
   0.28817165  0.85764799  0.49956230
   0.43070615  0.00101729  0.49956443
   0.43135353  0.14569645  0.49921081
   0.43054390  0.28731854  0.49880333
   0.43057699  0.71454659  0.49884252
   0.43140300  0.85701356  0.49930451
   0.57301744  0.00058259  0.49999408
   0.57299546  0.14376157  0.49998689
   0.57665021  0.29027338  0.49985291
   0.57671757  0.85772110  0.49987052
   0.71591259  0.00102288  0.50048945
   0.71573074  0.14353251  0.50059410
   0.71590693  0.28622821  0.50049930
   0.71191250  0.42569885  0.49991590
   0.71621041  0.57243648  0.49773416
   0.71626602  0.71517665  0.49774613
   0.71199182  0.85759127  0.49993396
   0.85828277  0.00031460  0.50067824
   0.85828457  0.14337052  0.50079252
   0.85827512  0.28622931  0.50083889
   0.85824907  0.42930380  0.50058563
   0.85745960  0.57155271  0.50032755
   0.85882826  0.71510391  0.49996260
   0.85754031  0.85732839  0.50036129
   0.04930925  0.09614645  0.50021272
   0.04785584  0.23817209  0.49998647
   0.04787040  0.38104723  0.49989248
   0.04928352  0.52448358  0.49993268
   0.04962241  0.66746720  0.50018937
   0.04951787  0.81042831  0.50032690
   0.04965706  0.95350558  0.50035692
   0.19288399  0.09726343  0.49913216
   0.19182794  0.24004790  0.49861030
   0.18992823  0.38062281  0.49830079
   0.19183643  0.52309006  0.49847368
   0.19289811  0.66693369  0.49900596
   0.19287630  0.81035151  0.49974323
   0.19289470  0.95384542  0.49971267
   0.33597603  0.09829790  0.49904172
   0.33697950  0.24311688  0.49782006
   0.33700622  0.66521850  0.49784089
   0.33599921  0.80906202  0.49915088
   0.33530846  0.95333799  0.49954656
   0.47800930  0.09654860  0.49958555
   0.47881380  0.24168513  0.49932263
   0.47885950  0.80845266  0.49935921
   0.47804004  0.95283067  0.49961971
   0.62031081  0.09582482  0.50021175
   0.62113275  0.23934215  0.50013444
   0.62117006  0.95313866  0.50014848
   0.76341983  0.09625011  0.50068252
   0.76342147  0.23849765  0.50074392
   0.76277469  0.38107233  0.50041669
   0.76090785  0.52399732  0.49950571
   0.76294012  0.66714594  0.49841210
   0.76100063  0.80832061  0.49949268
   0.76282009  0.95307396  0.50044419
   0.90574104  0.09534520  0.50071093
   0.90560982  0.23845261  0.50079660
   0.90570994  0.38170698  0.50063406
   0.90590519  0.52466952  0.50054269
   0.90592646  0.66706896  0.50036984
   0.90596368  0.81025656  0.50036898
   0.90597005  0.95265810  0.50071206
   0.46836269  0.36007427  0.49980355
   0.64335871  0.67780260  0.49523621
   0.64330328  0.53694274  0.49518851
   0.46836868  0.67957981  0.49983294
   0.46151285  0.55929659  0.44622673
   0.46132802  0.47349848  0.44640628
   0.33191810  0.38307007  0.49475215
   0.33192184  0.52016540  0.49474354
   0.62193793  0.38061629  0.49983942
   0.62201109  0.81267871  0.49985213
   0.50141717  0.53631357  0.43022414
 
 position of ions in cartesian coordinates  (Angst):
   0.02003564  0.01029415  7.50840511
  -1.21903480  2.14136350  7.50589691
  -2.45852617  4.27775872  7.50452835
  -3.68913980  6.41906568  7.50346498
  -4.91546634  8.55743639  7.50435133
  -6.14270943 10.69422271  7.50642768
  -7.37905523 12.83657055  7.50749767
   2.49321093  0.02734700  7.49657992
   1.25345603  2.16183402  7.49076197
   0.00000343  4.27732433  7.48501016
  -1.22947406  6.40671069  7.48372147
  -2.43452917  8.54952433  7.48721910
  -3.66342303 10.69040437  7.49522199
  -4.90406324 12.83706555  7.49993705
   4.96065127  0.02813194  7.49167300
   3.71602934  2.19211505  7.47772928
   2.44187381  4.37864596  7.45473011
   1.23254380  6.40829501  7.44058993
   0.07956455  8.47100486  7.45391640
  -1.17695716 10.66842844  7.47822618
  -2.42921206 12.82797623  7.49343451
   7.42995752  0.01521577  7.49346652
   6.19175871  2.17920477  7.48816208
   4.95479530  4.29746870  7.48204992
   1.26603095 10.68758605  7.48263786
   0.05002079 12.81848693  7.48956758
   9.89157515  0.00871383  7.49991124
   8.65477067  2.15026449  7.49980340
   7.45268642  4.34166478  7.49779367
   2.55364418 12.82906970  7.49805784
  12.35572054  0.01529942  7.50734170
  11.12193513  2.14683842  7.50891157
   9.89272665  4.28116046  7.50748957
   8.61933735  6.36724479  7.49873847
   7.42641123  8.56202264  7.46601247
   6.19473618 10.69700992  7.46619189
   4.89109201 12.82712792  7.49900935
  14.82071755  0.00470558  7.51017366
  13.58538668  2.14441545  7.51188786
  12.35156363  4.28117686  7.51258332
  11.11559117  6.42116469  7.50878452
   9.87356305  8.54880398  7.50491320
   8.65756217 10.69592203  7.49943897
   7.40713565 12.82319599  7.50541930
   0.02134738  1.43807760  7.50319077
  -1.23021963  3.56237753  7.49979699
  -2.46376918  5.69938356  7.49838726
  -3.67801040  7.84478366  7.49899021
  -4.90689519  9.98341212  7.50284052
  -6.14324401 12.12170400  7.50490354
  -7.37638667 14.26173332  7.50535373
   2.49138662  1.45478441  7.48698237
   1.24012939  3.59043426  7.47915448
  -0.00661783  5.69303538  7.47451187
  -1.20393989  7.82394058  7.47710526
  -2.42776800  9.97543243  7.48508937
  -3.66663197 12.12055535  7.49614846
  -4.90545860 14.26681635  7.49569004
   4.95380138  1.47025716  7.48562580
   3.72054526  3.63633753  7.46730088
   0.07594020  9.94977805  7.46761338
  -1.18361525 12.10126817  7.48726324
  -2.44144314 14.25922668  7.49319839
   7.42196961  1.44409259  7.49378327
   6.18253483  3.61492255  7.48983951
   1.28899233 12.09215386  7.49038810
   0.02806045 14.25163852  7.49429572
   9.88591449  1.43326697  7.50317619
   8.66076372  3.57987834  7.50201653
   2.49740472 14.25624527  7.50222717
  12.35388332  1.43962806  7.51023785
  11.12553033  3.56724700  7.51115882
   9.88315323  5.69975898  7.50625041
   8.61667957  7.83751052  7.49258560
   7.41561640  9.97860701  7.47618156
   6.16300290 12.09017879  7.49239022
   4.94440653 14.25527748  7.50666288
  14.81973273  1.42609322  7.51066397
  13.58165957  3.56657336  7.51194903
  12.34631289  5.70925157  7.50951094
  11.11512930  7.84756477  7.50814034
   9.88580372  9.97745568  7.50554762
   8.64994722 12.11913519  7.50553474
   7.42034608 14.24905749  7.51068085
   4.97968160  5.38568758  7.49705318
   5.25829556 10.13800038  7.42854319
   6.47373627  8.03113718  7.42782760
   2.22068888 10.16458239  7.49749409
   3.14098965  8.36548727  6.69340092
   3.87870866  7.08219137  6.69609421
   2.42456123  5.72963941  7.42128222
   1.24073656  7.78019596  7.42115311
   7.45469454  5.69293782  7.49759130
   3.72487471 12.15536357  7.49778198
   4.02864895  8.02172659  6.45336206
 


--------------------------------------------------------------------------------------------------------


 k-point   1 :   0.0000 0.0000 0.0000  plane waves:  104449
 k-point   2 :   0.5000 0.0000 0.0000  plane waves:  104264
 k-point   3 :   0.0000 0.5000 0.0000  plane waves:  104264
 k-point   4 :   0.5000 0.5000 0.0000  plane waves:  104264

 maximum and minimum number of plane-waves per node :    104449   104264

 maximum number of plane-waves:    104449
 maximum index in each direction: 
   IXMAX=   32   IYMAX=   32   IZMAX=   27
   IXMIN=  -32   IYMIN=  -32   IZMIN=  -27


 serial   3D FFT for wavefunctions
 parallel 3D FFT for charge:
    minimum data exchange during FFTs selected (reduces bandwidth)


 total amount of memory used by VASP MPI-rank0  1122555. kBytes
=======================================================================

   base      :      30000. kBytes
   nonlr-proj:       8928. kBytes
   fftplans  :     185212. kBytes
   grid      :     184190. kBytes
   one-center:        583. kBytes
   wavefun   :     713642. kBytes
 
     INWAV:  cpu time      0.0000: real time      0.0000
 Broyden mixing: mesh for mixing (old mesh)
   NGX = 65   NGY = 65   NGZ = 55
  (NGX  =192   NGY  =192   NGZ  =168)
  gives a total of 232375 points

 initial charge density was supplied:
 charge density of overlapping atoms calculated
 number of electron     368.0000000 magnetization      57.0000000
 keeping initial charge density in first step


--------------------------------------------------------------------------------------------------------


 Maximum index for non-local projection operator         1577
 Maximum index for augmentation-charges         4030 (set IRDMAX)


--------------------------------------------------------------------------------------------------------


 First call to EWALD:  gamma=   0.113
 Maximum number of real-space cells 3x 3x 3
 Maximum number of reciprocal cells 3x 3x 3

    FEWALD:  cpu time      0.0082: real time      0.0082


--------------------------------------- Ionic step        1  -------------------------------------------




--------------------------------------- Iteration      1(   1)  ---------------------------------------


    POTLOK:  cpu time      2.9013: real time      2.9618
    SETDIJ:  cpu time      3.0048: real time      3.0197
     EDDAV:  cpu time     99.5483: real time    100.2492
       DOS:  cpu time      0.0012: real time      0.0153
    --------------------------------------------
      LOOP:  cpu time    105.4557: real time    106.2462

 eigenvalue-minimisations  :  4580
 total energy-change (2. order) : 0.3285686E+04  (-0.1374763E+05)
 number of electron     368.0000000 magnetization      57.0000000
 augmentation part      368.0000000 magnetization      57.0000000

 Free energy of the ion-electron system (eV)
  ---------------------------------------------------
  alpha Z        PSCENC =       175.60570339
  Ewald energy   TEWEN  =     36500.51111530
  -Hartree energ DENC   =    -46911.63374059
  -exchange      EXHF   =         0.00000000
  -V(xc)+E(xc)   XCENC  =      1231.14586740
  PAW double counting   =     10290.17603344   -10344.35078173
  entropy T*S    EENTRO =        -0.04020101
  eigenvalues    EBANDS =     -1581.65877763
  atomic energy  EATOM  =     13925.93113153
  Solvation  Ediel_sol  =         0.00000000
  ---------------------------------------------------
  free energy    TOTEN  =      3285.68635010 eV

  energy without entropy =     3285.72655111  energy(sigma->0) =     3285.70645061


--------------------------------------------------------------------------------------------------------




--------------------------------------- Iteration      1(   2)  ---------------------------------------


     EDDAV:  cpu time    127.9086: real time    128.9400
       DOS:  cpu time      0.0010: real time      0.0153
    --------------------------------------------
      LOOP:  cpu time    127.9095: real time    128.9552

 eigenvalue-minimisations  :  6410
 total energy-change (2. order) :-0.3519374E+04  (-0.3314282E+04)
 number of electron     368.0000000 magnetization      57.0000000
 augmentation part      368.0000000 magnetization      57.0000000

 Free energy of the ion-electron system (eV)
  ---------------------------------------------------
  alpha Z        PSCENC =       175.60570339
  Ewald energy   TEWEN  =     36500.51111530
  -Hartree energ DENC   =    -46911.63374059
  -exchange      EXHF   =         0.00000000
  -V(xc)+E(xc)   XCENC  =      1231.14586740
  PAW double counting   =     10290.17603344   -10344.35078173
  entropy T*S    EENTRO =        -0.00001273
  eigenvalues    EBANDS =     -5101.07260042
  atomic energy  EATOM  =     13925.93113153
  Solvation  Ediel_sol  =         0.00000000
  ---------------------------------------------------
  free energy    TOTEN  =      -233.68728441 eV

  energy without entropy =     -233.68727168  energy(sigma->0) =     -233.68727804


--------------------------------------------------------------------------------------------------------




--------------------------------------- Iteration      1(   3)  ---------------------------------------


     EDDAV:  cpu time    109.8840: real time    110.7034
       DOS:  cpu time      0.0011: real time      0.0181
    --------------------------------------------
      LOOP:  cpu time    109.8851: real time    110.7214

 eigenvalue-minimisations  :  5330
 total energy-change (2. order) :-0.6195384E+03  (-0.6167069E+03)
 number of electron     368.0000000 magnetization      57.0000000
 augmentation part      368.0000000 magnetization      57.0000000

 Free energy of the ion-electron system (eV)
  ---------------------------------------------------
  alpha Z        PSCENC =       175.60570339
  Ewald energy   TEWEN  =     36500.51111530
  -Hartree energ DENC   =    -46911.63374059
  -exchange      EXHF   =         0.00000000
  -V(xc)+E(xc)   XCENC  =      1231.14586740
  PAW double counting   =     10290.17603344   -10344.35078173
  entropy T*S    EENTRO =        -0.00002050
  eigenvalues    EBANDS =     -5720.61102838
  atomic energy  EATOM  =     13925.93113153
  Solvation  Ediel_sol  =         0.00000000
  ---------------------------------------------------
  free energy    TOTEN  =      -853.22572015 eV

  energy without entropy =     -853.22569964  energy(sigma->0) =     -853.22570989


--------------------------------------------------------------------------------------------------------




--------------------------------------- Iteration      1(   4)  ---------------------------------------


     EDDAV:  cpu time    110.9494: real time    111.8085
       DOS:  cpu time      0.0010: real time      0.0145
    --------------------------------------------
      LOOP:  cpu time    110.9504: real time    111.8230

 eigenvalue-minimisations  :  5360
 total energy-change (2. order) :-0.2207023E+02  (-0.2198484E+02)
 number of electron     368.0000000 magnetization      57.0000000
 augmentation part      368.0000000 magnetization      57.0000000

 Free energy of the ion-electron system (eV)
  ---------------------------------------------------
  alpha Z        PSCENC =       175.60570339
  Ewald energy   TEWEN  =     36500.51111530
  -Hartree energ DENC   =    -46911.63374059
  -exchange      EXHF   =         0.00000000
  -V(xc)+E(xc)   XCENC  =      1231.14586740
  PAW double counting   =     10290.17603344   -10344.35078173
  entropy T*S    EENTRO =        -0.00007002
  eigenvalues    EBANDS =     -5742.68121064
  atomic energy  EATOM  =     13925.93113153
  Solvation  Ediel_sol  =         0.00000000
  ---------------------------------------------------
  free energy    TOTEN  =      -875.29595192 eV

  energy without entropy =     -875.29588190  energy(sigma->0) =     -875.29591691


--------------------------------------------------------------------------------------------------------




--------------------------------------- Iteration      1(   5)  ---------------------------------------


     EDDAV:  cpu time    121.9724: real time    122.8921
       DOS:  cpu time      0.0010: real time      0.0150
    CHARGE:  cpu time      7.9732: real time      8.0294
    MIXING:  cpu time      0.0702: real time      0.0707
    --------------------------------------------
      LOOP:  cpu time    130.0169: real time    131.0072

 eigenvalue-minimisations  :  6040
 total energy-change (2. order) :-0.6514449E+00  (-0.6505408E+00)
 number of electron     367.9999999 magnetization      12.2005271
 augmentation part       10.7765140 magnetization      11.2813569

 Broyden mixing:
  rms(total) = 0.51337E+01    rms(broyden)= 0.51331E+01
  rms(prec ) = 0.55815E+01
  weight for this iteration     100.00

 Free energy of the ion-electron system (eV)
  ---------------------------------------------------
  alpha Z        PSCENC =       175.60570339
  Ewald energy   TEWEN  =     36500.51111530
  -Hartree energ DENC   =    -46911.63374059
  -exchange      EXHF   =         0.00000000
  -V(xc)+E(xc)   XCENC  =      1231.14586740
  PAW double counting   =     10290.17603344   -10344.35078173
  entropy T*S    EENTRO =        -0.00007762
  eigenvalues    EBANDS =     -5743.33264794
  atomic energy  EATOM  =     13925.93113153
  Solvation  Ediel_sol  =         0.00000000
  ---------------------------------------------------
  free energy    TOTEN  =      -875.94739682 eV

  energy without entropy =     -875.94731920  energy(sigma->0) =     -875.94735801


--------------------------------------------------------------------------------------------------------




--------------------------------------- Iteration      1(   6)  ---------------------------------------


    POTLOK:  cpu time      3.0786: real time      3.1332
    SETDIJ:  cpu time      3.5101: real time      3.5288
     EDDAV:  cpu time    107.2391: real time    108.0145
       DOS:  cpu time      0.0009: real time      0.0043
    CHARGE:  cpu time      8.0328: real time      8.0888
    MIXING:  cpu time      0.0828: real time      0.0834
    --------------------------------------------
      LOOP:  cpu time    121.9443: real time    122.8531

 eigenvalue-minimisations  :  5150
 total energy-change (2. order) : 0.1640753E+02  (-0.2118852E+01)
 number of electron     367.9999999 magnetization      -5.7406882
 augmentation part       10.3928514 magnetization      -5.7312180

 Broyden mixing:
  rms(total) = 0.33405E+01    rms(broyden)= 0.33405E+01
  rms(prec ) = 0.36708E+01
  weight for this iteration     100.00

 eigenvalues of (default mixing * dielectric matrix)
  average eigenvalue GAMMA=   1.4251
  1.4251

 Free energy of the ion-electron system (eV)
  ---------------------------------------------------
  alpha Z        PSCENC =       175.60570339
  Ewald energy   TEWEN  =     36500.51111530
  -Hartree energ DENC   =    -47356.55073272
  -exchange      EXHF   =         0.00000000
  -V(xc)+E(xc)   XCENC  =      1241.26813554
  PAW double counting   =     13978.91865469   -14036.88832315
  entropy T*S    EENTRO =        -0.00000297
  eigenvalues    EBANDS =     -5288.33554906
  atomic energy  EATOM  =     13925.93113153
  Solvation  Ediel_sol  =         0.00000000
  ---------------------------------------------------
  free energy    TOTEN  =      -859.53986745 eV

  energy without entropy =     -859.53986447  energy(sigma->0) =     -859.53986596


--------------------------------------------------------------------------------------------------------




--------------------------------------- Iteration      1(   7)  ---------------------------------------


    POTLOK:  cpu time      3.1678: real time      3.2117
    SETDIJ:  cpu time      3.5450: real time      3.5641
     EDDAV:  cpu time    105.4932: real time    106.2533
       DOS:  cpu time      0.0009: real time      0.0167
    CHARGE:  cpu time      7.7857: real time      7.8421
    MIXING:  cpu time      0.0813: real time      0.0819
    --------------------------------------------
      LOOP:  cpu time    120.0740: real time    120.9698

 eigenvalue-minimisations  :  5010
 total energy-change (2. order) : 0.2107825E+02  (-0.3153952E+01)
 number of electron     367.9999999 magnetization       1.2879356
 augmentation part        9.9282704 magnetization       1.2896570

 Broyden mixing:
  rms(total) = 0.20232E+01    rms(broyden)= 0.20231E+01
  rms(prec ) = 0.21430E+01
  weight for this iteration     100.00

 eigenvalues of (default mixing * dielectric matrix)
  average eigenvalue GAMMA=   2.4574
  1.2990  3.6158

 Free energy of the ion-electron system (eV)
  ---------------------------------------------------
  alpha Z        PSCENC =       175.60570339
  Ewald energy   TEWEN  =     36500.51111530
  -Hartree energ DENC   =    -47939.83783470
  -exchange      EXHF   =         0.00000000
  -V(xc)+E(xc)   XCENC  =      1262.23279075
  PAW double counting   =     20731.29541464   -20793.59875395
  entropy T*S    EENTRO =        -0.00000003
  eigenvalues    EBANDS =     -4700.60118773
  atomic energy  EATOM  =     13925.93113153
  Solvation  Ediel_sol  =         0.00000000
  ---------------------------------------------------
  free energy    TOTEN  =      -838.46162081 eV

  energy without entropy =     -838.46162077  energy(sigma->0) =     -838.46162079


--------------------------------------------------------------------------------------------------------




--------------------------------------- Iteration      1(   8)  ---------------------------------------


    POTLOK:  cpu time      3.1158: real time      3.1601
    SETDIJ:  cpu time      3.1085: real time      3.1244
     EDDAV:  cpu time    106.2334: real time    107.0000
       DOS:  cpu time      0.0010: real time      0.0179
    CHARGE:  cpu time      7.7818: real time      7.8397
    MIXING:  cpu time      0.0911: real time      0.0917
    --------------------------------------------
      LOOP:  cpu time    120.3316: real time    121.2339

 eigenvalue-minimisations  :  5070
 total energy-change (2. order) : 0.4727584E+01  (-0.2207059E+01)
 number of electron     367.9999999 magnetization      -0.3213087
 augmentation part        9.5842068 magnetization      -0.3223999

 Broyden mixing:
  rms(total) = 0.81858E+00    rms(broyden)= 0.81847E+00
  rms(prec ) = 0.83891E+00
  weight for this iteration     100.00

 eigenvalues of (default mixing * dielectric matrix)
  average eigenvalue GAMMA=   2.3983
  4.3559  1.3572  1.4819

 Free energy of the ion-electron system (eV)
  ---------------------------------------------------
  alpha Z        PSCENC =       175.60570339
  Ewald energy   TEWEN  =     36500.51111530
  -Hartree energ DENC   =    -48454.08125047
  -exchange      EXHF   =         0.00000000
  -V(xc)+E(xc)   XCENC  =      1281.94728014
  PAW double counting   =     30902.94390736   -30968.82516119
  entropy T*S    EENTRO =        -0.00000000
  eigenvalues    EBANDS =     -4197.76676322
  atomic energy  EATOM  =     13925.93113153
  Solvation  Ediel_sol  =         0.00000000
  ---------------------------------------------------
  free energy    TOTEN  =      -833.73403716 eV

  energy without entropy =     -833.73403716  energy(sigma->0) =     -833.73403716


--------------------------------------------------------------------------------------------------------




--------------------------------------- Iteration      1(   9)  ---------------------------------------


    POTLOK:  cpu time      3.1006: real time      3.1444
    SETDIJ:  cpu time      3.1106: real time      3.1256
     EDDAV:  cpu time    105.5399: real time    106.3086
       DOS:  cpu time      0.0009: real time      0.0146
    CHARGE:  cpu time      7.9180: real time      7.9742
    MIXING:  cpu time      0.0724: real time      0.0728
    --------------------------------------------
      LOOP:  cpu time    119.7424: real time    120.6401

 eigenvalue-minimisations  :  5040
 total energy-change (2. order) :-0.1719248E-01  (-0.9320991E-01)
 number of electron     367.9999999 magnetization      -0.0064609
 augmentation part        9.5703774 magnetization      -0.0063640

 Broyden mixing:
  rms(total) = 0.38981E+00    rms(broyden)= 0.38979E+00
  rms(prec ) = 0.40960E+00
  weight for this iteration     100.00

 eigenvalues of (default mixing * dielectric matrix)
  average eigenvalue GAMMA=   2.4080
  4.7003  1.0937  1.2267  2.6112

 Free energy of the ion-electron system (eV)
  ---------------------------------------------------
  alpha Z        PSCENC =       175.60570339
  Ewald energy   TEWEN  =     36500.51111530
  -Hartree energ DENC   =    -48456.57258583
  -exchange      EXHF   =         0.00000000
  -V(xc)+E(xc)   XCENC  =      1282.72155816
  PAW double counting   =     34672.09164588   -34737.92999432
  entropy T*S    EENTRO =        -0.00000000
  eigenvalues    EBANDS =     -4196.10980375
  atomic energy  EATOM  =     13925.93113153
  Solvation  Ediel_sol  =         0.00000000
  ---------------------------------------------------
  free energy    TOTEN  =      -833.75122964 eV

  energy without entropy =     -833.75122964  energy(sigma->0) =     -833.75122964


--------------------------------------------------------------------------------------------------------




--------------------------------------- Iteration      1(  10)  ---------------------------------------


    POTLOK:  cpu time      3.1697: real time      3.2179
    SETDIJ:  cpu time      3.1379: real time      3.1557
     EDDAV:  cpu time    103.8942: real time    104.6572
       DOS:  cpu time      0.0010: real time      0.0241
    CHARGE:  cpu time      7.7567: real time      7.8141
    MIXING:  cpu time      0.1019: real time      0.1026
    --------------------------------------------
      LOOP:  cpu time    118.0615: real time    118.9715

 eigenvalue-minimisations  :  4920
 total energy-change (2. order) : 0.1362391E+00  (-0.4219221E-01)
 number of electron     367.9999999 magnetization       0.0185449
 augmentation part        9.6048748 magnetization       0.0186148

 Broyden mixing:
  rms(total) = 0.11430E+00    rms(broyden)= 0.11429E+00
  rms(prec ) = 0.12533E+00
  weight for this iteration     100.00

 eigenvalues of (default mixing * dielectric matrix)
  average eigenvalue GAMMA=   2.3308
  4.7561  3.1581  0.9746  1.2614  1.5040

 Free energy of the ion-electron system (eV)
  ---------------------------------------------------
  alpha Z        PSCENC =       175.60570339
  Ewald energy   TEWEN  =     36500.51111530
  -Hartree energ DENC   =    -48390.59268364
  -exchange      EXHF   =         0.00000000
  -V(xc)+E(xc)   XCENC  =      1280.78907418
  PAW double counting   =     36696.29328090   -36761.58518729
  entropy T*S    EENTRO =        -0.00000000
  eigenvalues    EBANDS =     -4260.56742496
  atomic energy  EATOM  =     13925.93113153
  Solvation  Ediel_sol  =         0.00000000
  ---------------------------------------------------
  free energy    TOTEN  =      -833.61499058 eV

  energy without entropy =     -833.61499058  energy(sigma->0) =     -833.61499058


--------------------------------------------------------------------------------------------------------




--------------------------------------- Iteration      1(  11)  ---------------------------------------


    POTLOK:  cpu time      2.9963: real time      3.0403
    SETDIJ:  cpu time      3.0833: real time      3.1002
     EDDAV:  cpu time    104.5285: real time    105.2531
       DOS:  cpu time      0.0008: real time      0.0149
    CHARGE:  cpu time      7.6677: real time      7.7294
    MIXING:  cpu time      0.1090: real time      0.1098
    --------------------------------------------
      LOOP:  cpu time    118.3855: real time    119.2478

 eigenvalue-minimisations  :  4880
 total energy-change (2. order) : 0.2027478E-01  (-0.9774750E-02)
 number of electron     367.9999999 magnetization       0.0053614
 augmentation part        9.6097723 magnetization       0.0051014

 Broyden mixing:
  rms(total) = 0.27396E-01    rms(broyden)= 0.27377E-01
  rms(prec ) = 0.31149E-01
  weight for this iteration     100.00

 eigenvalues of (default mixing * dielectric matrix)
  average eigenvalue GAMMA=   2.1911
  4.7450  3.1958  1.7585  0.9989  1.1837  1.2648

 Free energy of the ion-electron system (eV)
  ---------------------------------------------------
  alpha Z        PSCENC =       175.60570339
  Ewald energy   TEWEN  =     36500.51111530
  -Hartree energ DENC   =    -48367.44634536
  -exchange      EXHF   =         0.00000000
  -V(xc)+E(xc)   XCENC  =      1280.07395394
  PAW double counting   =     37116.92211337   -37182.00408832
  entropy T*S    EENTRO =        -0.00000000
  eigenvalues    EBANDS =     -4283.18829965
  atomic energy  EATOM  =     13925.93113153
  Solvation  Ediel_sol  =         0.00000000
  ---------------------------------------------------
  free energy    TOTEN  =      -833.59471580 eV

  energy without entropy =     -833.59471580  energy(sigma->0) =     -833.59471580


--------------------------------------------------------------------------------------------------------




--------------------------------------- Iteration      1(  12)  ---------------------------------------


    POTLOK:  cpu time      2.8608: real time      2.9036
    SETDIJ:  cpu time      3.0908: real time      3.1094
     EDDAV:  cpu time    107.3480: real time    108.2129
       DOS:  cpu time      0.0009: real time      0.0153
    CHARGE:  cpu time      7.6165: real time      7.6691
    MIXING:  cpu time      0.1218: real time      0.1226
    --------------------------------------------
      LOOP:  cpu time    121.0388: real time    122.0329

 eigenvalue-minimisations  :  5130
 total energy-change (2. order) : 0.3683095E-03  (-0.1063442E-02)
 number of electron     367.9999999 magnetization      -0.0076450
 augmentation part        9.6099494 magnetization      -0.0077433

 Broyden mixing:
  rms(total) = 0.14887E-01    rms(broyden)= 0.14883E-01
  rms(prec ) = 0.16638E-01
  weight for this iteration     100.00

 eigenvalues of (default mixing * dielectric matrix)
  average eigenvalue GAMMA=   2.1169
  4.6898  3.2244  1.9933  1.4893  1.0355  1.0964  1.2897

 Free energy of the ion-electron system (eV)
  ---------------------------------------------------
  alpha Z        PSCENC =       175.60570339
  Ewald energy   TEWEN  =     36500.51111530
  -Hartree energ DENC   =    -48367.45342608
  -exchange      EXHF   =         0.00000000
  -V(xc)+E(xc)   XCENC  =      1280.07376274
  PAW double counting   =     37146.48677796   -37211.54983938
  entropy T*S    EENTRO =        -0.00000000
  eigenvalues    EBANDS =     -4283.19957294
  atomic energy  EATOM  =     13925.93113153
  Solvation  Ediel_sol  =         0.00000000
  ---------------------------------------------------
  free energy    TOTEN  =      -833.59434749 eV

  energy without entropy =     -833.59434749  energy(sigma->0) =     -833.59434749


--------------------------------------------------------------------------------------------------------




--------------------------------------- Iteration      1(  13)  ---------------------------------------


    POTLOK:  cpu time      2.7115: real time      2.7563
    SETDIJ:  cpu time      3.4225: real time      3.4409
     EDDAV:  cpu time    108.7527: real time    109.5491
       DOS:  cpu time      0.0008: real time      0.0145
[...]
   0.748E+00 -.201E+02 -.340E+00   -.820E+00 0.203E+02 0.349E+00   0.681E-01 -.190E+00 -.937E-02   0.422E-03 -.385E-03 -.105E-04
   -.157E+02 -.667E+02 -.102E+01   0.159E+02 0.674E+02 0.980E+00   -.214E+00 -.725E+00 0.448E-01   -.134E-02 0.172E-02 -.828E-04
   -.655E+02 0.198E+02 -.119E+01   0.663E+02 -.199E+02 0.114E+01   -.734E+00 0.178E+00 0.454E-01   0.799E-03 -.199E-02 -.824E-04
   -.171E+02 0.107E+02 -.834E+00   0.172E+02 -.109E+02 0.841E+00   -.140E+00 0.149E+00 -.760E-02   -.105E-03 0.537E-03 -.477E-05
   -.242E+01 -.135E+01 -.952E+00   0.237E+01 0.132E+01 0.951E+00   0.459E-01 0.281E-01 -.641E-03   -.290E-03 -.170E-03 -.146E-07
   0.101E+02 -.115E+02 -.825E+00   -.103E+02 0.115E+02 0.824E+00   0.171E+00 0.675E-01 0.828E-03   -.627E-04 0.528E-03 0.595E-05
   0.194E+02 -.665E+02 -.350E+01   -.197E+02 0.672E+02 0.351E+01   0.272E+00 -.750E+00 -.658E-02   0.186E-02 0.800E-03 -.235E-05
   -.478E+02 0.500E+02 -.352E+01   0.483E+02 -.506E+02 0.353E+01   -.516E+00 0.609E+00 -.341E-02   0.159E-02 0.119E-02 -.115E-05
   -.491E+01 0.146E+02 -.907E+00   0.477E+01 -.148E+02 0.906E+00   0.139E+00 0.130E+00 0.440E-03   0.433E-03 -.327E-03 0.156E-05
   0.517E+01 0.294E+01 -.158E+01   -.535E+01 -.305E+01 0.158E+01   0.177E+00 0.978E-01 -.110E-02   -.251E-03 -.155E-03 0.113E-04
   0.257E+02 -.989E+01 -.237E+01   -.262E+02 0.983E+01 0.236E+01   0.514E+00 0.513E-01 0.111E-01   -.476E-03 -.480E-05 0.135E-04
   0.447E+01 0.273E+02 -.240E+01   -.479E+01 -.277E+02 0.239E+01   0.313E+00 0.428E+00 0.834E-02   -.241E-03 -.393E-03 0.117E-04
   0.244E+01 0.104E+02 -.247E+01   -.247E+01 -.103E+02 0.248E+01   0.180E-01 -.702E-01 -.343E-02   0.429E-03 -.590E-03 0.263E-04
   0.103E+02 -.314E+01 -.291E+01   -.102E+02 0.308E+01 0.291E+01   -.466E-01 0.496E-01 -.587E-02   -.287E-03 0.651E-03 0.180E-04
   0.244E+02 -.197E+02 -.307E+01   -.247E+02 0.201E+02 0.307E+01   0.254E+00 -.434E+00 0.215E-03   -.793E-04 0.498E-03 0.311E-04
   0.741E+02 0.914E+01 -.406E+01   -.751E+02 -.926E+01 0.405E+01   0.936E+00 0.121E+00 0.691E-03   0.559E-03 -.182E-02 0.772E-04
   0.862E+02 0.498E+02 -.260E+01   -.867E+02 -.501E+02 0.251E+01   0.578E+00 0.334E+00 0.812E-01   -.858E-03 -.503E-03 0.781E-04
   0.449E+02 0.597E+02 -.380E+01   -.455E+02 -.605E+02 0.379E+01   0.566E+00 0.755E+00 0.360E-02   -.128E-02 0.139E-02 0.759E-04
   -.471E+01 0.310E+02 -.304E+01   0.495E+01 -.314E+02 0.304E+01   -.241E+00 0.441E+00 0.703E-03   0.401E-03 -.297E-03 0.296E-04
   -.267E+00 0.837E+01 -.300E+01   0.338E+00 -.849E+01 0.300E+01   -.719E-01 0.119E+00 -.334E-02   -.305E-03 -.322E-03 0.304E-04
   0.370E+00 0.119E+00 -.348E+01   -.366E+00 -.108E+00 0.349E+01   -.572E-02 -.117E-01 -.543E-02   0.579E-04 0.232E-04 0.280E-04
   0.719E+01 -.452E+01 -.291E+01   -.726E+01 0.464E+01 0.291E+01   0.608E-01 -.123E+00 -.132E-02   -.421E-03 -.961E-04 0.296E-04
   0.210E+02 -.297E+01 -.350E+01   -.211E+02 0.320E+01 0.351E+01   0.708E-01 -.235E+00 -.942E-02   -.661E-03 -.400E-04 0.271E-04
   0.277E+02 0.108E+02 -.394E+01   -.278E+02 -.108E+02 0.392E+01   0.153E+00 0.409E-01 0.164E-01   0.545E-03 -.220E-03 0.450E-04
   0.231E+02 0.187E+02 -.370E+01   -.232E+02 -.189E+02 0.368E+01   0.109E+00 0.117E+00 0.180E-01   0.915E-04 0.587E-03 0.424E-04
   0.794E+01 0.197E+02 -.399E+01   -.777E+01 -.199E+02 0.400E+01   -.169E+00 0.188E+00 -.100E-01   -.362E-03 -.548E-03 0.273E-04
   -.139E+01 -.664E+02 -.606E+01   0.158E+01 0.724E+02 0.617E+01   -.188E+00 -.597E+01 -.108E+00   -.120E-03 -.799E-04 0.384E-04
   0.504E+02 0.405E+02 -.110E+01   -.556E+02 -.436E+02 0.844E+00   0.516E+01 0.305E+01 0.252E+00   0.180E-03 0.219E-04 0.121E-03
   0.602E+02 0.234E+02 -.106E+01   -.655E+02 -.263E+02 0.802E+00   0.522E+01 0.294E+01 0.255E+00   0.111E-03 0.141E-03 0.121E-03
   -.582E+02 0.320E+02 -.608E+01   0.634E+02 -.348E+02 0.619E+01   -.526E+01 0.282E+01 -.108E+00   -.134E-03 -.584E-04 0.383E-04
   0.462E+02 -.389E+02 0.111E+02   -.534E+02 0.418E+02 -.916E+01   0.725E+01 -.288E+01 -.193E+01   -.108E-02 0.197E-03 0.587E-03
   -.104E+02 0.593E+02 0.108E+02   0.925E+01 -.670E+02 -.884E+01   0.116E+01 0.771E+01 -.196E+01   -.374E-03 -.104E-02 0.592E-03
   -.185E+03 -.118E+03 -.647E+01   0.211E+03 0.135E+03 0.559E+01   -.264E+02 -.166E+02 0.879E+00   -.136E-02 0.117E-02 0.724E-06
   -.195E+03 -.101E+03 -.652E+01   0.223E+03 0.115E+03 0.566E+01   -.276E+02 -.146E+02 0.862E+00   0.305E-03 -.178E-02 -.134E-05
   0.198E+03 -.121E+03 -.780E+01   -.226E+03 0.137E+03 0.771E+01   0.285E+02 -.163E+02 0.858E-01   0.141E-02 -.712E-03 0.230E-04
   -.567E+01 0.232E+03 -.776E+01   0.554E+01 -.265E+03 0.767E+01   0.135E+00 0.328E+02 0.899E-01   0.756E-04 0.156E-02 0.149E-04
   -.105E+03 -.605E+02 0.221E+03   0.142E+03 0.816E+02 -.239E+03   -.367E+02 -.210E+02 0.180E+02   -.125E-02 -.734E-03 0.424E-02
 -----------------------------------------------------------------------------------------------
   0.420E+02 0.242E+02 -.166E+02   0.625E-12 -.568E-13 -.568E-13   -.421E+02 -.241E+02 0.166E+02   0.103E-02 0.639E-03 0.686E-02
 
 
 POSITION                                       TOTAL-FORCE (eV/Angst)
 -----------------------------------------------------------------------------------
      0.02004      0.01029      7.50841        -0.004303     -0.000678     -0.000082
     -1.21903      2.14136      7.50590        -0.002340      0.000121      0.001020
     -2.45853      4.27776      7.50453        -0.001700      0.001175      0.001306
     -3.68914      6.41907      7.50346         0.001513     -0.000153      0.000546
     -4.91547      8.55744      7.50435         0.001497     -0.001824     -0.001342
     -6.14271     10.69422      7.50643        -0.000340     -0.000559     -0.001883
     -7.37906     12.83657      7.50750        -0.001001     -0.001428     -0.001370
      2.49321      0.02735      7.49658        -0.000213     -0.001074     -0.000580
      1.25346      2.16183      7.49076        -0.001449      0.000170      0.001050
      0.00000      4.27732      7.48501        -0.001528      0.001657      0.000578
     -1.22947      6.40671      7.48372        -0.001965      0.000689      0.001558
     -2.43453      8.54952      7.48722        -0.000038     -0.001095      0.000532
     -3.66342     10.69040      7.49522         0.000025     -0.001526     -0.000648
     -4.90406     12.83707      7.49994        -0.000013     -0.001205     -0.001419
      4.96065      0.02813      7.49167         0.000029     -0.000269     -0.001060
      3.71603      2.19212      7.47773         0.004982      0.000131      0.000947
      2.44187      4.37865      7.45473         0.000225      0.000622      0.001248
      1.23254      6.40830      7.44059        -0.000222      0.000718      0.000943
      0.07956      8.47100      7.45392        -0.000362     -0.000605      0.000944
     -1.17696     10.66843      7.47823         0.000108     -0.001145     -0.000428
     -2.42921     12.82798      7.49343        -0.000085     -0.001357     -0.001300
      7.42996      0.01522      7.49347        -0.000591     -0.000794     -0.000891
      6.19176      2.17920      7.48816        -0.000259      0.000165     -0.000683
      4.95480      4.29747      7.48205         0.000363     -0.000359      0.000239
      1.26603     10.68759      7.48264        -0.000393     -0.000807      0.000115
      0.05002     12.81849      7.48957         0.001267     -0.004554     -0.002580
      9.89158      0.00871      7.49991         0.000123      0.000528     -0.001042
      8.65477      2.15026      7.49980        -0.000238      0.000936     -0.000189
      7.45269      4.34166      7.49779        -0.000133     -0.000135     -0.001059
      2.55364     12.82907      7.49806        -0.000146     -0.001282     -0.001689
     12.35572      0.01530      7.50734         0.001270      0.000532     -0.001281
     11.12194      2.14684      7.50891         0.003425      0.001981     -0.000478
      9.89273      4.28116      7.50749         0.003127     -0.001060     -0.001346
      8.61934      6.36724      7.49874         0.000341      0.000195     -0.001426
      7.42641      8.56202      7.46601        -0.000083      0.000064     -0.006884
      6.19474     10.69701      7.46619        -0.000808      0.000105     -0.005693
      4.89109     12.82713      7.49901        -0.001155     -0.000197     -0.002444
     14.82072      0.00471      7.51017        -0.000984      0.000226     -0.000483
     13.58539      2.14442      7.51189         0.001646      0.001374     -0.000101
     12.35156      4.28118      7.51258         0.003659     -0.000384      0.000212
     11.11559      6.42116      7.50878         0.004028     -0.002017     -0.000510
      9.87356      8.54880      7.50491         0.000138     -0.000505     -0.001643
      8.65756     10.69592      7.49944        -0.000468     -0.000616     -0.002450
      7.40714     12.82320      7.50542        -0.001427     -0.000626     -0.001893
      0.02135      1.43808      7.50319         0.003954     -0.000205      0.000901
     -1.23022      3.56238      7.49980         0.001590     -0.000859      0.001380
     -2.46377      5.69938      7.49839         0.000519     -0.000598      0.000869
     -3.67801      7.84478      7.49899        -0.001193      0.001179      0.000537
     -4.90690      9.98341      7.50284        -0.001072      0.000445     -0.000596
     -6.14324     12.12170      7.50490        -0.000589      0.000218     -0.001865
     -7.37639     14.26173      7.50535         0.001400      0.002641      0.000439
      2.49139      1.45478      7.48698        -0.001607     -0.000590      0.000331
      1.24013      3.59043      7.47915         0.000331     -0.000894      0.001346
     -0.00662      5.69304      7.47451         0.001091     -0.003431      0.001686
     -1.20394      7.82394      7.47711         0.000439     -0.000016      0.001326
     -2.42777      9.97543      7.48509        -0.000650      0.000621     -0.000306
     -3.66663     12.12056      7.49615        -0.001918      0.001181     -0.001761
     -4.90546     14.26682      7.49569        -0.001009      0.000150     -0.001211
      4.95380      1.47026      7.48563        -0.001973     -0.000358     -0.000631
      3.72055      3.63634      7.46730        -0.001393     -0.001082      0.000712
      0.07594      9.94978      7.46761        -0.002105      0.002001      0.001188
     -1.18362     12.10127      7.48726        -0.000851      0.000764     -0.000795
     -2.44144     14.25923      7.49320        -0.000404     -0.000007     -0.001332
      7.42197      1.44409      7.49378        -0.000325     -0.000982     -0.000334
      6.18253      3.61492      7.48984        -0.000446     -0.000452     -0.000829
      1.28899     12.09215      7.49039        -0.002907      0.002980      0.000143
      0.02806     14.25164      7.49430        -0.000798      0.003214     -0.000670
      9.88591      1.43327      7.50318        -0.002116     -0.005705     -0.000284
      8.66076      3.57988      7.50202        -0.001011     -0.001069     -0.000382
      2.49740     14.25625      7.50223        -0.001855     -0.000049     -0.001477
     12.35388      1.43963      7.51024        -0.006633     -0.003127      0.000656
     11.12553      3.56725      7.51116        -0.005388     -0.002620     -0.000747
      9.88315      5.69976      7.50625        -0.001507     -0.000463     -0.000283
      8.61668      7.83751      7.49259        -0.000143     -0.000110     -0.003634
      7.41562      9.97861      7.47618        -0.000279      0.000057     -0.006205
      6.16300     12.09018      7.49239        -0.000525     -0.000233     -0.003040
      4.94441     14.25528      7.50666        -0.001256     -0.000714     -0.001108
     14.81973      1.42609      7.51066         0.000281     -0.000987      0.000325
     13.58166      3.56657      7.51195        -0.001161     -0.001136      0.000556
     12.34631      5.70925      7.50951        -0.010046      0.003377      0.000486
     11.11513      7.84756      7.50814        -0.001374     -0.000315     -0.000679
      9.88580      9.97746      7.50555        -0.000537     -0.000565     -0.002505
      8.64995     12.11914      7.50553        -0.000237     -0.000438     -0.001736
      7.42035     14.24906      7.51068         0.001317     -0.000154     -0.000268
      4.97968      5.38569      7.49705        -0.000139     -0.000775      0.001091
      5.25830     10.13800      7.42854         0.000327     -0.000735     -0.008440
      6.47374      8.03114      7.42783         0.000016      0.000400     -0.007946
      2.22069     10.16458      7.49749        -0.000751      0.000151      0.001018
      3.14099      8.36549      6.69340         0.011507      0.007619      0.009594
      3.87871      7.08219      6.69609         0.013574      0.008845      0.008577
      2.42456      5.72964      7.42128         0.000510     -0.000903      0.000860
      1.24074      7.78020      7.42115         0.000535     -0.000092      0.000858
      7.45469      5.69294      7.49759         0.000095     -0.000593     -0.001859
      3.72487     12.15536      7.49778        -0.001011      0.000068     -0.002502
      4.02865      8.02173      6.45336         0.012202      0.009215      0.052184
 -----------------------------------------------------------------------------------
    total drift:                               -0.024272      0.049148      0.000650


--------------------------------------------------------------------------------------------------------



  FREE ENERGIE OF THE ION-ELECTRON SYSTEM (eV)
  ---------------------------------------------------
  free  energy   TOTEN  =      -841.22121384 eV

  energy  without entropy=     -841.22121384  energy(sigma->0) =     -841.22121384
 


--------------------------------------------------------------------------------------------------------


    POTLOK:  cpu time      5.2093: real time      5.2945


--------------------------------------------------------------------------------------------------------


 NEB: the previous image is higher in energy: F
 NEB: the next image is higher in energy    : F
 NEB: image is at an extrema
 NEB: diff energy (min, max):     0.022116  841.221214

 NEB: Tangent
 ----------------------------------------------
      0.00207      0.00151      0.00350
      0.00211      0.00191      0.00067
      0.00193      0.00093     -0.00324
      0.00268      0.00080      0.00127
      0.00235      0.00126      0.00508
      0.00075      0.00038      0.00730
      0.00127      0.00038      0.00622
      0.00090      0.00089     -0.00052
      0.00103      0.00204     -0.00864
      0.00255      0.00243     -0.01678
      0.00324      0.00045     -0.01733
      0.00271     -0.00018     -0.00768
      0.00121      0.00074     -0.00017
      0.00096      0.00084      0.00501
      0.00078      0.00137     -0.00146
      0.00043      0.00072     -0.01097
      0.00158      0.00334     -0.03205
      0.00447      0.00324     -0.04530
      0.00408      0.00016     -0.03206
      0.00103     -0.00016     -0.00929
      0.00110      0.00043     -0.00071
      0.00024      0.00085     -0.00094
      0.00048      0.00200     -0.00167
     -0.00063      0.00204     -0.01256
      0.00170     -0.00072     -0.01127
      0.00131      0.00011     -0.00034
      0.00076      0.00066      0.00228
      0.00061      0.00109      0.00133
      0.00040      0.00143      0.00216
      0.00120      0.00100      0.00444
      0.00114      0.00237      0.00762
      0.00056      0.00153      0.00571
      0.00124      0.00112      0.00642
      0.00234      0.00056      0.00471
      0.00405      0.00006     -0.00204
      0.00300      0.00385     -0.00032
      0.00150      0.00271      0.00936
      0.00221      0.00166      0.01040
      0.00173      0.00118      0.00719
      0.00184      0.00102      0.00626
      0.00282      0.00110      0.00972
      0.00249      0.00076      0.00977
      0.00074      0.00030      0.00806
      0.00208      0.00197      0.01098
      0.00172      0.00169     -0.00085
      0.00245      0.00178     -0.00629
      0.00258      0.00085     -0.00615
      0.00256      0.00064      0.00001
      0.00101      0.00115      0.00402
      0.00085      0.00053      0.00668
      0.00139      0.00047      0.00277
      0.00032      0.00078     -0.00758
      0.00187      0.00228     -0.01792
      0.00409      0.00210     -0.02570
      0.00342      0.00020     -0.01809
      0.00111     -0.00005     -0.00630
      0.00094      0.00065      0.00196
      0.00085      0.00096      0.00197
      0.00066      0.00155     -0.00449
      0.00053      0.00035     -0.02029
      0.00150      0.00053     -0.01902
      0.00107      0.00019     -0.00289
      0.00047      0.00068     -0.00073
      0.00044      0.00121     -0.00014
      0.00008      0.00251     -0.00264
      0.00185     -0.00012     -0.00082
      0.00058      0.00067      0.00028
      0.00059      0.00084      0.00265
      0.00053      0.00138      0.00407
      0.00116      0.00114      0.00462
      0.00104      0.00225      0.00782
      0.00113      0.00115      0.00631
      0.00249      0.00092      0.00746
      0.00335      0.00034      0.00548
      0.00047     -0.00012      0.00244
      0.00222      0.00308      0.00904
      0.00168      0.00259      0.01066
      0.00209      0.00142      0.00705
      0.00193      0.00094      0.00413
      0.00241      0.00116      0.00723
      0.00246      0.00116      0.00940
      0.00092      0.00051      0.00967
      0.00091      0.00058      0.00803
      0.00225      0.00134      0.00915
     -0.00973      0.00294     -0.01379
     -0.00246      0.01563     -0.01012
      0.01096     -0.01028     -0.01374
     -0.00261     -0.00944     -0.01424
     -0.02050     -0.01171     -0.51313
     -0.02127     -0.02348     -0.50855
      0.00510      0.00354     -0.05318
      0.00545      0.00318     -0.05329
      0.00168      0.00165      0.00258
      0.00210      0.00196      0.00585
     -0.10171     -0.06843     -0.66653

 NEB: forces: par spring, perp REAL, dneb     0.008164    0.040478    0.000000
 NEB: distance to prev, next image, angle between     0.783504    0.785137  174.451488
 NEB: projections on to tangent (spring, REAL)     0.008164   -0.012622

 stress matrix after NEB project (eV)
    -15.04232      4.48234     -0.03381
      4.48234    -20.10180     -0.01359
     -0.03381     -0.01359     -0.73776
  FORCES: max atom, RMS     0.016007    0.003993
  FORCE total and by dimension    0.038918    0.013037
  Stress total and by dimension   25.905272   20.101796
 OPT: skip step - force has converged


--------------------------------------------------------------------------------------------------------


  
 reached required accuracy - stopping structural energy minimisation
     LOOP+:  cpu time   2271.8498: real time   2289.2657
    4ORBIT:  cpu time      0.0000: real time      0.0000

 total amount of memory used by VASP MPI-rank0  1122555. kBytes
=======================================================================

   base      :      30000. kBytes
   nonlr-proj:       8928. kBytes
   fftplans  :     185212. kBytes
   grid      :     184190. kBytes
   one-center:        583. kBytes
   wavefun   :     713642. kBytes
 
  
  
 General timing and accounting informations for this job:
 ========================================================
  
                  Total CPU time used (sec):     2307.409
                            User time (sec):     2241.375
                          System time (sec):       66.034
                         Elapsed time (sec):     2326.956
  
                   Maximum memory used (kb):     1555792.
                   Average memory used (kb):          N/A
  
                          Minor page faults:       125394
                          Major page faults:           55
                 Voluntary context switches:         2423
