 vasp.6.4.2 20Jul23 (build Aug 26 2025 15:10:52) complex                        
  
 POSCAR found type information on POSCAR C H N O 
 05/POSCAR found :  4 types and      95 ions
 Reading from existing POTCAR
 scaLAPACK will be used
 -----------------------------------------------------------------------------
|                                                                             |
|           W    W    AA    RRRRR   N    N  II  N    N   GGGG   !!!           |
|           W    W   A  A   R    R  NN   N  II  NN   N  G    G  !!!           |
|           W    W  A    A  R    R  N N  N  II  N N  N  G       !!!           |
|           W WW W  AAAAAA  RRRRR   N  N N  II  N  N N  G  GGG   !            |
|           WW  WW  A    A  R   R   N   NN  II  N   NN  G    G                |
|           W    W  A    A  R    R  N    N  II  N    N   GGGG   !!!           |
|                                                                             |
|     For optimal performance we recommend to set                             |
|       NCORE = 2 up to number-of-cores-per-socket                            |
|     NCORE specifies how many cores store one orbital (NPAR=cpu/NCORE).      |
|     This setting can greatly improve the performance of VASP for DFT.       |
|     The default, NCORE=1 might be grossly inefficient on modern             |
|     multi-core architectures or massively parallel machines. Do your        |
|     own testing! More info at https://www.vasp.at/wiki/index.php/NCORE      |
|     Unfortunately you need to use the default for GW and RPA                |
|     calculations (for HF NCORE is supported but not extensively tested      |
|     yet).                                                                   |
|                                                                             |
 -----------------------------------------------------------------------------

 Reading from existing POTCAR
 LDA part: xc-table for Pade appr. of Perdew
 POSCAR found type information on POSCAR C H N O 
 00/POSCAR found :  4 types and      95 ions
 POSCAR found type information on POSCAR C H N O 
 06/POSCAR found :  4 types and      95 ions
 Jacobian:    33.5511073471780     
 POSCAR found type information on POSCAR C H N O 
 00/POSCAR found :  4 types and      95 ions
 POSCAR found type information on POSCAR C H N O 
 06/POSCAR found :  4 types and      95 ions
 POSCAR, INCAR and KPOINTS ok, starting setup
 FFT: planning ... GRIDC
 FFT: planning ... GRID_SOFT
 FFT: planning ... GRID
 WAVECAR not read
 entering main loop
       N       E                     dE             d eps       ncg     rms          rms(c)
DAV:   1     0.328568635010E+04    0.32857E+04   -0.13748E+05  4580   0.105E+03
DAV:   2    -0.233687284411E+03   -0.35194E+04   -0.33143E+04  6410   0.258E+02
DAV:   3    -0.853225720145E+03   -0.61954E+03   -0.61671E+03  5330   0.112E+02
DAV:   4    -0.875295951922E+03   -0.22070E+02   -0.21985E+02  5360   0.265E+01
DAV:   5    -0.875947396818E+03   -0.65144E+00   -0.65054E+00  6040   0.387E+00    0.513E+01
DAV:   6    -0.859539867447E+03    0.16408E+02   -0.21189E+01  5150   0.722E+00    0.334E+01
DAV:   7    -0.838461620806E+03    0.21078E+02   -0.31540E+01  5010   0.844E+00    0.202E+01
DAV:   8    -0.833734037160E+03    0.47276E+01   -0.22071E+01  5070   0.693E+00    0.819E+00
DAV:   9    -0.833751229642E+03   -0.17192E-01   -0.93210E-01  5040   0.175E+00    0.390E+00
DAV:  10    -0.833614990583E+03    0.13624E+00   -0.42192E-01  4920   0.106E+00    0.114E+00
DAV:  11    -0.833594715803E+03    0.20275E-01   -0.97748E-02  4880   0.561E-01    0.274E-01
DAV:  12    -0.833594347493E+03    0.36831E-03   -0.10634E-02  5130   0.202E-01    0.149E-01
DAV:  13    -0.833594167509E+03    0.17998E-03   -0.22870E-03  5100   0.974E-02    0.766E-02
DAV:  14    -0.833594237398E+03   -0.69889E-04   -0.37870E-04  5210   0.391E-02    0.516E-02
DAV:  15    -0.833594279053E+03   -0.41655E-04   -0.95579E-05  4830   0.184E-02    0.243E-02
DAV:  16    -0.833594283710E+03   -0.46571E-05   -0.23258E-05  4990   0.948E-03    0.115E-02
DAV:  17    -0.833594283178E+03    0.53206E-06   -0.80123E-06  5180   0.576E-03
   1 F= -.84122121E+03 E0= -.84122121E+03  d E =-.841221E+03  mag=     0.0001
quench:  g(F)=  0.384E-03 g(S)=  0.000E+00 dE (1.order)=-0.768E-03
 reached required accuracy - stopping structural energy minimisation
