unknown system                          
           1
    17.271038    0.000000    0.000000
    -8.635519   14.957158    0.000000
     0.000000    0.000000   15.000000
   C    H    N    O 
    84     6     4     1
Direct configuration=     1
   0.00150419  0.00068824  0.50056034
   0.00100063  0.14316647  0.50039313
   0.00065074  0.28600078  0.50030189
   0.00097907  0.42916347  0.50023100
   0.00145746  0.57212985  0.50029009
   0.00182982  0.71499030  0.50042851
   0.00186105  0.85822259  0.50049984
   0.14527209  0.00182836  0.49977199
   0.14484315  0.14453508  0.49938413
   0.14298607  0.28597173  0.49900068
   0.14298168  0.42833744  0.49891476
   0.14484022  0.57160087  0.49914794
   0.14525385  0.71473502  0.49968147
   0.14518062  0.85825568  0.49999580
   0.28816411  0.00188083  0.49944487
   0.28843938  0.14655960  0.49851529
   0.28775840  0.29274586  0.49698201
   0.28558646  0.42844337  0.49603933
   0.28778244  0.56635124  0.49692776
   0.28848659  0.71326576  0.49854841
   0.28817165  0.85764799  0.49956230
   0.43070615  0.00101729  0.49956443
   0.43135353  0.14569645  0.49921081
   0.43054390  0.28731854  0.49880333
   0.43057699  0.71454659  0.49884252
   0.43140300  0.85701356  0.49930451
   0.57301744  0.00058259  0.49999408
   0.57299546  0.14376157  0.49998689
   0.57665021  0.29027338  0.49985291
   0.57671757  0.85772110  0.49987052
   0.71591259  0.00102288  0.50048945
   0.71573074  0.14353251  0.50059410
   0.71590693  0.28622821  0.50049930
   0.71191250  0.42569885  0.49991590
   0.71621041  0.57243648  0.49773416
   0.71626602  0.71517665  0.49774613
   0.71199182  0.85759127  0.49993396
   0.85828277  0.00031460  0.50067824
   0.85828457  0.14337052  0.50079252
   0.85827512  0.28622931  0.50083889
   0.85824907  0.42930380  0.50058563
   0.85745960  0.57155271  0.50032755
   0.85882826  0.71510391  0.49996260
   0.85754031  0.85732839  0.50036129
   0.04930925  0.09614645  0.50021272
   0.04785584  0.23817209  0.49998647
   0.04787040  0.38104723  0.49989248
   0.04928352  0.52448358  0.49993268
   0.04962241  0.66746720  0.50018937
   0.04951787  0.81042831  0.50032690
   0.04965706  0.95350558  0.50035692
   0.19288399  0.09726343  0.49913216
   0.19182794  0.24004790  0.49861030
   0.18992823  0.38062281  0.49830079
   0.19183643  0.52309006  0.49847368
   0.19289811  0.66693369  0.49900596
   0.19287630  0.81035151  0.49974323
   0.19289470  0.95384542  0.49971267
   0.33597603  0.09829790  0.49904172
   0.33697950  0.24311688  0.49782006
   0.33700622  0.66521850  0.49784089
   0.33599921  0.80906202  0.49915088
   0.33530846  0.95333799  0.49954656
   0.47800930  0.09654860  0.49958555
   0.47881380  0.24168513  0.49932263
   0.47885950  0.80845266  0.49935921
   0.47804004  0.95283067  0.49961971
   0.62031081  0.09582482  0.50021175
   0.62113275  0.23934215  0.50013444
   0.62117006  0.95313866  0.50014848
   0.76341983  0.09625011  0.50068252
   0.76342147  0.23849765  0.50074392
   0.76277469  0.38107233  0.50041669
   0.76090785  0.52399732  0.49950571
   0.76294012  0.66714594  0.49841210
   0.76100063  0.80832061  0.49949268
   0.76282009  0.95307396  0.50044419
   0.90574104  0.09534520  0.50071093
   0.90560982  0.23845261  0.50079660
   0.90570994  0.38170698  0.50063406
   0.90590519  0.52466952  0.50054269
   0.90592646  0.66706896  0.50036984
   0.90596368  0.81025656  0.50036898
   0.90597005  0.95265810  0.50071206
   0.46836269  0.36007427  0.49980355
   0.64335871  0.67780260  0.49523621
   0.64330328  0.53694274  0.49518851
   0.46836868  0.67957981  0.49983294
   0.46151285  0.55929659  0.44622673
   0.46132802  0.47349848  0.44640628
   0.33191810  0.38307007  0.49475215
   0.33192184  0.52016540  0.49474354
   0.62193793  0.38061629  0.49983942
   0.62201109  0.81267871  0.49985213
   0.50141717  0.53631357  0.43022414
