 running   50 mpi-ranks, on    1 nodes
 each image running on   10 cores
 distrk:  each k-point on    5 cores,    2 groups
 distr:  one band on    1 cores,    5 groups
 vasp.6.4.2 20Jul23 (build Aug 26 2025 15:10:52) complex                        
  
 POSCAR found type information on POSCAR C H N O 
 01/POSCAR found :  4 types and      95 ions
 Reading from existing POTCAR
 scaLAPACK will be used
 -----------------------------------------------------------------------------
|                                                                             |
|           W    W    AA    RRRRR   N    N  II  N    N   GGGG   !!!           |
|           W    W   A  A   R    R  NN   N  II  NN   N  G    G  !!!           |
|           W    W  A    A  R    R  N N  N  II  N N  N  G       !!!           |
|           W WW W  AAAAAA  RRRRR   N  N N  II  N  N N  G  GGG   !            |
|           WW  WW  A    A  R   R   N   NN  II  N   NN  G    G                |
|           W    W  A    A  R    R  N    N  II  N    N   GGGG   !!!           |
|                                                                             |
|     For optimal performance we recommend to set                             |
|       NCORE = 2 up to number-of-cores-per-socket                            |
|     NCORE specifies how many cores store one orbital (NPAR=cpu/NCORE).      |
|     This setting can greatly improve the performance of VASP for DFT.       |
|     The default, NCORE=1 might be grossly inefficient on modern             |
|     multi-core architectures or massively parallel machines. Do your        |
|     own testing! More info at https://www.vasp.at/wiki/index.php/NCORE      |
|     Unfortunately you need to use the default for GW and RPA                |
|     calculations (for HF NCORE is supported but not extensively tested      |
|     yet).                                                                   |
|                                                                             |
 -----------------------------------------------------------------------------

 Reading from existing POTCAR
 LDA part: xc-table for Pade appr. of Perdew
 POSCAR found type information on POSCAR C H N O 
 00/POSCAR found :  4 types and      95 ions
 POSCAR found type information on POSCAR C H N O 
 06/POSCAR found :  4 types and      95 ions
 Jacobian:    33.5511073471780     
 POSCAR found type information on POSCAR C H N O 
 00/POSCAR found :  4 types and      95 ions
 POSCAR found type information on POSCAR C H N O 
 06/POSCAR found :  4 types and      95 ions
 POSCAR, INCAR and KPOINTS ok, starting setup
 FFT: planning ... GRIDC
 FFT: planning ... GRID_SOFT
 FFT: planning ... GRID
 WAVECAR not read
 entering main loop
       N       E                     dE             d eps       ncg     rms          rms(c)
DAV:   1     0.327597570167E+04    0.32760E+04   -0.13759E+05  4590   0.105E+03
DAV:   2    -0.235338220525E+03   -0.35113E+04   -0.33060E+04  6410   0.257E+02
DAV:   3    -0.853294959991E+03   -0.61796E+03   -0.61514E+03  5330   0.112E+02
DAV:   4    -0.875298134530E+03   -0.22003E+02   -0.21920E+02  5370   0.265E+01
DAV:   5    -0.875949004540E+03   -0.65087E+00   -0.65002E+00  5990   0.388E+00    0.513E+01
DAV:   6    -0.859542031962E+03    0.16407E+02   -0.21177E+01  5160   0.721E+00    0.334E+01
DAV:   7    -0.838462675391E+03    0.21079E+02   -0.31520E+01  5010   0.844E+00    0.202E+01
DAV:   8    -0.833734833708E+03    0.47278E+01   -0.22073E+01  5060   0.693E+00    0.818E+00
DAV:   9    -0.833751211269E+03   -0.16378E-01   -0.92916E-01  5100   0.175E+00    0.390E+00
DAV:  10    -0.833615113189E+03    0.13610E+00   -0.42305E-01  4900   0.106E+00    0.114E+00
DAV:  11    -0.833594894531E+03    0.20219E-01   -0.97239E-02  4850   0.560E-01    0.273E-01
DAV:  12    -0.833594541509E+03    0.35302E-03   -0.10628E-02  5130   0.202E-01    0.148E-01
DAV:  13    -0.833594363599E+03    0.17791E-03   -0.22718E-03  5150   0.971E-02    0.765E-02
DAV:  14    -0.833594433724E+03   -0.70125E-04   -0.37758E-04  5200   0.391E-02    0.516E-02
DAV:  15    -0.833594474797E+03   -0.41073E-04   -0.92405E-05  4840   0.181E-02    0.246E-02
DAV:  16    -0.833594480099E+03   -0.53022E-05   -0.22051E-05  4940   0.928E-03    0.116E-02
DAV:  17    -0.833594479518E+03    0.58110E-06   -0.81301E-06  5190   0.574E-03
   1 F= -.84122149E+03 E0= -.84122149E+03  d E =-.841221E+03  mag=     0.0001
quench:  g(F)=  0.384E-03 g(S)=  0.000E+00 dE (1.order)=-0.768E-03
 reached required accuracy - stopping structural energy minimisation
