  99  99   0   0
  0.3914025E+02  0.1727104E-08  0.1727104E-08  0.1500000E-08  0.0000000E+00
  1.000000000000000E-004
  CAR 
 unknown system                          
      6.32416283    -25.81597882  301     -2.35474780      1.00000000
    -25.816  0.0000E+00  0.0000E+00  0.0000E+00  0.0000E+00
    -25.709  0.0000E+00  0.0000E+00  0.0000E+00  0.0000E+00
    -25.602  0.0000E+00  0.0000E+00  0.0000E+00  0.0000E+00
    -25.495  0.0000E+00  0.0000E+00  0.0000E+00  0.0000E+00
    -25.387  0.0000E+00  0.0000E+00  0.0000E+00  0.0000E+00
    -25.280  0.0000E+00  0.0000E+00  0.0000E+00  0.0000E+00
    -25.173  0.0000E+00  0.0000E+00  0.0000E+00  0.0000E+00
    -25.066  0.0000E+00  0.0000E+00  0.0000E+00  0.0000E+00
    -24.959  0.0000E+00  0.0000E+00  0.0000E+00  0.0000E+00
    -24.852  0.0000E+00  0.0000E+00  0.0000E+00  0.0000E+00
    -24.745  0.0000E+00  0.0000E+00  0.0000E+00  0.0000E+00
    -24.638  0.6218E-17  0.6218E-17  0.6661E-18  0.6661E-18
    -24.530  0.3305E-08  0.3305E-08  0.3541E-09  0.3541E-09
    -24.423  0.2508E-03  0.2508E-03  0.2687E-04  0.2687E-04
    -24.316  0.7820E-02  0.7820E-02  0.8646E-03  0.8646E-03
    -24.209  0.1264E-02  0.1264E-02  0.1000E-02  0.1000E-02
    -24.102  0.1682E-06  0.1682E-06  0.1000E-02  0.1000E-02
    -23.995  0.3719E-14  0.3719E-14  0.1000E-02  0.1000E-02
    -23.888  0.0000E+00  0.0000E+00  0.1000E-02  0.1000E-02
    -23.780  0.0000E+00  0.0000E+00  0.1000E-02  0.1000E-02
    -23.673  0.0000E+00  0.0000E+00  0.1000E-02  0.1000E-02
    -23.566  0.0000E+00  0.0000E+00  0.1000E-02  0.1000E-02
    -23.459  0.0000E+00  0.0000E+00  0.1000E-02  0.1000E-02
    -23.352  0.0000E+00  0.0000E+00  0.1000E-02  0.1000E-02
    -23.245  0.0000E+00  0.0000E+00  0.1000E-02  0.1000E-02
    -23.138  0.0000E+00  0.0000E+00  0.1000E-02  0.1000E-02
    -23.030  0.0000E+00  0.0000E+00  0.1000E-02  0.1000E-02
    -22.923  0.0000E+00  0.0000E+00  0.1000E-02  0.1000E-02
    -22.816  0.0000E+00  0.0000E+00  0.1000E-02  0.1000E-02
    -22.709  0.0000E+00  0.0000E+00  0.1000E-02  0.1000E-02
    -22.602  0.0000E+00  0.0000E+00  0.1000E-02  0.1000E-02
    -22.495  0.0000E+00  0.0000E+00  0.1000E-02  0.1000E-02
    -22.388  0.0000E+00  0.0000E+00  0.1000E-02  0.1000E-02
    -22.281  0.0000E+00  0.0000E+00  0.1000E-02  0.1000E-02
    -22.173  0.0000E+00  0.0000E+00  0.1000E-02  0.1000E-02
    -22.066  0.0000E+00  0.0000E+00  0.1000E-02  0.1000E-02
    -21.959  0.4994E-11  0.4994E-11  0.1000E-02  0.1000E-02
    -21.852  0.5230E-05  0.5230E-05  0.1001E-02  0.1001E-02
    -21.745  0.1655E-02  0.1655E-02  0.1178E-02  0.1178E-02
    -21.638  0.8131E-02  0.8131E-02  0.2049E-02  0.2049E-02
    -21.531  0.6339E-02  0.6339E-02  0.2728E-02  0.2728E-02
    -21.423  0.1496E-02  0.1496E-02  0.2888E-02  0.2888E-02
    -21.316  0.1105E-01  0.1105E-01  0.4072E-02  0.4072E-02
    -21.209  0.8154E-02  0.8154E-02  0.4945E-02  0.4945E-02
    -21.102  0.4249E-02  0.4249E-02  0.5401E-02  0.5401E-02
    -20.995  0.1318E-02  0.1318E-02  0.5542E-02  0.5542E-02
    -20.888  0.1146E-01  0.1146E-01  0.6770E-02  0.6770E-02
    -20.781  0.1161E-01  0.1161E-01  0.8014E-02  0.8014E-02
    -20.674  0.5969E-02  0.5969E-02  0.8654E-02  0.8654E-02
    -20.566  0.9700E-03  0.9700E-03  0.8758E-02  0.8758E-02
    -20.459  0.4141E-02  0.4141E-02  0.9201E-02  0.9201E-02
    -20.352  0.6336E-02  0.6336E-02  0.9880E-02  0.9880E-02
    -20.245  0.1256E-01  0.1256E-01  0.1123E-01  0.1123E-01
    -20.138  0.1468E-01  0.1468E-01  0.1280E-01  0.1280E-01
    -20.031  0.3476E-02  0.3476E-02  0.1317E-01  0.1317E-01
    -19.924  0.9866E-03  0.9866E-03  0.1328E-01  0.1328E-01
    -19.816  0.5142E-02  0.5142E-02  0.1383E-01  0.1383E-01
    -19.709  0.7847E-02  0.7847E-02  0.1467E-01  0.1467E-01
    -19.602  0.3239E-02  0.3239E-02  0.1501E-01  0.1501E-01
    -19.495  0.1028E-01  0.1028E-01  0.1612E-01  0.1612E-01
    -19.388  0.1554E-01  0.1554E-01  0.1778E-01  0.1778E-01
    -19.281  0.8065E-02  0.8065E-02  0.1865E-01  0.1865E-01
    -19.174  0.1224E-02  0.1224E-02  0.1878E-01  0.1878E-01
    -19.067  0.5440E-02  0.5440E-02  0.1936E-01  0.1936E-01
    -18.959  0.8011E-02  0.8011E-02  0.2022E-01  0.2022E-01
    -18.852  0.6683E-02  0.6683E-02  0.2093E-01  0.2093E-01
    -18.745  0.3039E-02  0.3039E-02  0.2126E-01  0.2126E-01
    -18.638  0.6327E-02  0.6327E-02  0.2194E-01  0.2194E-01
    -18.531  0.8669E-02  0.8669E-02  0.2287E-01  0.2287E-01
    -18.424  0.1828E-01  0.1828E-01  0.2482E-01  0.2482E-01
    -18.317  0.3793E-02  0.3793E-02  0.2523E-01  0.2523E-01
    -18.209  0.5527E-02  0.5527E-02  0.2582E-01  0.2582E-01
    -18.102  0.5938E-02  0.5938E-02  0.2646E-01  0.2646E-01
    -17.995  0.1027E-01  0.1027E-01  0.2756E-01  0.2756E-01
    -17.888  0.6975E-02  0.6975E-02  0.2831E-01  0.2831E-01
    -17.781  0.5085E-02  0.5085E-02  0.2885E-01  0.2885E-01
    -17.674  0.3501E-02  0.3501E-02  0.2923E-01  0.2923E-01
    -17.567  0.3518E-02  0.3518E-02  0.2960E-01  0.2960E-01
    -17.460  0.6996E-02  0.6996E-02  0.3035E-01  0.3035E-01
    -17.352  0.1960E-01  0.1960E-01  0.3245E-01  0.3245E-01
    -17.245  0.7329E-02  0.7329E-02  0.3324E-01  0.3324E-01
    -17.138  0.1055E-01  0.1055E-01  0.3437E-01  0.3437E-01
    -17.031  0.8218E-02  0.8218E-02  0.3525E-01  0.3525E-01
    -16.924  0.5945E-02  0.5945E-02  0.3588E-01  0.3588E-01
    -16.817  0.8811E-02  0.8811E-02  0.3683E-01  0.3683E-01
    -16.710  0.9751E-02  0.9751E-02  0.3787E-01  0.3787E-01
    -16.602  0.1676E-02  0.1676E-02  0.3805E-01  0.3805E-01
    -16.495  0.5181E-02  0.5181E-02  0.3861E-01  0.3861E-01
    -16.388  0.5705E-02  0.5705E-02  0.3922E-01  0.3922E-01
    -16.281  0.1673E-01  0.1673E-01  0.4101E-01  0.4101E-01
    -16.174  0.1014E-01  0.1014E-01  0.4210E-01  0.4210E-01
    -16.067  0.6933E-02  0.6933E-02  0.4284E-01  0.4284E-01
    -15.960  0.1494E-02  0.1494E-02  0.4300E-01  0.4300E-01
    -15.853  0.2601E-02  0.2601E-02  0.4328E-01  0.4328E-01
    -15.745  0.4260E-02  0.4260E-02  0.4374E-01  0.4374E-01
    -15.638  0.2284E-02  0.2284E-02  0.4398E-01  0.4398E-01
    -15.531  0.2528E-02  0.2528E-02  0.4425E-01  0.4425E-01
    -15.424  0.3757E-02  0.3757E-02  0.4465E-01  0.4465E-01
    -15.317  0.7559E-02  0.7559E-02  0.4546E-01  0.4546E-01
    -15.210  0.8997E-02  0.8997E-02  0.4643E-01  0.4643E-01
    -15.103  0.7418E-02  0.7418E-02  0.4722E-01  0.4722E-01
    -14.995  0.6438E-02  0.6438E-02  0.4791E-01  0.4791E-01
    -14.888  0.7683E-02  0.7683E-02  0.4874E-01  0.4874E-01
    -14.781  0.1872E-01  0.1872E-01  0.5074E-01  0.5074E-01
    -14.674  0.2590E-02  0.2590E-02  0.5102E-01  0.5102E-01
    -14.567  0.3616E-02  0.3616E-02  0.5141E-01  0.5141E-01
    -14.460  0.1409E-01  0.1409E-01  0.5292E-01  0.5292E-01
    -14.353  0.1086E-01  0.1086E-01  0.5408E-01  0.5408E-01
    -14.246  0.6571E-02  0.6571E-02  0.5478E-01  0.5478E-01
    -14.138  0.6952E-02  0.6952E-02  0.5553E-01  0.5553E-01
    -14.031  0.1299E-01  0.1299E-01  0.5692E-01  0.5692E-01
    -13.924  0.7875E-02  0.7875E-02  0.5776E-01  0.5776E-01
    -13.817  0.6789E-02  0.6789E-02  0.5849E-01  0.5849E-01
    -13.710  0.3367E-02  0.3367E-02  0.5885E-01  0.5885E-01
    -13.603  0.5466E-02  0.5466E-02  0.5944E-01  0.5944E-01
    -13.496  0.5787E-02  0.5787E-02  0.6006E-01  0.6006E-01
    -13.388  0.1125E-01  0.1125E-01  0.6126E-01  0.6126E-01
    -13.281  0.5468E-02  0.5468E-02  0.6185E-01  0.6185E-01
    -13.174  0.9849E-02  0.9849E-02  0.6290E-01  0.6290E-01
    -13.067  0.5388E-02  0.5388E-02  0.6348E-01  0.6348E-01
    -12.960  0.5512E-02  0.5512E-02  0.6407E-01  0.6407E-01
    -12.853  0.4022E-02  0.4022E-02  0.6450E-01  0.6450E-01
    -12.746  0.4936E-02  0.4936E-02  0.6503E-01  0.6503E-01
    -12.639  0.1046E-01  0.1046E-01  0.6615E-01  0.6615E-01
    -12.531  0.6037E-02  0.6037E-02  0.6680E-01  0.6680E-01
    -12.424  0.1100E-01  0.1100E-01  0.6797E-01  0.6797E-01
    -12.317  0.1583E-01  0.1583E-01  0.6967E-01  0.6967E-01
    -12.210  0.1119E-01  0.1119E-01  0.7087E-01  0.7087E-01
    -12.103  0.1292E-01  0.1292E-01  0.7225E-01  0.7225E-01
    -11.996  0.5696E-02  0.5696E-02  0.7286E-01  0.7286E-01
    -11.889  0.2214E-02  0.2214E-02  0.7310E-01  0.7310E-01
    -11.781  0.7644E-02  0.7644E-02  0.7392E-01  0.7392E-01
    -11.674  0.7946E-02  0.7946E-02  0.7477E-01  0.7477E-01
    -11.567  0.6499E-02  0.6499E-02  0.7547E-01  0.7547E-01
    -11.460  0.9593E-02  0.9593E-02  0.7649E-01  0.7649E-01
    -11.353  0.1437E-01  0.1437E-01  0.7803E-01  0.7803E-01
    -11.246  0.7778E-02  0.7778E-02  0.7887E-01  0.7887E-01
    -11.139  0.1404E-01  0.1404E-01  0.8037E-01  0.8037E-01
    -11.032  0.1212E-01  0.1212E-01  0.8167E-01  0.8167E-01
    -10.924  0.5379E-02  0.5379E-02  0.8225E-01  0.8225E-01
    -10.817  0.1076E-01  0.1076E-01  0.8340E-01  0.8340E-01
    -10.710  0.1519E-01  0.1519E-01  0.8503E-01  0.8503E-01
    -10.603  0.6642E-02  0.6642E-02  0.8574E-01  0.8574E-01
    -10.496  0.7663E-02  0.7663E-02  0.8656E-01  0.8656E-01
    -10.389  0.4584E-02  0.4584E-02  0.8705E-01  0.8705E-01
    -10.282  0.1870E-02  0.1870E-02  0.8725E-01  0.8725E-01
    -10.174  0.5693E-02  0.5693E-02  0.8786E-01  0.8786E-01
    -10.067  0.1732E-01  0.1732E-01  0.8971E-01  0.8971E-01
     -9.960  0.1629E-01  0.1629E-01  0.9146E-01  0.9146E-01
     -9.853  0.1635E-01  0.1635E-01  0.9321E-01  0.9321E-01
     -9.746  0.2070E-01  0.2070E-01  0.9543E-01  0.9543E-01
     -9.639  0.1882E-01  0.1882E-01  0.9745E-01  0.9745E-01
     -9.532  0.1622E-01  0.1622E-01  0.9918E-01  0.9918E-01
     -9.425  0.8413E-02  0.8413E-02  0.1001E+00  0.1001E+00
     -9.317  0.1967E-01  0.1967E-01  0.1022E+00  0.1022E+00
     -9.210  0.1368E-01  0.1368E-01  0.1037E+00  0.1037E+00
     -9.103  0.1791E-01  0.1791E-01  0.1056E+00  0.1056E+00
     -8.996  0.1765E-01  0.1765E-01  0.1075E+00  0.1075E+00
     -8.889  0.2418E-01  0.2418E-01  0.1101E+00  0.1101E+00
     -8.782  0.3802E-01  0.3802E-01  0.1141E+00  0.1141E+00
     -8.675  0.2378E-01  0.2378E-01  0.1167E+00  0.1167E+00
     -8.567  0.2052E-01  0.2052E-01  0.1189E+00  0.1189E+00
     -8.460  0.1874E-01  0.1874E-01  0.1209E+00  0.1209E+00
     -8.353  0.1699E-01  0.1699E-01  0.1227E+00  0.1227E+00
     -8.246  0.2059E-01  0.2059E-01  0.1249E+00  0.1249E+00
     -8.139  0.2584E-01  0.2584E-01  0.1277E+00  0.1277E+00
     -8.032  0.1938E-01  0.1938E-01  0.1298E+00  0.1298E+00
     -7.925  0.1863E-01  0.1863E-01  0.1318E+00  0.1318E+00
     -7.817  0.1292E-01  0.1292E-01  0.1331E+00  0.1331E+00
     -7.710  0.1971E-01  0.1971E-01  0.1352E+00  0.1352E+00
     -7.603  0.1737E-01  0.1737E-01  0.1371E+00  0.1371E+00
     -7.496  0.1572E-01  0.1572E-01  0.1388E+00  0.1388E+00
     -7.389  0.6378E-02  0.6378E-02  0.1395E+00  0.1395E+00
     -7.282  0.2710E-02  0.2710E-02  0.1398E+00  0.1398E+00
     -7.175  0.3014E-01  0.3014E-01  0.1430E+00  0.1430E+00
     -7.068  0.1862E-01  0.1862E-01  0.1450E+00  0.1450E+00
     -6.960  0.1935E-01  0.1935E-01  0.1471E+00  0.1471E+00
     -6.853  0.1475E-01  0.1475E-01  0.1486E+00  0.1486E+00
     -6.746  0.9912E-02  0.9912E-02  0.1497E+00  0.1497E+00
     -6.639  0.1107E-01  0.1107E-01  0.1509E+00  0.1509E+00
     -6.532  0.1057E-01  0.1057E-01  0.1520E+00  0.1520E+00
     -6.425  0.1252E-01  0.1252E-01  0.1534E+00  0.1534E+00
     -6.318  0.1429E-01  0.1429E-01  0.1549E+00  0.1549E+00
     -6.210  0.1722E-01  0.1722E-01  0.1567E+00  0.1567E+00
     -6.103  0.1978E-01  0.1978E-01  0.1589E+00  0.1589E+00
     -5.996  0.1801E-01  0.1801E-01  0.1608E+00  0.1608E+00
     -5.889  0.9256E-02  0.9256E-02  0.1618E+00  0.1618E+00
     -5.782  0.1424E-01  0.1424E-01  0.1633E+00  0.1633E+00
     -5.675  0.1578E-01  0.1578E-01  0.1650E+00  0.1650E+00
     -5.568  0.1474E-01  0.1474E-01  0.1666E+00  0.1666E+00
     -5.461  0.8654E-02  0.8654E-02  0.1675E+00  0.1675E+00
     -5.353  0.7266E-02  0.7266E-02  0.1683E+00  0.1683E+00
     -5.246  0.3997E-02  0.3997E-02  0.1687E+00  0.1687E+00
     -5.139  0.2125E-02  0.2125E-02  0.1689E+00  0.1689E+00
     -5.032  0.3846E-02  0.3846E-02  0.1693E+00  0.1693E+00
     -4.925  0.2301E-01  0.2301E-01  0.1718E+00  0.1718E+00
     -4.818  0.1654E-01  0.1654E-01  0.1736E+00  0.1736E+00
     -4.711  0.1573E-01  0.1573E-01  0.1753E+00  0.1753E+00
     -4.603  0.5304E-02  0.5304E-02  0.1758E+00  0.1758E+00
     -4.496  0.9093E-02  0.9093E-02  0.1768E+00  0.1768E+00
     -4.389  0.4072E-02  0.4072E-02  0.1772E+00  0.1772E+00
     -4.282  0.1722E-03  0.1722E-03  0.1773E+00  0.1773E+00
     -4.175  0.6594E-02  0.6594E-02  0.1780E+00  0.1780E+00
     -4.068  0.7329E-02  0.7329E-02  0.1788E+00  0.1788E+00
     -3.961  0.7314E-02  0.7314E-02  0.1795E+00  0.1795E+00
     -3.854  0.6907E-02  0.6907E-02  0.1803E+00  0.1803E+00
     -3.746  0.8317E-02  0.8317E-02  0.1812E+00  0.1812E+00
     -3.639  0.6376E-02  0.6376E-02  0.1819E+00  0.1819E+00
     -3.532  0.1345E-02  0.1345E-02  0.1820E+00  0.1820E+00
     -3.425  0.1474E-05  0.1474E-05  0.1820E+00  0.1820E+00
     -3.318  0.8686E-03  0.8686E-03  0.1821E+00  0.1821E+00
     -3.211  0.3272E-02  0.3272E-02  0.1824E+00  0.1824E+00
     -3.104  0.6491E-02  0.6491E-02  0.1831E+00  0.1831E+00
     -2.996  0.1246E-02  0.1246E-02  0.1833E+00  0.1833E+00
     -2.889  0.2018E-02  0.2018E-02  0.1835E+00  0.1835E+00
     -2.782  0.1052E-03  0.1052E-03  0.1835E+00  0.1835E+00
     -2.675  0.5415E-06  0.5415E-06  0.1835E+00  0.1835E+00
     -2.568  0.1199E-02  0.1199E-02  0.1836E+00  0.1836E+00
     -2.461  0.3427E-02  0.3427E-02  0.1840E+00  0.1840E+00
     -2.354  0.4065E-04  0.4065E-04  0.1840E+00  0.1840E+00
     -2.247  0.4768E-04  0.4768E-04  0.1840E+00  0.1840E+00
     -2.139  0.3506E-02  0.3506E-02  0.1844E+00  0.1844E+00
     -2.032  0.1113E-02  0.1113E-02  0.1845E+00  0.1845E+00
     -1.925  0.4283E-06  0.4283E-06  0.1845E+00  0.1845E+00
     -1.818  0.1303E-04  0.1303E-04  0.1845E+00  0.1845E+00
     -1.711  0.1908E-02  0.1908E-02  0.1847E+00  0.1847E+00
     -1.604  0.3065E-02  0.3065E-02  0.1850E+00  0.1850E+00
     -1.497  0.5760E-02  0.5760E-02  0.1857E+00  0.1857E+00
     -1.389  0.3241E-02  0.3241E-02  0.1860E+00  0.1860E+00
     -1.282  0.2019E-04  0.2019E-04  0.1860E+00  0.1860E+00
     -1.175  0.3325E-02  0.3325E-02  0.1864E+00  0.1864E+00
     -1.068  0.9030E-02  0.9030E-02  0.1873E+00  0.1873E+00
     -0.961  0.1678E-02  0.1678E-02  0.1875E+00  0.1875E+00
     -0.854  0.3700E-02  0.3700E-02  0.1879E+00  0.1879E+00
     -0.747  0.1477E-01  0.1477E-01  0.1895E+00  0.1895E+00
     -0.640  0.1281E-01  0.1281E-01  0.1909E+00  0.1909E+00
     -0.532  0.5392E-02  0.5392E-02  0.1914E+00  0.1914E+00
     -0.425  0.1098E-01  0.1098E-01  0.1926E+00  0.1926E+00
     -0.318  0.9150E-02  0.9150E-02  0.1936E+00  0.1936E+00
     -0.211  0.5972E-02  0.5972E-02  0.1942E+00  0.1942E+00
     -0.104  0.3520E-02  0.3520E-02  0.1946E+00  0.1946E+00
      0.003  0.1068E-01  0.1068E-01  0.1958E+00  0.1958E+00
      0.110  0.7696E-02  0.7696E-02  0.1966E+00  0.1966E+00
      0.218  0.1098E-01  0.1098E-01  0.1978E+00  0.1978E+00
      0.325  0.1170E-01  0.1170E-01  0.1990E+00  0.1990E+00
      0.432  0.6549E-02  0.6549E-02  0.1997E+00  0.1997E+00
      0.539  0.3393E-02  0.3393E-02  0.2001E+00  0.2001E+00
      0.646  0.5758E-02  0.5759E-02  0.2007E+00  0.2007E+00
      0.753  0.1114E-01  0.1114E-01  0.2019E+00  0.2019E+00
      0.860  0.8468E-02  0.8468E-02  0.2028E+00  0.2028E+00
      0.967  0.7719E-02  0.7719E-02  0.2036E+00  0.2036E+00
      1.075  0.8554E-02  0.8554E-02  0.2045E+00  0.2045E+00
      1.182  0.8745E-02  0.8745E-02  0.2055E+00  0.2055E+00
      1.289  0.7696E-02  0.7696E-02  0.2063E+00  0.2063E+00
      1.396  0.8813E-02  0.8813E-02  0.2072E+00  0.2072E+00
      1.503  0.1019E-01  0.1019E-01  0.2083E+00  0.2083E+00
      1.610  0.1919E-01  0.1919E-01  0.2104E+00  0.2104E+00
      1.717  0.1754E-01  0.1754E-01  0.2123E+00  0.2123E+00
      1.825  0.1167E-01  0.1167E-01  0.2135E+00  0.2135E+00
      1.932  0.7828E-02  0.7828E-02  0.2144E+00  0.2144E+00
      2.039  0.1492E-01  0.1492E-01  0.2160E+00  0.2160E+00
      2.146  0.2473E-01  0.2473E-01  0.2186E+00  0.2186E+00
      2.253  0.1571E-01  0.1571E-01  0.2203E+00  0.2203E+00
      2.360  0.1757E-01  0.1757E-01  0.2222E+00  0.2222E+00
      2.467  0.3016E-01  0.3015E-01  0.2254E+00  0.2254E+00
      2.574  0.6263E-02  0.6263E-02  0.2261E+00  0.2261E+00
      2.682  0.9607E-02  0.9607E-02  0.2271E+00  0.2271E+00
      2.789  0.2127E-01  0.2127E-01  0.2294E+00  0.2294E+00
      2.896  0.3319E-01  0.3319E-01  0.2329E+00  0.2329E+00
      3.003  0.3172E-01  0.3172E-01  0.2363E+00  0.2363E+00
      3.110  0.1899E-01  0.1899E-01  0.2384E+00  0.2384E+00
      3.217  0.2367E-01  0.2367E-01  0.2409E+00  0.2409E+00
      3.324  0.2195E-01  0.2195E-01  0.2432E+00  0.2432E+00
      3.432  0.1624E-01  0.1624E-01  0.2450E+00  0.2450E+00
      3.539  0.2722E-01  0.2722E-01  0.2479E+00  0.2479E+00
      3.646  0.1676E-01  0.1676E-01  0.2497E+00  0.2497E+00
      3.753  0.1790E-01  0.1790E-01  0.2516E+00  0.2516E+00
      3.860  0.3105E-01  0.3105E-01  0.2549E+00  0.2549E+00
      3.967  0.1857E-01  0.1857E-01  0.2569E+00  0.2569E+00
      4.074  0.2277E-01  0.2277E-01  0.2594E+00  0.2594E+00
      4.181  0.1630E-01  0.1630E-01  0.2611E+00  0.2611E+00
      4.289  0.2338E-01  0.2338E-01  0.2636E+00  0.2636E+00
      4.396  0.3186E-01  0.3186E-01  0.2670E+00  0.2670E+00
      4.503  0.3731E-01  0.3731E-01  0.2710E+00  0.2710E+00
      4.610  0.2359E-01  0.2359E-01  0.2736E+00  0.2736E+00
      4.717  0.1883E-01  0.1883E-01  0.2756E+00  0.2756E+00
      4.824  0.2902E-01  0.2902E-01  0.2787E+00  0.2787E+00
      4.931  0.1211E-01  0.1211E-01  0.2800E+00  0.2800E+00
      5.039  0.1379E-03  0.1379E-03  0.2800E+00  0.2800E+00
      5.146  0.1412E-08  0.1412E-08  0.2800E+00  0.2800E+00
      5.253  0.2332E-17  0.2332E-17  0.2800E+00  0.2800E+00
      5.360  0.0000E+00  0.0000E+00  0.2800E+00  0.2800E+00
      5.467  0.0000E+00  0.0000E+00  0.2800E+00  0.2800E+00
      5.574  0.0000E+00  0.0000E+00  0.2800E+00  0.2800E+00
      5.681  0.0000E+00  0.0000E+00  0.2800E+00  0.2800E+00
      5.788  0.0000E+00  0.0000E+00  0.2800E+00  0.2800E+00
      5.896  0.0000E+00  0.0000E+00  0.2800E+00  0.2800E+00
      6.003  0.0000E+00  0.0000E+00  0.2800E+00  0.2800E+00
      6.110  0.0000E+00  0.0000E+00  0.2800E+00  0.2800E+00
      6.217  0.0000E+00  0.0000E+00  0.2800E+00  0.2800E+00
      6.324  0.0000E+00  0.0000E+00  0.2800E+00  0.2800E+00
