 vasp.6.4.2 20Jul23 (build Aug 26 2025 15:10:52) complex                        
  
 POSCAR found type information on POSCAR C H O 
 04/POSCAR found :  3 types and      99 ions
 Reading from existing POTCAR
 scaLAPACK will be used
 -----------------------------------------------------------------------------
|                                                                             |
|           W    W    AA    RRRRR   N    N  II  N    N   GGGG   !!!           |
|           W    W   A  A   R    R  NN   N  II  NN   N  G    G  !!!           |
|           W    W  A    A  R    R  N N  N  II  N N  N  G       !!!           |
|           W WW W  AAAAAA  RRRRR   N  N N  II  N  N N  G  GGG   !            |
|           WW  WW  A    A  R   R   N   NN  II  N   NN  G    G                |
|           W    W  A    A  R    R  N    N  II  N    N   GGGG   !!!           |
|                                                                             |
|     For optimal performance we recommend to set                             |
|       NCORE = 2 up to number-of-cores-per-socket                            |
|     NCORE specifies how many cores store one orbital (NPAR=cpu/NCORE).      |
|     This setting can greatly improve the performance of VASP for DFT.       |
|     The default, NCORE=1 might be grossly inefficient on modern             |
|     multi-core architectures or massively parallel machines. Do your        |
|     own testing! More info at https://www.vasp.at/wiki/index.php/NCORE      |
|     Unfortunately you need to use the default for GW and RPA                |
|     calculations (for HF NCORE is supported but not extensively tested      |
|     yet).                                                                   |
|                                                                             |
 -----------------------------------------------------------------------------

 Reading from existing POTCAR
 LDA part: xc-table for Pade appr. of Perdew
 POSCAR found type information on POSCAR C H O 
 00/POSCAR found :  3 types and      99 ions
 POSCAR found type information on POSCAR C H O 
 06/POSCAR found :  3 types and      99 ions
 Jacobian:    33.7825262909836     
 POSCAR found type information on POSCAR C H O 
 00/POSCAR found :  3 types and      99 ions
 POSCAR found type information on POSCAR C H O 
 06/POSCAR found :  3 types and      99 ions
 POSCAR, INCAR and KPOINTS ok, starting setup
 FFT: planning ... GRIDC
 FFT: planning ... GRID_SOFT
 FFT: planning ... GRID
 WAVECAR not read
 entering main loop
       N       E                     dE             d eps       ncg     rms          rms(c)
DAV:   1     0.318784269983E+04    0.31878E+04   -0.13425E+05  4720   0.963E+02
DAV:   2    -0.299684761398E+03   -0.34875E+04   -0.32872E+04  6920   0.244E+02
DAV:   3    -0.877392244511E+03   -0.57771E+03   -0.57510E+03  5520   0.103E+02
DAV:   4    -0.897421555418E+03   -0.20029E+02   -0.19959E+02  5740   0.245E+01
DAV:   5    -0.898020479343E+03   -0.59892E+00   -0.59820E+00  6620   0.376E+00    0.523E+01
DAV:   6    -0.737369211864E+03    0.16065E+03   -0.17104E+02  5300   0.190E+01    0.292E+01
DAV:   7    -0.780533691105E+03   -0.43164E+02   -0.65243E+01  5100   0.119E+01    0.142E+01
DAV:   8    -0.810060022867E+03   -0.29526E+02   -0.21073E+01  5480   0.690E+00    0.739E+00
DAV:   9    -0.827220452313E+03   -0.17160E+02   -0.67020E+00  5040   0.359E+00    0.431E+00
DAV:  10    -0.840141033734E+03   -0.12921E+02   -0.47439E+00  5080   0.260E+00    0.231E+00
DAV:  11    -0.846667296702E+03   -0.65263E+01   -0.25097E+00  4880   0.175E+00    0.137E+00
DAV:  12    -0.849611821413E+03   -0.29445E+01   -0.11398E+00  4800   0.120E+00    0.737E-01
DAV:  13    -0.851078252676E+03   -0.14664E+01   -0.42217E-01  5320   0.731E-01    0.234E-01
DAV:  14    -0.851335933189E+03   -0.25768E+00   -0.49786E-02  5020   0.263E-01    0.117E-01
DAV:  15    -0.851348241192E+03   -0.12308E-01   -0.87067E-03  5160   0.113E-01    0.819E-02
DAV:  16    -0.851360498828E+03   -0.12258E-01   -0.26097E-03  4800   0.803E-02    0.633E-02
DAV:  17    -0.851386815823E+03   -0.26317E-01   -0.27510E-03  4980   0.683E-02    0.452E-02
DAV:  18    -0.851397756814E+03   -0.10941E-01   -0.11100E-03  4980   0.468E-02    0.316E-02
DAV:  19    -0.851401943690E+03   -0.41869E-02   -0.31632E-04  5100   0.306E-02    0.188E-02
DAV:  20    -0.851404132452E+03   -0.21888E-02   -0.11751E-04  5020   0.198E-02    0.106E-02
DAV:  21    -0.851405136781E+03   -0.10043E-02   -0.27721E-05  4980   0.118E-02    0.470E-03
DAV:  22    -0.851405567165E+03   -0.43038E-03   -0.10214E-05  4700   0.709E-03    0.258E-03
DAV:  23    -0.851405724591E+03   -0.15743E-03   -0.30807E-06  4680   0.440E-03    0.149E-03
DAV:  24    -0.851405819400E+03   -0.94809E-04   -0.15200E-06  4300   0.282E-03    0.905E-04
DAV:  25    -0.851405859811E+03   -0.40410E-04   -0.98191E-07  3900   0.191E-03    0.550E-04
DAV:  26    -0.851405869337E+03   -0.95257E-05   -0.27834E-07  3600   0.111E-03    0.409E-04
DAV:  27    -0.851405875683E+03   -0.63466E-05   -0.13947E-07  3480   0.641E-04    0.311E-04
DAV:  28    -0.851405877576E+03   -0.18932E-05   -0.71690E-08  3640   0.425E-04    0.288E-04
DAV:  29    -0.851405878090E+03   -0.51337E-06   -0.20881E-08  3720   0.240E-04
   1 F= -.85929547E+03 E0= -.85929547E+03  d E =-.859295E+03  mag=     0.0000
quench:  g(F)=  0.000E+00 g(S)=  0.000E+00 dE (1.order)= 0.000E+00
 bond charge predicted
       N       E                     dE             d eps       ncg     rms          rms(c)
DAV:   1    -0.851406459397E+03   -0.58182E-03   -0.20121E-02  4820   0.281E-01    0.310E-02
DAV:   2    -0.851406486199E+03   -0.26802E-04   -0.42033E-04  5060   0.385E-02    0.201E-02
DAV:   3    -0.851406480698E+03    0.55007E-05   -0.28037E-05  5260   0.113E-02    0.105E-02
DAV:   4    -0.851406480271E+03    0.42730E-06   -0.80402E-06  4840   0.528E-03    0.474E-03
DAV:   5    -0.851406480313E+03   -0.42543E-07   -0.71997E-07  3320   0.183E-03    0.185E-03
DAV:   6    -0.851406480303E+03    0.10397E-07   -0.25111E-07  3360   0.123E-03
   2 F= -.85929606E+03 E0= -.85929606E+03  d E =-.593271E-03  mag=     0.0000
quench:  g(F)=  0.000E+00 g(S)=  0.000E+00 dE (1.order)= 0.000E+00
 bond charge predicted
       N       E                     dE             d eps       ncg     rms          rms(c)
DAV:   1    -0.851406781466E+03   -0.30115E-03   -0.43699E-02  4760   0.407E-01    0.443E-02
DAV:   2    -0.851406840147E+03   -0.58681E-04   -0.84057E-04  5100   0.540E-02    0.287E-02
DAV:   3    -0.851406829583E+03    0.10564E-04   -0.49130E-05  5060   0.157E-02    0.153E-02
DAV:   4    -0.851406829308E+03    0.27439E-06   -0.19204E-05  4840   0.819E-03    0.641E-03
DAV:   5    -0.851406829467E+03   -0.15847E-06   -0.13489E-06  3800   0.240E-03    0.311E-03
DAV:   6    -0.851406829435E+03    0.31418E-07   -0.40032E-07  3400   0.164E-03
   3 F= -.85929638E+03 E0= -.85929638E+03  d E =-.320243E-03  mag=     0.0000
quench:  g(F)=  0.000E+00 g(S)=  0.000E+00 dE (1.order)= 0.000E+00
 bond charge predicted
       N       E                     dE             d eps       ncg     rms          rms(c)
DAV:   1    -0.851406958466E+03   -0.12900E-03   -0.62511E-04  4820   0.478E-02    0.595E-03
DAV:   2    -0.851406959140E+03   -0.67378E-06   -0.13330E-05  4960   0.671E-03    0.396E-03
DAV:   3    -0.851406958980E+03    0.15918E-06   -0.11942E-06  3520   0.227E-03    0.172E-03
DAV:   4    -0.851406959031E+03   -0.50633E-07   -0.27704E-07  3280   0.108E-03    0.795E-04
DAV:   5    -0.851406959085E+03   -0.53718E-07   -0.75564E-08  3320   0.596E-04    0.366E-04
DAV:   6    -0.851406959108E+03   -0.22927E-07   -0.26413E-08  3280   0.417E-04
   4 F= -.85929650E+03 E0= -.85929650E+03  d E =-.123581E-03  mag=     0.0000
quench:  g(F)=  0.000E+00 g(S)=  0.000E+00 dE (1.order)= 0.000E+00
 bond charge predicted
       N       E                     dE             d eps       ncg     rms          rms(c)
DAV:   1    -0.851407207553E+03   -0.24847E-03   -0.26675E-03  4760   0.955E-02    0.121E-02
DAV:   2    -0.851407210351E+03   -0.27978E-05   -0.52046E-05  4900   0.129E-02    0.807E-03
DAV:   3    -0.851407209704E+03    0.64707E-06   -0.43738E-06  4820   0.416E-03    0.354E-03
DAV:   4    -0.851407209739E+03   -0.35550E-07   -0.64008E-07  3280   0.157E-03    0.149E-03
DAV:   5    -0.851407209779E+03   -0.39639E-07   -0.16250E-07  3280   0.823E-04    0.529E-04
DAV:   6    -0.851407209794E+03   -0.15541E-07   -0.49683E-08  3280   0.521E-04
   5 F= -.85929674E+03 E0= -.85929674E+03  d E =-.233246E-03  mag=     0.0000
quench:  g(F)=  0.000E+00 g(S)=  0.000E+00 dE (1.order)= 0.000E+00
 bond charge predicted
       N       E                     dE             d eps       ncg     rms          rms(c)
DAV:   1    -0.851407574363E+03   -0.36458E-03   -0.71567E-03  4640   0.148E-01    0.197E-02
DAV:   2    -0.851407581338E+03   -0.69754E-05   -0.12242E-04  4760   0.188E-02    0.130E-02
DAV:   3    -0.851407580206E+03    0.11321E-05   -0.76250E-06  5020   0.563E-03    0.547E-03
DAV:   4    -0.851407580553E+03   -0.34650E-06   -0.16150E-06  3940   0.232E-03    0.191E-03
DAV:   5    -0.851407580621E+03   -0.68365E-07   -0.21952E-07  3260   0.105E-03    0.738E-04
DAV:   6    -0.851407580651E+03   -0.29584E-07   -0.84732E-08  3180   0.705E-04
   6 F= -.85929707E+03 E0= -.85929707E+03  d E =-.336175E-03  mag=     0.0000
quench:  g(F)=  0.000E+00 g(S)=  0.000E+00 dE (1.order)= 0.000E+00
 bond charge predicted
       N       E                     dE             d eps       ncg     rms          rms(c)
DAV:   1    -0.851408100308E+03   -0.51969E-03   -0.17523E-02  4520   0.219E-01    0.304E-02
DAV:   2    -0.851408116114E+03   -0.15807E-04   -0.27410E-04  4640   0.264E-02    0.198E-02
DAV:   3    -0.851408114358E+03    0.17565E-05   -0.12043E-05  4920   0.711E-03    0.827E-03
DAV:   4    -0.851408115816E+03   -0.14577E-05   -0.38881E-06  4600   0.339E-03    0.233E-03
DAV:   5    -0.851408115913E+03   -0.96872E-07   -0.61112E-07  3840   0.179E-03    0.957E-04
DAV:   6    -0.851408115948E+03   -0.34968E-07   -0.18091E-07  3300   0.109E-03
   7 F= -.85929755E+03 E0= -.85929755E+03  d E =-.477191E-03  mag=     0.0000
quench:  g(F)=  0.000E+00 g(S)=  0.000E+00 dE (1.order)= 0.000E+00
 bond charge predicted
       N       E                     dE             d eps       ncg     rms          rms(c)
DAV:   1    -0.851408865046E+03   -0.74913E-03   -0.37425E-02  4480   0.314E-01    0.444E-02
DAV:   2    -0.851408896414E+03   -0.31368E-04   -0.56237E-04  4480   0.368E-02    0.285E-02
DAV:   3    -0.851408893784E+03    0.26295E-05   -0.21586E-05  4740   0.939E-03    0.118E-02
DAV:   4    -0.851408897302E+03   -0.35175E-05   -0.82220E-06  4820   0.482E-03    0.302E-03
DAV:   5    -0.851408897573E+03   -0.27109E-06   -0.16684E-06  4040   0.306E-03    0.124E-03
DAV:   6    -0.851408897481E+03    0.92055E-07   -0.51853E-07  3640   0.196E-03
   8 F= -.85929825E+03 E0= -.85929825E+03  d E =-.695669E-03  mag=     0.0000
quench:  g(F)=  0.000E+00 g(S)=  0.000E+00 dE (1.order)= 0.000E+00
 bond charge predicted
       N       E                     dE             d eps       ncg     rms          rms(c)
DAV:   1    -0.851409923435E+03   -0.10259E-02   -0.65584E-02  4480   0.413E-01    0.585E-02
DAV:   2    -0.851409977930E+03   -0.54495E-04   -0.99106E-04  4520   0.483E-02    0.373E-02
DAV:   3    -0.851409973767E+03    0.41633E-05   -0.35704E-05  4740   0.119E-02    0.158E-02
DAV:   4    -0.851409980655E+03   -0.68879E-05   -0.14850E-05  4680   0.654E-03    0.380E-03
DAV:   5    -0.851409981496E+03   -0.84073E-06   -0.37155E-06  4320   0.477E-03    0.161E-03
DAV:   6    -0.851409980774E+03    0.72178E-06   -0.11127E-06  4040   0.291E-03
   9 F= -.85929922E+03 E0= -.85929922E+03  d E =-.971104E-03  mag=    -0.0000
quench:  g(F)=  0.000E+00 g(S)=  0.000E+00 dE (1.order)= 0.000E+00
 bond charge predicted
       N       E                     dE             d eps       ncg     rms          rms(c)
DAV:   1    -0.851411352092E+03   -0.13706E-02   -0.12577E-01  4480   0.569E-01    0.808E-02
DAV:   2    -0.851411460125E+03   -0.10803E-03   -0.19392E-03  4560   0.670E-02    0.513E-02
DAV:   3    -0.851411450249E+03    0.98759E-05   -0.66568E-05  4740   0.161E-02    0.223E-02
DAV:   4    -0.851411464984E+03   -0.14735E-04   -0.29508E-05  4680   0.919E-03    0.515E-03
DAV:   5    -0.851411466722E+03   -0.17378E-05   -0.74284E-06  4520   0.678E-03    0.219E-03
DAV:   6    -0.851411465083E+03    0.16387E-05   -0.20058E-06  4240   0.390E-03    0.136E-03
DAV:   7    -0.851411466026E+03   -0.94333E-06   -0.95597E-07  4120   0.270E-03
  10 F= -.85930055E+03 E0= -.85930055E+03  d E =-.133228E-02  mag=     0.0000
quench:  g(F)=  0.000E+00 g(S)=  0.000E+00 dE (1.order)= 0.000E+00
 bond charge predicted
       N       E                     dE             d eps       ncg     rms          rms(c)
DAV:   1    -0.851413147752E+03   -0.16827E-02   -0.21690E-01  4480   0.745E-01    0.106E-01
DAV:   2    -0.851413341531E+03   -0.19378E-03   -0.33789E-03  4520   0.880E-02    0.671E-02
DAV:   3    -0.851413319585E+03    0.21947E-04   -0.11194E-04  4920   0.206E-02    0.297E-02
DAV:   4    -0.851413344399E+03   -0.24815E-04   -0.50342E-05  4760   0.113E-02    0.669E-03
DAV:   5    -0.851413345031E+03   -0.63131E-06   -0.80515E-06  4800   0.533E-03    0.271E-03
DAV:   6    -0.851413345332E+03   -0.30093E-06   -0.60347E-07  4320   0.137E-03
  11 F= -.85930223E+03 E0= -.85930223E+03  d E =-.167931E-02  mag=     0.0000
quench:  g(F)=  0.000E+00 g(S)=  0.000E+00 dE (1.order)= 0.000E+00
 bond charge predicted
       N       E                     dE             d eps       ncg     rms          rms(c)
DAV:   1    -0.851415364571E+03   -0.20195E-02   -0.33606E-01  4480   0.924E-01    0.133E-01
DAV:   2    -0.851415671244E+03   -0.30667E-03   -0.52048E-03  4560   0.109E-01    0.834E-02
DAV:   3    -0.851415634423E+03    0.36821E-04   -0.16938E-04  4820   0.252E-02    0.369E-02
DAV:   4    -0.851415670216E+03   -0.35793E-04   -0.76978E-05  4820   0.139E-02    0.819E-03
DAV:   5    -0.851415671272E+03   -0.10568E-05   -0.12540E-05  4760   0.676E-03    0.333E-03
DAV:   6    -0.851415671639E+03   -0.36645E-06   -0.10316E-06  4520   0.199E-03
  12 F= -.85930430E+03 E0= -.85930430E+03  d E =-.207472E-02  mag=     0.0000
quench:  g(F)=  0.000E+00 g(S)=  0.000E+00 dE (1.order)= 0.000E+00
 bond charge predicted
       N       E                     dE             d eps       ncg     rms          rms(c)
DAV:   1    -0.851418075533E+03   -0.24043E-02   -0.47018E-01  4480   0.109E+00    0.157E-01
DAV:   2    -0.851418509639E+03   -0.43411E-03   -0.71845E-03  4560   0.128E-01    0.991E-02
DAV:   3    -0.851418458434E+03    0.51206E-04   -0.23764E-04  4920   0.301E-02    0.430E-02
DAV:   4    -0.851418503701E+03   -0.45267E-04   -0.10439E-04  4720   0.165E-02    0.973E-03
DAV:   5    -0.851418505920E+03   -0.22195E-05   -0.18909E-05  4800   0.905E-03    0.401E-03
DAV:   6    -0.851418505462E+03    0.45789E-06   -0.23204E-06  4380   0.377E-03
  13 F= -.85930684E+03 E0= -.85930684E+03  d E =-.253269E-02  mag=     0.0000
quench:  g(F)=  0.000E+00 g(S)=  0.000E+00 dE (1.order)= 0.000E+00
 bond charge predicted
       N       E                     dE             d eps       ncg     rms          rms(c)
DAV:   1    -0.851421311911E+03   -0.28060E-02   -0.59914E-01  4480   0.123E+00    0.178E-01
DAV:   2    -0.851421883971E+03   -0.57206E-03   -0.91278E-03  4600   0.144E-01    0.112E-01
DAV:   3    -0.851421819306E+03    0.64665E-04   -0.30711E-04  4920   0.347E-02    0.484E-02
DAV:   4    -0.851421873894E+03   -0.54587E-04   -0.13181E-04  4660   0.194E-02    0.112E-02
DAV:   5    -0.851421880659E+03   -0.67654E-05   -0.31676E-05  4700   0.137E-02    0.475E-03
DAV:   6    -0.851421875411E+03    0.52484E-05   -0.86276E-06  4520   0.821E-03    0.279E-03
DAV:   7    -0.851421879787E+03   -0.43759E-05   -0.51724E-06  4480   0.642E-03    0.158E-03
DAV:   8    -0.851421876509E+03    0.32776E-05   -0.26493E-06  4280   0.473E-03    0.694E-04
DAV:   9    -0.851421877225E+03   -0.71591E-06   -0.93981E-08  3720   0.686E-04
  14 F= -.85930986E+03 E0= -.85930986E+03  d E =-.302312E-02  mag=    -0.0000
quench:  g(F)=  0.000E+00 g(S)=  0.000E+00 dE (1.order)= 0.000E+00
 bond charge predicted
       N       E                     dE             d eps       ncg     rms          rms(c)
DAV:   1    -0.851421899648E+03   -0.23139E-04   -0.11320E-04  4680   0.190E-02    0.234E-03
DAV:   2    -0.851421900124E+03   -0.47626E-06   -0.24877E-06  4600   0.263E-03    0.155E-03
DAV:   3    -0.851421900391E+03   -0.26731E-06   -0.15395E-07  3080   0.804E-04    0.862E-04
DAV:   4    -0.851421900780E+03   -0.38909E-06   -0.56857E-08  3360   0.499E-04    0.382E-04
DAV:   5    -0.851421901067E+03   -0.28645E-06   -0.22017E-08  3280   0.374E-04    0.320E-04
DAV:   6    -0.851421901220E+03   -0.15296E-06   -0.91558E-09  3200   0.272E-04
  15 F= -.85930988E+03 E0= -.85930988E+03  d E =-.241244E-04  mag=    -0.0000
quench:  g(F)=  0.000E+00 g(S)=  0.000E+00 dE (1.order)= 0.000E+00
 bond charge predicted
       N       E                     dE             d eps       ncg     rms          rms(c)
DAV:   1    -0.851421934575E+03   -0.33508E-04   -0.39525E-04  4720   0.356E-02    0.434E-03
DAV:   2    -0.851421935198E+03   -0.62246E-06   -0.87131E-06  5080   0.489E-03    0.284E-03
DAV:   3    -0.851421935159E+03    0.38228E-07   -0.37468E-07  3200   0.125E-03    0.153E-03
DAV:   4    -0.851421935250E+03   -0.90396E-07   -0.15829E-07  3240   0.792E-04    0.515E-04
DAV:   5    -0.851421935312E+03   -0.62224E-07   -0.38504E-08  3280   0.408E-04    0.350E-04
DAV:   6    -0.851421935348E+03   -0.36278E-07   -0.70597E-09  3240   0.224E-04
  16 F= -.85930992E+03 E0= -.85930992E+03  d E =-.345157E-04  mag=     0.0000
quench:  g(F)=  0.000E+00 g(S)=  0.000E+00 dE (1.order)= 0.000E+00
 bond charge predicted
       N       E                     dE             d eps       ncg     rms          rms(c)
DAV:   1    -0.851421970073E+03   -0.34761E-04   -0.72808E-04  4680   0.481E-02    0.579E-03
DAV:   2    -0.851421971075E+03   -0.10016E-05   -0.15181E-05  4940   0.645E-03    0.376E-03
DAV:   3    -0.851421970918E+03    0.15640E-06   -0.65395E-07  3360   0.166E-03    0.197E-03
DAV:   4    -0.851421970952E+03   -0.33520E-07   -0.26762E-07  3160   0.104E-03    0.617E-04
DAV:   5    -0.851421970976E+03   -0.24324E-07   -0.72706E-08  3260   0.594E-04    0.384E-04
DAV:   6    -0.851421970983E+03   -0.70868E-08   -0.21028E-08  3320   0.377E-04
  17 F= -.85930996E+03 E0= -.85930996E+03  d E =-.365367E-04  mag=     0.0000
quench:  g(F)=  0.000E+00 g(S)=  0.000E+00 dE (1.order)= 0.000E+00
 bond charge predicted
       N       E                     dE             d eps       ncg     rms          rms(c)
DAV:   1    -0.851422004497E+03   -0.33521E-04   -0.10331E-03  4480   0.560E-02    0.672E-03
DAV:   2    -0.851422005841E+03   -0.13437E-05   -0.19801E-05  4720   0.721E-03    0.428E-03
DAV:   3    -0.851422005649E+03    0.19201E-06   -0.76441E-07  3320   0.181E-03    0.221E-03
DAV:   4    -0.851422005684E+03   -0.35507E-07   -0.33192E-07  3120   0.116E-03    0.634E-04
DAV:   5    -0.851422005701E+03   -0.17324E-07   -0.90477E-08  3280   0.669E-04    0.405E-04
DAV:   6    -0.851422005704E+03   -0.29322E-08   -0.26633E-08  3220   0.422E-04
  18 F= -.85930999E+03 E0= -.85930999E+03  d E =-.359939E-04  mag=     0.0000
quench:  g(F)=  0.000E+00 g(S)=  0.000E+00 dE (1.order)= 0.000E+00
 bond charge predicted
       N       E                     dE             d eps       ncg     rms          rms(c)
DAV:   1    -0.851422045702E+03   -0.40001E-04   -0.13015E-03  4480   0.607E-02    0.735E-03
DAV:   2    -0.851422047306E+03   -0.16038E-05   -0.22565E-05  4720   0.737E-03    0.454E-03
DAV:   3    -0.851422047126E+03    0.18022E-06   -0.70126E-07  3280   0.177E-03    0.231E-03
DAV:   4    -0.851422047181E+03   -0.55414E-07   -0.36238E-07  3280   0.120E-03    0.607E-04
DAV:   5    -0.851422047197E+03   -0.15432E-07   -0.10204E-07  3200   0.747E-04    0.411E-04
DAV:   6    -0.851422047195E+03    0.17826E-08   -0.32761E-08  3120   0.473E-04
  19 F= -.85931003E+03 E0= -.85931003E+03  d E =-.427261E-04  mag=     0.0000
quench:  g(F)=  0.000E+00 g(S)=  0.000E+00 dE (1.order)= 0.000E+00
 bond charge predicted
       N       E                     dE             d eps       ncg     rms          rms(c)
DAV:   1    -0.851422105663E+03   -0.58466E-04   -0.16056E-03  4480   0.650E-02    0.804E-03
DAV:   2    -0.851422107569E+03   -0.19066E-05   -0.25863E-05  4720   0.750E-03    0.484E-03
DAV:   3    -0.851422107406E+03    0.16346E-06   -0.65662E-07  3500   0.171E-03    0.247E-03
DAV:   4    -0.851422107479E+03   -0.73720E-07   -0.38173E-07  3320   0.121E-03    0.614E-04
DAV:   5    -0.851422107497E+03   -0.17411E-07   -0.11607E-07  3040   0.813E-04    0.417E-04
DAV:   6    -0.851422107492E+03    0.51223E-08   -0.40293E-08  3160   0.521E-04
  20 F= -.85931009E+03 E0= -.85931009E+03  d E =-.607786E-04  mag=     0.0000
quench:  g(F)=  0.000E+00 g(S)=  0.000E+00 dE (1.order)= 0.000E+00
 bond charge predicted
       N       E                     dE             d eps       ncg     rms          rms(c)
DAV:   1    -0.851422204456E+03   -0.96959E-04   -0.25213E-03  4480   0.794E-02    0.101E-02
DAV:   2    -0.851422207479E+03   -0.30229E-05   -0.40115E-05  4760   0.903E-03    0.600E-03
DAV:   3    -0.851422207242E+03    0.23631E-06   -0.91272E-07  3720   0.201E-03    0.308E-03
DAV:   4    -0.851422207357E+03   -0.11452E-06   -0.55275E-07  3640   0.143E-03    0.735E-04
DAV:   5    -0.851422207382E+03   -0.25138E-07   -0.15464E-07  3060   0.930E-04    0.456E-04
DAV:   6    -0.851422207377E+03    0.45038E-08   -0.53081E-08  3160   0.593E-04
  21 F= -.85931019E+03 E0= -.85931019E+03  d E =-.985242E-04  mag=     0.0000
quench:  g(F)=  0.000E+00 g(S)=  0.000E+00 dE (1.order)= 0.000E+00
 bond charge predicted
       N       E                     dE             d eps       ncg     rms          rms(c)
DAV:   1    -0.851422356707E+03   -0.14933E-03   -0.41075E-03  4480   0.991E-02    0.130E-02
DAV:   2    -0.851422361847E+03   -0.51396E-05   -0.66998E-05  4680   0.114E-02    0.770E-03
DAV:   3    -0.851422361462E+03    0.38520E-06   -0.15478E-06  3920   0.256E-03    0.401E-03
DAV:   4    -0.851422361650E+03   -0.18878E-06   -0.84996E-07  3760   0.178E-03    0.915E-04
DAV:   5    -0.851422361694E+03   -0.43983E-07   -0.25280E-07  3360   0.117E-03    0.547E-04
DAV:   6    -0.851422361683E+03    0.11823E-07   -0.74881E-08  3200   0.709E-04
  22 F= -.85931034E+03 E0= -.85931034E+03  d E =-.148996E-03  mag=     0.0000
quench:  g(F)=  0.000E+00 g(S)=  0.000E+00 dE (1.order)= 0.000E+00
 bond charge predicted
       N       E                     dE             d eps       ncg     rms          rms(c)
DAV:   1    -0.851422571828E+03   -0.21013E-03   -0.66832E-03  4480   0.122E-01    0.169E-02
DAV:   2    -0.851422580528E+03   -0.87001E-05   -0.11136E-04  4720   0.142E-02    0.985E-03
DAV:   3    -0.851422579927E+03    0.60059E-06   -0.23500E-06  4020   0.310E-03    0.522E-03
DAV:   4    -0.851422580336E+03   -0.40921E-06   -0.14141E-06  4060   0.225E-03    0.114E-03
DAV:   5    -0.851422580407E+03   -0.70489E-07   -0.42322E-07  3480   0.153E-03    0.661E-04
DAV:   6    -0.851422580374E+03    0.33106E-07   -0.11854E-07  3120   0.896E-04
  23 F= -.85931055E+03 E0= -.85931055E+03  d E =-.206727E-03  mag=     0.0000
quench:  g(F)=  0.000E+00 g(S)=  0.000E+00 dE (1.order)= 0.000E+00
 bond charge predicted
       N       E                     dE             d eps       ncg     rms          rms(c)
DAV:   1    -0.851422879922E+03   -0.29951E-03   -0.10886E-02  4480   0.148E-01    0.218E-02
DAV:   2    -0.851422894473E+03   -0.14551E-04   -0.18349E-04  4680   0.170E-02    0.126E-02
DAV:   3    -0.851422893609E+03    0.86385E-06   -0.32323E-06  4200   0.356E-03    0.675E-03
DAV:   4    -0.851422894591E+03   -0.98129E-06   -0.24032E-06  4120   0.277E-03    0.139E-03
DAV:   5    -0.851422894704E+03   -0.11342E-06   -0.73902E-07  3640   0.200E-03    0.799E-04
DAV:   6    -0.851422894625E+03    0.79075E-07   -0.18881E-07  3240   0.114E-03
  24 F= -.85931084E+03 E0= -.85931084E+03  d E =-.292211E-03  mag=     0.0000
quench:  g(F)=  0.000E+00 g(S)=  0.000E+00 dE (1.order)= 0.000E+00
 bond charge predicted
       N       E                     dE             d eps       ncg     rms          rms(c)
DAV:   1    -0.851423320797E+03   -0.42609E-03   -0.17865E-02  4480   0.183E-01    0.284E-02
DAV:   2    -0.851423345037E+03   -0.24240E-04   -0.30425E-04  4680   0.210E-02    0.162E-02
DAV:   3    -0.851423343720E+03    0.13173E-05   -0.48732E-06  4600   0.419E-03    0.874E-03
DAV:   4    -0.851423345613E+03   -0.18933E-05   -0.39508E-06  4080   0.334E-03    0.175E-03
DAV:   5    -0.851423345781E+03   -0.16735E-06   -0.11969E-06  3800   0.249E-03    0.969E-04
DAV:   6    -0.851423345649E+03    0.13177E-06   -0.27584E-07  3240   0.141E-03
  25 F= -.85931126E+03 E0= -.85931126E+03  d E =-.416833E-03  mag=     0.0000
quench:  g(F)=  0.000E+00 g(S)=  0.000E+00 dE (1.order)= 0.000E+00
 bond charge predicted
       N       E                     dE             d eps       ncg     rms          rms(c)
DAV:   1    -0.851423889634E+03   -0.54385E-03   -0.30386E-02  4480   0.235E-01    0.374E-02
DAV:   2    -0.851423931067E+03   -0.41432E-04   -0.52940E-04  4700   0.273E-02    0.213E-02
DAV:   3    -0.851423928727E+03    0.23397E-05   -0.85043E-06  4700   0.539E-03    0.116E-02
DAV:   4    -0.851423932570E+03   -0.38430E-05   -0.71662E-06  4200   0.431E-03    0.232E-03
DAV:   5    -0.851423932800E+03   -0.23015E-06   -0.19795E-06  4000   0.311E-03    0.125E-03
DAV:   6    -0.851423932621E+03    0.17929E-06   -0.39446E-07  3340   0.169E-03
  26 F= -.85931180E+03 E0= -.85931180E+03  d E =-.540329E-03  mag=     0.0000
quench:  g(F)=  0.000E+00 g(S)=  0.000E+00 dE (1.order)= 0.000E+00
 bond charge predicted
       N       E                     dE             d eps       ncg     rms          rms(c)
DAV:   1    -0.851424612162E+03   -0.67936E-03   -0.44770E-02  4480   0.286E-01    0.456E-02
DAV:   2    -0.851424672505E+03   -0.60344E-04   -0.76569E-04  4680   0.331E-02    0.262E-02
DAV:   3    -0.851424669331E+03    0.31740E-05   -0.12604E-05  4840   0.668E-03    0.140E-02
DAV:   4    -0.851424675160E+03   -0.58288E-05   -0.10021E-05  4240   0.522E-03    0.282E-03
DAV:   5    -0.851424675658E+03   -0.49768E-06   -0.31328E-06  4240   0.411E-03    0.148E-03
DAV:   6    -0.851424675225E+03    0.43264E-06   -0.77259E-07  3660   0.244E-03
  27 F= -.85931248E+03 E0= -.85931248E+03  d E =-.681574E-03  mag=     0.0000
quench:  g(F)=  0.000E+00 g(S)=  0.000E+00 dE (1.order)= 0.000E+00
 bond charge predicted
       N       E                     dE             d eps       ncg     rms          rms(c)
DAV:   1    -0.851425510406E+03   -0.83475E-03   -0.66598E-02  4480   0.346E-01    0.555E-02
DAV:   2    -0.851425600148E+03   -0.89742E-04   -0.11264E-03  4680   0.396E-02    0.317E-02
DAV:   3    -0.851425595585E+03    0.45623E-05   -0.17852E-05  5000   0.790E-03    0.169E-02
DAV:   4    -0.851425604010E+03   -0.84250E-05   -0.14344E-05  4480   0.615E-03    0.339E-03
DAV:   5    -0.851425604752E+03   -0.74203E-06   -0.43789E-06  4240   0.479E-03    0.177E-03
DAV:   6    -0.851425604199E+03    0.55316E-06   -0.10789E-06  4000   0.289E-03
  28 F= -.85931334E+03 E0= -.85931334E+03  d E =-.857927E-03  mag=     0.0000
quench:  g(F)=  0.000E+00 g(S)=  0.000E+00 dE (1.order)= 0.000E+00
 bond charge predicted
       N       E                     dE             d eps       ncg     rms          rms(c)
DAV:   1    -0.851426493459E+03   -0.88871E-03   -0.10072E-01  4480   0.422E-01    0.677E-02
DAV:   2    -0.851426630510E+03   -0.13705E-03   -0.17172E-03  4720   0.484E-02    0.381E-02
DAV:   3    -0.851426623249E+03    0.72611E-05   -0.26414E-05  4960   0.945E-03    0.206E-02
DAV:   4    -0.851426634868E+03   -0.11619E-04   -0.21969E-05  4560   0.753E-03    0.406E-03
DAV:   5    -0.851426635673E+03   -0.80498E-06   -0.60599E-06  4360   0.544E-03    0.217E-03
DAV:   6    -0.851426635108E+03    0.56488E-06   -0.11710E-06  4080   0.295E-03
  29 F= -.85931429E+03 E0= -.85931429E+03  d E =-.953618E-03  mag=     0.0000
quench:  g(F)=  0.000E+00 g(S)=  0.000E+00 dE (1.order)= 0.000E+00
 bond charge predicted
       N       E                     dE             d eps       ncg     rms          rms(c)
DAV:   1    -0.851427533269E+03   -0.89760E-03   -0.13306E-01  4480   0.492E-01    0.769E-02
DAV:   2    -0.851427712961E+03   -0.17969E-03   -0.22283E-03  4640   0.560E-02    0.430E-02
DAV:   3    -0.851427703739E+03    0.92219E-05   -0.34503E-05  4960   0.111E-02    0.232E-02
DAV:   4    -0.851427716592E+03   -0.12853E-04   -0.27139E-05  4720   0.882E-03    0.450E-03
DAV:   5    -0.851427717949E+03   -0.13568E-05   -0.84348E-06  4640   0.674E-03    0.249E-03
DAV:   6    -0.851427716852E+03    0.10975E-05   -0.19371E-06  4200   0.387E-03    0.159E-03
DAV:   7    -0.851427717728E+03   -0.87645E-06   -0.93236E-07  4220   0.272E-03
  30 F= -.85931530E+03 E0= -.85931530E+03  d E =-.100708E-02  mag=    -0.0000
quench:  g(F)=  0.000E+00 g(S)=  0.000E+00 dE (1.order)= 0.000E+00
 bond charge predicted
       N       E                     dE             d eps       ncg     rms          rms(c)
DAV:   1    -0.851428483773E+03   -0.76692E-03   -0.17902E-01  4480   0.589E-01    0.867E-02
DAV:   2    -0.851428724097E+03   -0.24032E-03   -0.30047E-03  4640   0.674E-02    0.490E-02
DAV:   3    -0.851428709534E+03    0.14563E-04   -0.48745E-05  5000   0.131E-02    0.265E-02
DAV:   4    -0.851428723725E+03   -0.14191E-04   -0.35265E-05  4640   0.971E-03    0.507E-03
DAV:   5    -0.851428724444E+03   -0.71969E-06   -0.75896E-06  4800   0.453E-03    0.277E-03
DAV:   6    -0.851428724825E+03   -0.38087E-06   -0.35565E-07  4000   0.102E-03
  31 F= -.85931625E+03 E0= -.85931625E+03  d E =-.949917E-03  mag=    -0.0000
quench:  g(F)=  0.000E+00 g(S)=  0.000E+00 dE (1.order)= 0.000E+00
 bond charge predicted
       N       E                     dE             d eps       ncg     rms          rms(c)
DAV:   1    -0.851429179072E+03   -0.45463E-03   -0.23311E-01  4480   0.711E-01    0.989E-02
DAV:   2    -0.851429467004E+03   -0.28793E-03   -0.38057E-03  4640   0.819E-02    0.562E-02
DAV:   3    -0.851429446505E+03    0.20499E-04   -0.74131E-05  5080   0.166E-02    0.293E-02
DAV:   4    -0.851429460666E+03   -0.14161E-04   -0.43803E-05  4760   0.114E-02    0.564E-03
DAV:   5    -0.851429461547E+03   -0.88150E-06   -0.90082E-06  4840   0.519E-03    0.303E-03
DAV:   6    -0.851429462010E+03   -0.46298E-06   -0.53568E-07  4080   0.139E-03
  32 F= -.85931696E+03 E0= -.85931696E+03  d E =-.708812E-03  mag=    -0.0000
quench:  g(F)=  0.000E+00 g(S)=  0.000E+00 dE (1.order)= 0.000E+00
 bond charge predicted
       N       E                     dE             d eps       ncg     rms          rms(c)
DAV:   1    -0.851429553862E+03   -0.92315E-04   -0.28944E-01  4480   0.860E-01    0.112E-01
DAV:   2    -0.851429852466E+03   -0.29860E-03   -0.44357E-03  4680   0.993E-02    0.663E-02
DAV:   3    -0.851429820342E+03    0.32125E-04   -0.12479E-04  5000   0.223E-02    0.307E-02
DAV:   4    -0.851429832219E+03   -0.11877E-04   -0.52115E-05  4900   0.126E-02    0.668E-03
DAV:   5    -0.851429833351E+03   -0.11324E-05   -0.95150E-06  4840   0.617E-03    0.288E-03
DAV:   6    -0.851429833665E+03   -0.31375E-06   -0.10265E-06  4180   0.259E-03
  33 F= -.85931735E+03 E0= -.85931735E+03  d E =-.394805E-03  mag=    -0.0000
quench:  g(F)=  0.000E+00 g(S)=  0.000E+00 dE (1.order)= 0.000E+00
 bond charge predicted
       N       E                     dE             d eps       ncg     rms          rms(c)
DAV:   1    -0.851429422954E+03    0.41040E-03   -0.41017E-01  4480   0.108E+00    0.135E-01
DAV:   2    -0.851429784090E+03   -0.36114E-03   -0.61222E-03  4680   0.127E-01    0.831E-02
DAV:   3    -0.851429726553E+03    0.57537E-04   -0.23889E-04  5080   0.311E-02    0.335E-02
DAV:   4    -0.851429743245E+03   -0.16693E-04   -0.76995E-05  4780   0.153E-02    0.853E-03
DAV:   5    -0.851429746033E+03   -0.27878E-05   -0.13961E-05  4740   0.895E-03    0.323E-03
DAV:   6    -0.851429745127E+03    0.90581E-06   -0.47176E-06  4640   0.618E-03
  34 F= -.85931735E+03 E0= -.85931735E+03  d E =0.247640E-05  mag=    -0.0000
quench:  g(F)=  0.000E+00 g(S)=  0.000E+00 dE (1.order)= 0.000E+00
 bond charge predicted
       N       E                     dE             d eps       ncg     rms          rms(c)
DAV:   1    -0.851428613842E+03    0.11322E-02   -0.63912E-01  4480   0.139E+00    0.168E-01
DAV:   2    -0.851429078622E+03   -0.46478E-03   -0.91051E-03  4780   0.162E-01    0.108E-01
DAV:   3    -0.851428970981E+03    0.10764E-03   -0.48713E-04  4920   0.449E-02    0.357E-02
DAV:   4    -0.851428994168E+03   -0.23186E-04   -0.13013E-04  4820   0.192E-02    0.114E-02
DAV:   5    -0.851428999123E+03   -0.49553E-05   -0.19304E-05  4680   0.113E-02    0.412E-03
DAV:   6    -0.851428999855E+03   -0.73226E-06   -0.13563E-05  4800   0.107E-02    0.189E-03
DAV:   7    -0.851428996916E+03    0.29396E-05   -0.60955E-06  4320   0.718E-03    0.928E-04
DAV:   8    -0.851428996804E+03    0.11161E-06   -0.74267E-07  3960   0.247E-03
  35 F= -.85931673E+03 E0= -.85931673E+03  d E =0.615353E-03  mag=     0.0000
quench:  g(F)=  0.000E+00 g(S)=  0.000E+00 dE (1.order)= 0.000E+00
 bond charge predicted
       N       E                     dE             d eps       ncg     rms          rms(c)
DAV:   1    -0.851426677295E+03    0.23196E-02   -0.92834E-01  4480   0.171E+00    0.204E-01
DAV:   2    -0.851427315997E+03   -0.63870E-03   -0.13522E-02  4640   0.205E-01    0.134E-01
DAV:   3    -0.851427136683E+03    0.17931E-03   -0.90834E-04  5080   0.607E-02    0.392E-02
DAV:   4    -0.851427165873E+03   -0.29190E-04   -0.20626E-04  4880   0.218E-02    0.150E-02
DAV:   5    -0.851427168022E+03   -0.21491E-05   -0.13224E-05  5240   0.682E-03    0.513E-03
DAV:   6    -0.851427168980E+03   -0.95780E-06   -0.14348E-06  3800   0.241E-03
  36 F= -.85931512E+03 E0= -.85931512E+03  d E =0.161341E-02  mag=     0.0000
quench:  g(F)=  0.000E+00 g(S)=  0.000E+00 dE (1.order)= 0.000E+00
 bond charge predicted
       N       E                     dE             d eps       ncg     rms          rms(c)
DAV:   1    -0.851427736297E+03   -0.56827E-03   -0.27746E-02  4640   0.325E-01    0.383E-02
DAV:   2    -0.851427769983E+03   -0.33686E-04   -0.67902E-04  5200   0.476E-02    0.263E-02
DAV:   3    -0.851427759384E+03    0.10599E-04   -0.57736E-05  5200   0.141E-02    0.127E-02
DAV:   4    -0.851427758835E+03    0.54893E-06   -0.75463E-06  4840   0.494E-03    0.567E-03
DAV:   5    -0.851427759460E+03   -0.62430E-06   -0.14083E-06  3560   0.276E-03    0.132E-03
DAV:   6    -0.851427759756E+03   -0.29668E-06   -0.54333E-07  3640   0.185E-03
  37 F= -.85931572E+03 E0= -.85931572E+03  d E =-.594843E-03  mag=     0.0000
quench:  g(F)=  0.000E+00 g(S)=  0.000E+00 dE (1.order)= 0.000E+00
 bond charge predicted
       N       E                     dE             d eps       ncg     rms          rms(c)
DAV:   1    -0.851427254072E+03    0.50539E-03   -0.30797E-02  4520   0.341E-01    0.397E-02
DAV:   2    -0.851427290316E+03   -0.36243E-04   -0.72049E-04  5040   0.489E-02    0.273E-02
DAV:   3    -0.851427278815E+03    0.11500E-04   -0.60264E-05  5320   0.145E-02    0.129E-02
DAV:   4    -0.851427278132E+03    0.68330E-06   -0.83864E-06  4680   0.529E-03    0.559E-03
DAV:   5    -0.851427278517E+03   -0.38459E-06   -0.13797E-06  3640   0.282E-03    0.143E-03
DAV:   6    -0.851427278635E+03   -0.11862E-06   -0.66704E-07  3560   0.216E-03
  38 F= -.85931524E+03 E0= -.85931524E+03  d E =0.471161E-03  mag=     0.0000
quench:  g(F)=  0.000E+00 g(S)=  0.000E+00 dE (1.order)= 0.000E+00
 bond charge predicted
       N       E                     dE             d eps       ncg     rms          rms(c)
DAV:   1    -0.851427458222E+03   -0.17971E-03   -0.12883E-03  4820   0.699E-02    0.814E-03
DAV:   2    -0.851427459881E+03   -0.16595E-05   -0.32082E-05  4860   0.104E-02    0.568E-03
DAV:   3    -0.851427459498E+03    0.38329E-06   -0.25587E-06  4020   0.319E-03    0.277E-03
DAV:   4    -0.851427459605E+03   -0.10736E-06   -0.56825E-07  3280   0.184E-03    0.118E-03
DAV:   5    -0.851427459831E+03   -0.22631E-06   -0.42367E-07  3460   0.174E-03    0.501E-04
DAV:   6    -0.851427459737E+03    0.94711E-07   -0.19970E-07  3400   0.121E-03
  39 F= -.85931543E+03 E0= -.85931543E+03  d E =-.183365E-03  mag=    -0.0000
quench:  g(F)=  0.000E+00 g(S)=  0.000E+00 dE (1.order)= 0.000E+00
 bond charge predicted
       N       E                     dE             d eps       ncg     rms          rms(c)
DAV:   1    -0.851427655326E+03   -0.19549E-03   -0.40649E-03  4600   0.124E-01    0.145E-02
DAV:   2    -0.851427660535E+03   -0.52097E-05   -0.10015E-04  4880   0.182E-02    0.100E-02
DAV:   3    -0.851427659021E+03    0.15149E-05   -0.80143E-06  5140   0.524E-03    0.492E-03
DAV:   4    -0.851427658901E+03    0.11958E-06   -0.96837E-07  3540   0.182E-03    0.217E-03
DAV:   5    -0.851427658936E+03   -0.35398E-07   -0.25499E-07  3180   0.107E-03    0.584E-04
DAV:   6    -0.851427658947E+03   -0.11052E-07   -0.70903E-08  3440   0.552E-04
  40 F= -.85931563E+03 E0= -.85931563E+03  d E =-.202707E-03  mag=     0.0000
quench:  g(F)=  0.000E+00 g(S)=  0.000E+00 dE (1.order)= 0.000E+00
 bond charge predicted
       N       E                     dE             d eps       ncg     rms          rms(c)
DAV:   1    -0.851427695082E+03   -0.36146E-04   -0.59046E-03  4560   0.149E-01    0.173E-02
DAV:   2    -0.851427702523E+03   -0.74410E-05   -0.14384E-04  4880   0.217E-02    0.120E-02
DAV:   3    -0.851427700299E+03    0.22244E-05   -0.11299E-05  5280   0.623E-03    0.590E-03
DAV:   4    -0.851427700102E+03    0.19716E-06   -0.14146E-06  3480   0.220E-03    0.256E-03
DAV:   5    -0.851427700124E+03   -0.22257E-07   -0.35537E-07  3240   0.127E-03    0.658E-04
DAV:   6    -0.851427700130E+03   -0.63083E-08   -0.10480E-07  3380   0.700E-04
  41 F= -.85931568E+03 E0= -.85931568E+03  d E =-.453324E-04  mag=     0.0000
quench:  g(F)=  0.000E+00 g(S)=  0.000E+00 dE (1.order)= 0.000E+00
 bond charge predicted
       N       E                     dE             d eps       ncg     rms          rms(c)
DAV:   1    -0.851427702796E+03   -0.26717E-05   -0.38602E-06  4320   0.374E-03    0.560E-04
DAV:   2    -0.851427702805E+03   -0.92186E-08   -0.92306E-08  3380   0.653E-04    0.466E-04
DAV:   3    -0.851427702814E+03   -0.93059E-08   -0.21919E-08  3120   0.390E-04    0.381E-04
DAV:   4    -0.851427702820E+03   -0.54788E-08   -0.14130E-08  3320   0.348E-04    0.367E-04
DAV:   5    -0.851427702818E+03    0.14043E-08   -0.44432E-09  3080   0.221E-04    0.363E-04
DAV:   6    -0.851427702822E+03   -0.39581E-08    0.20767E-09  3160   0.658E-05
  42 F= -.85931568E+03 E0= -.85931568E+03  d E =-.266635E-05  mag=     0.0000
quench:  g(F)=  0.000E+00 g(S)=  0.000E+00 dE (1.order)= 0.000E+00
 bond charge predicted
       N       E                     dE             d eps       ncg     rms          rms(c)
DAV:   1    -0.851427708978E+03   -0.61595E-05   -0.14644E-05  4900   0.726E-03    0.894E-04
DAV:   2    -0.851427708996E+03   -0.18263E-07   -0.25002E-07  3020   0.954E-04    0.654E-04
DAV:   3    -0.851427708999E+03   -0.24083E-08   -0.41814E-08  3220   0.420E-04    0.415E-04
DAV:   4    -0.851427709000E+03   -0.18335E-08   -0.62560E-09  3060   0.192E-04    0.373E-04
DAV:   5    -0.851427709001E+03   -0.96770E-09    0.36814E-10  3180   0.106E-04    0.362E-04
DAV:   6    -0.851427709003E+03   -0.13242E-08    0.19470E-09  3240   0.709E-05
  43 F= -.85931568E+03 E0= -.85931568E+03  d E =-.600824E-05  mag=    -0.0000
quench:  g(F)=  0.000E+00 g(S)=  0.000E+00 dE (1.order)= 0.000E+00
 bond charge predicted
       N       E                     dE             d eps       ncg     rms          rms(c)
DAV:   1    -0.851427719628E+03   -0.10627E-04   -0.30680E-05  4640   0.104E-02    0.125E-03
DAV:   2    -0.851427719663E+03   -0.34706E-07   -0.54146E-07  3240   0.136E-03    0.879E-04
DAV:   3    -0.851427719660E+03    0.23356E-08   -0.73075E-08  3200   0.551E-04    0.480E-04
DAV:   4    -0.851427719662E+03   -0.14697E-08   -0.12752E-08  3080   0.247E-04    0.382E-04
DAV:   5    -0.851427719661E+03    0.26921E-09   -0.10683E-09  3040   0.130E-04    0.363E-04
DAV:   6    -0.851427719662E+03   -0.16735E-09    0.16274E-09  2720   0.827E-05
  44 F= -.85931569E+03 E0= -.85931569E+03  d E =-.101998E-04  mag=    -0.0000
quench:  g(F)=  0.000E+00 g(S)=  0.000E+00 dE (1.order)= 0.000E+00
 bond charge predicted
       N       E                     dE             d eps       ncg     rms          rms(c)
DAV:   1    -0.851427736093E+03   -0.16431E-04   -0.49876E-05  4480   0.131E-02    0.158E-03
DAV:   2    -0.851427736149E+03   -0.56454E-07   -0.88289E-07  3560   0.170E-03    0.109E-03
DAV:   3    -0.851427736143E+03    0.64174E-08   -0.96571E-08  3140   0.629E-04    0.561E-04
DAV:   4    -0.851427736144E+03   -0.15934E-08   -0.19956E-08  2960   0.301E-04    0.390E-04
DAV:   5    -0.851427736144E+03    0.16007E-09   -0.29523E-09  2880   0.162E-04    0.365E-04
DAV:   6    -0.851427736144E+03   -0.25466E-09    0.81952E-10  2760   0.109E-04
  45 F= -.85931571E+03 E0= -.85931571E+03  d E =-.156110E-04  mag=    -0.0000
quench:  g(F)=  0.000E+00 g(S)=  0.000E+00 dE (1.order)= 0.000E+00
 bond charge predicted
       N       E                     dE             d eps       ncg     rms          rms(c)
DAV:   1    -0.851427759901E+03   -0.23756E-04   -0.71673E-05  4480   0.152E-02    0.191E-03
DAV:   2    -0.851427759981E+03   -0.80152E-07   -0.12412E-06  3560   0.195E-03    0.128E-03
DAV:   3    -0.851427759974E+03    0.69704E-08   -0.11439E-07  3200   0.686E-04    0.649E-04
DAV:   4    -0.851427759976E+03   -0.24593E-08   -0.27351E-08  2980   0.347E-04    0.395E-04
DAV:   5    -0.851427759977E+03   -0.23283E-09   -0.47611E-09  2800   0.193E-04    0.366E-04
DAV:   6    -0.851427759977E+03   -0.21828E-09    0.18461E-10  2760   0.127E-04
  46 F= -.85931573E+03 E0= -.85931573E+03  d E =-.223436E-04  mag=    -0.0000
quench:  g(F)=  0.000E+00 g(S)=  0.000E+00 dE (1.order)= 0.000E+00
 bond charge predicted
       N       E                     dE             d eps       ncg     rms          rms(c)
DAV:   1    -0.851427793382E+03   -0.33405E-04   -0.96263E-05  4480   0.166E-02    0.223E-03
DAV:   2    -0.851427793490E+03   -0.10782E-06   -0.16125E-06  3640   0.209E-03    0.148E-03
DAV:   3    -0.851427793482E+03    0.77489E-08   -0.11462E-07  3120   0.687E-04    0.750E-04
DAV:   4    -0.851427793488E+03   -0.59372E-08   -0.33926E-08  3100   0.379E-04    0.397E-04
DAV:   5    -0.851427793488E+03   -0.27649E-09   -0.66684E-09  2820   0.222E-04    0.368E-04
DAV:   6    -0.851427793489E+03   -0.95315E-09   -0.46345E-10  2940   0.139E-04
  47 F= -.85931576E+03 E0= -.85931576E+03  d E =-.311564E-04  mag=    -0.0000
quench:  g(F)=  0.000E+00 g(S)=  0.000E+00 dE (1.order)= 0.000E+00
 bond charge predicted
       N       E                     dE             d eps       ncg     rms          rms(c)
DAV:   1    -0.851427844950E+03   -0.51461E-04   -0.16396E-04  4480   0.201E-02    0.295E-03
DAV:   2    -0.851427845130E+03   -0.18009E-06   -0.26698E-06  3880   0.244E-03    0.192E-03
DAV:   3    -0.851427845120E+03    0.94005E-08   -0.12400E-07  3120   0.720E-04    0.970E-04
DAV:   4    -0.851427845137E+03   -0.16320E-07   -0.53800E-08  3200   0.446E-04    0.412E-04
DAV:   5    -0.851427845137E+03   -0.87311E-09   -0.11399E-08  2980   0.269E-04    0.373E-04
DAV:   6    -0.851427845138E+03   -0.50932E-09   -0.15260E-09  3160   0.157E-04
  48 F= -.85931581E+03 E0= -.85931581E+03  d E =-.478143E-04  mag=    -0.0000
quench:  g(F)=  0.000E+00 g(S)=  0.000E+00 dE (1.order)= 0.000E+00
 bond charge predicted
       N       E                     dE             d eps       ncg     rms          rms(c)
DAV:   1    -0.851427922437E+03   -0.77299E-04   -0.28835E-04  4480   0.250E-02    0.398E-03
DAV:   2    -0.851427922737E+03   -0.30050E-06   -0.45486E-06  4000   0.293E-03    0.256E-03
DAV:   3    -0.851427922732E+03    0.52387E-08   -0.15982E-07  3120   0.817E-04    0.126E-03
DAV:   4    -0.851427922772E+03   -0.39865E-07   -0.91524E-08  3160   0.543E-04    0.443E-04
DAV:   5    -0.851427922776E+03   -0.41109E-08   -0.23052E-08  3000   0.368E-04    0.379E-04
DAV:   6    -0.851427922774E+03    0.14479E-08   -0.52457E-09  3140   0.214E-04
  49 F= -.85931588E+03 E0= -.85931588E+03  d E =-.716933E-04  mag=    -0.0000
quench:  g(F)=  0.000E+00 g(S)=  0.000E+00 dE (1.order)= 0.000E+00
 bond charge predicted
       N       E                     dE             d eps       ncg     rms          rms(c)
DAV:   1    -0.851428039358E+03   -0.11658E-03   -0.55626E-04  4480   0.334E-02    0.557E-03
DAV:   2    -0.851428039914E+03   -0.55550E-06   -0.87256E-06  4480   0.383E-03    0.356E-03
DAV:   3    -0.851428039913E+03    0.64028E-09   -0.20503E-07  3280   0.901E-04    0.172E-03
DAV:   4    -0.851428040008E+03   -0.95439E-07   -0.16537E-07  3320   0.666E-04    0.509E-04
DAV:   5    -0.851428040016E+03   -0.73851E-08   -0.45344E-08  3000   0.490E-04    0.392E-04
DAV:   6    -0.851428040013E+03    0.24083E-08   -0.10985E-08  3120   0.281E-04
  50 F= -.85931599E+03 E0= -.85931599E+03  d E =-.108152E-03  mag=    -0.0000
quench:  g(F)=  0.000E+00 g(S)=  0.000E+00 dE (1.order)= 0.000E+00
 bond charge predicted
       N       E                     dE             d eps       ncg     rms          rms(c)
DAV:   1    -0.851428211743E+03   -0.17173E-03   -0.11274E-03  4480   0.472E-02    0.794E-03
DAV:   2    -0.851428212837E+03   -0.10938E-05   -0.17754E-05  4600   0.540E-03    0.505E-03
DAV:   3    -0.851428212835E+03    0.20082E-08   -0.39663E-07  3680   0.122E-03    0.242E-03
DAV:   4    -0.851428213054E+03   -0.21921E-06   -0.30471E-07  3640   0.887E-04    0.625E-04
DAV:   5    -0.851428213072E+03   -0.17608E-07   -0.86364E-08  3000   0.682E-04    0.421E-04
DAV:   6    -0.851428213065E+03    0.71814E-08   -0.27758E-08  3000   0.425E-04
  51 F= -.85931615E+03 E0= -.85931615E+03  d E =-.159342E-03  mag=    -0.0000
quench:  g(F)=  0.000E+00 g(S)=  0.000E+00 dE (1.order)= 0.000E+00
 bond charge predicted
       N       E                     dE             d eps       ncg     rms          rms(c)
DAV:   1    -0.851428457982E+03   -0.24491E-03   -0.22687E-03  4480   0.675E-02    0.112E-02
DAV:   2    -0.851428460101E+03   -0.21189E-05   -0.35820E-05  4680   0.778E-03    0.715E-03
DAV:   3    -0.851428460132E+03   -0.30603E-07   -0.84491E-07  3920   0.177E-03    0.337E-03
DAV:   4    -0.851428460580E+03   -0.44820E-06   -0.58571E-07  3860   0.123E-03    0.803E-04
DAV:   5    -0.851428460614E+03   -0.34197E-07   -0.16637E-07  3040   0.954E-04    0.469E-04
DAV:   6    -0.851428460599E+03    0.15760E-07   -0.58709E-08  3000   0.614E-04
  52 F= -.85931638E+03 E0= -.85931638E+03  d E =-.227442E-03  mag=    -0.0000
quench:  g(F)=  0.000E+00 g(S)=  0.000E+00 dE (1.order)= 0.000E+00
 bond charge predicted
       N       E                     dE             d eps       ncg     rms          rms(c)
DAV:   1    -0.851428801672E+03   -0.34106E-03   -0.43916E-03  4480   0.951E-02    0.156E-02
DAV:   2    -0.851428805649E+03   -0.39769E-05   -0.69668E-05  4640   0.110E-02    0.994E-03
DAV:   3    -0.851428805727E+03   -0.78209E-07   -0.17425E-06  4040   0.254E-03    0.464E-03
DAV:   4    -0.851428806641E+03   -0.91381E-06   -0.11004E-06  4080   0.170E-03    0.106E-03
DAV:   5    -0.851428806709E+03   -0.68343E-07   -0.31755E-07  3560   0.131E-03    0.563E-04
DAV:   6    -0.851428806671E+03    0.37908E-07   -0.97088E-08  3040   0.812E-04
  53 F= -.85931670E+03 E0= -.85931670E+03  d E =-.317446E-03  mag=    -0.0000
quench:  g(F)=  0.000E+00 g(S)=  0.000E+00 dE (1.order)= 0.000E+00
 bond charge predicted
       N       E                     dE             d eps       ncg     rms          rms(c)
DAV:   1    -0.851429268522E+03   -0.46181E-03   -0.81468E-03  4480   0.130E-01    0.211E-02
DAV:   2    -0.851429275690E+03   -0.71677E-05   -0.13027E-04  4680   0.152E-02    0.135E-02
DAV:   3    -0.851429275913E+03   -0.22291E-06   -0.33319E-06  4480   0.348E-03    0.632E-03
DAV:   4    -0.851429277738E+03   -0.18257E-05   -0.20354E-06  4260   0.230E-03    0.140E-03
DAV:   5    -0.851429277879E+03   -0.14022E-06   -0.60410E-07  3700   0.184E-03    0.690E-04
DAV:   6    -0.851429277777E+03    0.10201E-06   -0.18954E-07  3240   0.115E-03
  54 F= -.85931713E+03 E0= -.85931713E+03  d E =-.431518E-03  mag=    -0.0000
quench:  g(F)=  0.000E+00 g(S)=  0.000E+00 dE (1.order)= 0.000E+00
 bond charge predicted
       N       E                     dE             d eps       ncg     rms          rms(c)
DAV:   1    -0.851429880327E+03   -0.60245E-03   -0.14306E-02  4480   0.172E-01    0.280E-02
DAV:   2    -0.851429893221E+03   -0.12894E-04   -0.23061E-04  4560   0.201E-02    0.178E-02
DAV:   3    -0.851429893113E+03    0.10813E-06   -0.58028E-06  4640   0.456E-03    0.841E-03
DAV:   4    -0.851429896635E+03   -0.35215E-05   -0.36399E-06  4200   0.306E-03    0.180E-03
DAV:   5    -0.851429896883E+03   -0.24861E-06   -0.10850E-06  3980   0.247E-03    0.860E-04
DAV:   6    -0.851429896679E+03    0.20413E-06   -0.31694E-07  3240   0.151E-03
  55 F= -.85931769E+03 E0= -.85931769E+03  d E =-.566056E-03  mag=    -0.0000
quench:  g(F)=  0.000E+00 g(S)=  0.000E+00 dE (1.order)= 0.000E+00
 bond charge predicted
       N       E                     dE             d eps       ncg     rms          rms(c)
DAV:   1    -0.851430644774E+03   -0.74789E-03   -0.22932E-02  4480   0.216E-01    0.357E-02
DAV:   2    -0.851430666259E+03   -0.21485E-04   -0.37072E-04  4600   0.253E-02    0.226E-02
DAV:   3    -0.851430665507E+03    0.75198E-06   -0.90242E-06  4740   0.568E-03    0.107E-02
DAV:   4    -0.851430671130E+03   -0.56224E-05   -0.60344E-06  4460   0.393E-03    0.226E-03
DAV:   5    -0.851430671595E+03   -0.46538E-06   -0.18964E-06  4160   0.335E-03    0.107E-03
DAV:   6    -0.851430671150E+03    0.44502E-06   -0.56335E-07  3440   0.206E-03
  56 F= -.85931840E+03 E0= -.85931840E+03  d E =-.706810E-03  mag=    -0.0000
quench:  g(F)=  0.000E+00 g(S)=  0.000E+00 dE (1.order)= 0.000E+00
 bond charge predicted
       N       E                     dE             d eps       ncg     rms          rms(c)
DAV:   1    -0.851431587053E+03   -0.91546E-03   -0.32718E-02  4480   0.257E-01    0.433E-02
DAV:   2    -0.851431618333E+03   -0.31280E-04   -0.52392E-04  4600   0.301E-02    0.272E-02
DAV:   3    -0.851431617278E+03    0.10552E-05   -0.12750E-05  4820   0.677E-03    0.128E-02
DAV:   4    -0.851431624877E+03   -0.75993E-05   -0.84098E-06  4520   0.469E-03    0.268E-03
DAV:   5    -0.851431625576E+03   -0.69864E-06   -0.27777E-06  4320   0.413E-03    0.125E-03
DAV:   6    -0.851431624877E+03    0.69912E-06   -0.87323E-07  3600   0.258E-03
  57 F= -.85931927E+03 E0= -.85931927E+03  d E =-.871030E-03  mag=    -0.0000
quench:  g(F)=  0.000E+00 g(S)=  0.000E+00 dE (1.order)= 0.000E+00
 bond charge predicted
       N       E                     dE             d eps       ncg     rms          rms(c)
DAV:   1    -0.851432681179E+03   -0.10556E-02   -0.43689E-02  4480   0.292E-01    0.508E-02
DAV:   2    -0.851432725176E+03   -0.43997E-04   -0.70210E-04  4600   0.341E-02    0.317E-02
DAV:   3    -0.851432723483E+03    0.16938E-05   -0.16198E-05  4880   0.759E-03    0.150E-02
DAV:   4    -0.851432733382E+03   -0.98993E-05   -0.11224E-05  4520   0.539E-03    0.310E-03
DAV:   5    -0.851432734249E+03   -0.86662E-06   -0.36795E-06  4320   0.475E-03    0.144E-03
DAV:   6    -0.851432733381E+03    0.86713E-06   -0.11436E-06  4000   0.295E-03
  58 F= -.85932028E+03 E0= -.85932028E+03  d E =-.101357E-02  mag=    -0.0000
quench:  g(F)=  0.000E+00 g(S)=  0.000E+00 dE (1.order)= 0.000E+00
 bond charge predicted
       N       E                     dE             d eps       ncg     rms          rms(c)
DAV:   1    -0.851433856107E+03   -0.11219E-02   -0.50496E-02  4480   0.304E-01    0.551E-02
DAV:   2    -0.851433909538E+03   -0.53431E-04   -0.80028E-04  4720   0.352E-02    0.346E-02
DAV:   3    -0.851433908176E+03    0.13624E-05   -0.17782E-05  4880   0.797E-03    0.162E-02
DAV:   4    -0.851433919416E+03   -0.11240E-04   -0.12468E-05  4520   0.573E-03    0.336E-03
DAV:   5    -0.851433920456E+03   -0.10403E-05   -0.43304E-06  4360   0.522E-03    0.156E-03
DAV:   6    -0.851433919567E+03    0.88952E-06   -0.17220E-06  4120   0.365E-03
  59 F= -.85932137E+03 E0= -.85932137E+03  d E =-.108354E-02  mag=    -0.0000
quench:  g(F)=  0.000E+00 g(S)=  0.000E+00 dE (1.order)= 0.000E+00
 bond charge predicted
       N       E                     dE             d eps       ncg     rms          rms(c)
DAV:   1    -0.851435071985E+03   -0.11515E-02   -0.57399E-02  4480   0.312E-01    0.579E-02
DAV:   2    -0.851435138006E+03   -0.66021E-04   -0.91831E-04  4680   0.357E-02    0.369E-02
DAV:   3    -0.851435136300E+03    0.17065E-05   -0.19349E-05  4860   0.807E-03    0.174E-02
DAV:   4    -0.851435148886E+03   -0.12586E-04   -0.13633E-05  4480   0.569E-03    0.355E-03
DAV:   5    -0.851435149723E+03   -0.83716E-06   -0.39334E-06  4520   0.472E-03    0.163E-03
DAV:   6    -0.851435149529E+03    0.19418E-06   -0.17586E-06  4280   0.372E-03
  60 F= -.85932249E+03 E0= -.85932249E+03  d E =-.112570E-02  mag=    -0.0000
quench:  g(F)=  0.000E+00 g(S)=  0.000E+00 dE (1.order)= 0.000E+00
 bond charge predicted
       N       E                     dE             d eps       ncg     rms          rms(c)
DAV:   1    -0.851436375157E+03   -0.12254E-02   -0.78069E-02  4480   0.353E-01    0.651E-02
DAV:   2    -0.851436473582E+03   -0.98424E-04   -0.13087E-03  4720   0.403E-02    0.417E-02
DAV:   3    -0.851436468788E+03    0.47932E-05   -0.23476E-05  5000   0.840E-03    0.207E-02
DAV:   4    -0.851436484826E+03   -0.16037E-04   -0.21052E-05  4480   0.645E-03    0.401E-03
DAV:   5    -0.851436485940E+03   -0.11137E-05   -0.55791E-06  4480   0.513E-03    0.186E-03
DAV:   6    -0.851436485506E+03    0.43331E-06   -0.17446E-06  4260   0.370E-03
  61 F= -.85932372E+03 E0= -.85932372E+03  d E =-.122869E-02  mag=    -0.0000
quench:  g(F)=  0.000E+00 g(S)=  0.000E+00 dE (1.order)= 0.000E+00
 bond charge predicted
       N       E                     dE             d eps       ncg     rms          rms(c)
DAV:   1    -0.851437637361E+03   -0.11514E-02   -0.87074E-02  4480   0.388E-01    0.690E-02
DAV:   2    -0.851437744037E+03   -0.10668E-03   -0.14511E-03  4760   0.449E-02    0.435E-02
DAV:   3    -0.851437738692E+03    0.53450E-05   -0.27849E-05  4960   0.942E-03    0.217E-02
DAV:   4    -0.851437755308E+03   -0.16617E-04   -0.23586E-05  4520   0.733E-03    0.408E-03
DAV:   5    -0.851437756694E+03   -0.13854E-05   -0.67739E-06  4620   0.612E-03    0.198E-03
DAV:   6    -0.851437755492E+03    0.12013E-05   -0.18440E-06  4240   0.373E-03    0.122E-03
DAV:   7    -0.851437756245E+03   -0.75265E-06   -0.75784E-07  3840   0.246E-03
  62 F= -.85932489E+03 E0= -.85932489E+03  d E =-.116911E-02  mag=     0.0000
quench:  g(F)=  0.000E+00 g(S)=  0.000E+00 dE (1.order)= 0.000E+00
 bond charge predicted
       N       E                     dE             d eps       ncg     rms          rms(c)
DAV:   1    -0.851437735253E+03    0.20239E-04   -0.15378E-04  4720   0.224E-02    0.259E-03
DAV:   2    -0.851437735604E+03   -0.35101E-06   -0.26785E-06  4440   0.283E-03    0.185E-03
DAV:   3    -0.851437735871E+03   -0.26691E-06   -0.18676E-07  3160   0.920E-04    0.774E-04
DAV:   4    -0.851437736168E+03   -0.29706E-06   -0.72236E-08  3360   0.537E-04    0.379E-04
DAV:   5    -0.851437736436E+03   -0.26750E-06   -0.30139E-08  3160   0.467E-04    0.325E-04
DAV:   6    -0.851437736570E+03   -0.13490E-06   -0.18683E-08  3320   0.386E-04
  63 F= -.85932487E+03 E0= -.85932487E+03  d E =0.172434E-04  mag=     0.0000
quench:  g(F)=  0.000E+00 g(S)=  0.000E+00 dE (1.order)= 0.000E+00
 bond charge predicted
       N       E                     dE             d eps       ncg     rms          rms(c)
DAV:   1    -0.851437692502E+03    0.43933E-04   -0.54032E-04  4720   0.418E-02    0.484E-03
DAV:   2    -0.851437693010E+03   -0.50760E-06   -0.93806E-06  5200   0.524E-03    0.337E-03
DAV:   3    -0.851437692964E+03    0.45722E-07   -0.46402E-07  3160   0.147E-03    0.135E-03
DAV:   4    -0.851437693066E+03   -0.10206E-06   -0.18201E-07  3280   0.813E-04    0.485E-04
DAV:   5    -0.851437693125E+03   -0.58943E-07   -0.41856E-08  3200   0.472E-04    0.343E-04
DAV:   6    -0.851437693161E+03   -0.35499E-07   -0.14339E-08  3320   0.327E-04
  64 F= -.85932484E+03 E0= -.85932484E+03  d E =0.387193E-04  mag=    -0.0000
quench:  g(F)=  0.000E+00 g(S)=  0.000E+00 dE (1.order)= 0.000E+00
 bond charge predicted
       N       E                     dE             d eps       ncg     rms          rms(c)
DAV:   1    -0.851437627138E+03    0.65987E-04   -0.10117E-03  4480   0.570E-02    0.660E-03
DAV:   2    -0.851437627888E+03   -0.74998E-06   -0.16087E-05  4680   0.696E-03    0.452E-03
DAV:   3    -0.851437627720E+03    0.16851E-06   -0.87676E-07  3480   0.202E-03    0.157E-03
DAV:   4    -0.851437627791E+03   -0.71363E-07   -0.29294E-07  3280   0.103E-03    0.564E-04
DAV:   5    -0.851437627819E+03   -0.27809E-07   -0.74593E-08  3120   0.653E-04    0.360E-04
DAV:   6    -0.851437627829E+03   -0.98225E-08   -0.35758E-08  3360   0.511E-04
  65 F= -.85932478E+03 E0= -.85932478E+03  d E =0.586599E-04  mag=    -0.0000
quench:  g(F)=  0.000E+00 g(S)=  0.000E+00 dE (1.order)= 0.000E+00
 bond charge predicted
       N       E                     dE             d eps       ncg     rms          rms(c)
DAV:   1    -0.851437550217E+03    0.77602E-04   -0.14990E-03  4480   0.691E-02    0.802E-03
DAV:   2    -0.851437551138E+03   -0.92088E-06   -0.21604E-05  4600   0.822E-03    0.538E-03
DAV:   3    -0.851437550907E+03    0.23116E-06   -0.13799E-06  3720   0.248E-03    0.154E-03
DAV:   4    -0.851437550976E+03   -0.68787E-07   -0.37313E-07  3200   0.107E-03    0.629E-04
DAV:   5    -0.851437550992E+03   -0.16829E-07   -0.65276E-08  3040   0.593E-04    0.367E-04
DAV:   6    -0.851437551001E+03   -0.81272E-08   -0.28872E-08  3300   0.462E-04
  66 F= -.85932471E+03 E0= -.85932471E+03  d E =0.691443E-04  mag=    -0.0000
quench:  g(F)=  0.000E+00 g(S)=  0.000E+00 dE (1.order)= 0.000E+00
 bond charge predicted
       N       E                     dE             d eps       ncg     rms          rms(c)
DAV:   1    -0.851437472770E+03    0.78223E-04   -0.20548E-03  4480   0.806E-02    0.936E-03
DAV:   2    -0.851437473902E+03   -0.11324E-05   -0.27938E-05  4560   0.939E-03    0.619E-03
DAV:   3    -0.851437473619E+03    0.28328E-06   -0.19449E-06  4120   0.291E-03    0.153E-03
DAV:   4    -0.851437473694E+03   -0.75415E-07   -0.48911E-07  3140   0.114E-03    0.704E-04
DAV:   5    -0.851437473712E+03   -0.17426E-07   -0.66526E-08  3060   0.622E-04    0.379E-04
DAV:   6    -0.851437473720E+03   -0.78071E-08   -0.36860E-08  3140   0.529E-04
  67 F= -.85932464E+03 E0= -.85932464E+03  d E =0.694270E-04  mag=    -0.0000
quench:  g(F)=  0.000E+00 g(S)=  0.000E+00 dE (1.order)= 0.000E+00
 bond charge predicted
       N       E                     dE             d eps       ncg     rms          rms(c)
DAV:   1    -0.851437401120E+03    0.72592E-04   -0.27156E-03  4480   0.924E-02    0.107E-02
DAV:   2    -0.851437402739E+03   -0.16192E-05   -0.37769E-05  4600   0.108E-02    0.708E-03
DAV:   3    -0.851437402379E+03    0.36056E-06   -0.23938E-06  4400   0.322E-03    0.193E-03
DAV:   4    -0.851437402488E+03   -0.10910E-06   -0.60954E-07  3280   0.123E-03    0.782E-04
DAV:   5    -0.851437402504E+03   -0.16371E-07   -0.58240E-08  3040   0.585E-04    0.396E-04
DAV:   6    -0.851437402511E+03   -0.70431E-08   -0.29908E-08  3260   0.469E-04
  68 F= -.85932457E+03 E0= -.85932457E+03  d E =0.638808E-04  mag=     0.0000
quench:  g(F)=  0.000E+00 g(S)=  0.000E+00 dE (1.order)= 0.000E+00
 bond charge predicted
       N       E                     dE             d eps       ncg     rms          rms(c)
DAV:   1    -0.851437327359E+03    0.75145E-04   -0.42889E-03  4480   0.116E-01    0.135E-02
DAV:   2    -0.851437330146E+03   -0.27869E-05   -0.62053E-05  4600   0.137E-02    0.895E-03
DAV:   3    -0.851437329590E+03    0.55557E-06   -0.35554E-06  4520   0.390E-03    0.274E-03
DAV:   4    -0.851437329801E+03   -0.21062E-06   -0.95346E-07  3520   0.155E-03    0.950E-04
DAV:   5    -0.851437329821E+03   -0.20074E-07   -0.76617E-08  3040   0.682E-04    0.440E-04
DAV:   6    -0.851437329829E+03   -0.80181E-08   -0.40993E-08  3140   0.536E-04
  69 F= -.85932451E+03 E0= -.85932451E+03  d E =0.650380E-04  mag=    -0.0000
quench:  g(F)=  0.000E+00 g(S)=  0.000E+00 dE (1.order)= 0.000E+00
 bond charge predicted
       N       E                     dE             d eps       ncg     rms          rms(c)
DAV:   1    -0.851437257162E+03    0.72659E-04   -0.64968E-03  4480   0.142E-01    0.167E-02
DAV:   2    -0.851437261465E+03   -0.43030E-05   -0.94547E-05  4600   0.167E-02    0.110E-02
DAV:   3    -0.851437260705E+03    0.76066E-06   -0.50943E-06  4560   0.465E-03    0.350E-03
DAV:   4    -0.851437261055E+03   -0.35026E-06   -0.14116E-06  3800   0.189E-03    0.111E-03
DAV:   5    -0.851437261090E+03   -0.34946E-07   -0.11714E-07  3040   0.839E-04    0.475E-04
DAV:   6    -0.851437261100E+03   -0.98953E-08   -0.59732E-08  3200   0.644E-04
  70 F= -.85932445E+03 E0= -.85932445E+03  d E =0.612428E-04  mag=    -0.0000
quench:  g(F)=  0.000E+00 g(S)=  0.000E+00 dE (1.order)= 0.000E+00
 bond charge predicted
       N       E                     dE             d eps       ncg     rms          rms(c)
DAV:   1    -0.851437193995E+03    0.67095E-04   -0.94587E-03  4480   0.171E-01    0.203E-02
DAV:   2    -0.851437200112E+03   -0.61170E-05   -0.13603E-04  4600   0.201E-02    0.134E-02
DAV:   3    -0.851437199097E+03    0.10151E-05   -0.75063E-06  4580   0.566E-03    0.414E-03
DAV:   4    -0.851437199598E+03   -0.50132E-06   -0.20425E-06  3980   0.226E-03    0.136E-03
DAV:   5    -0.851437199637E+03   -0.38555E-07   -0.15927E-07  3060   0.977E-04    0.538E-04
DAV:   6    -0.851437199655E+03   -0.18044E-07   -0.86021E-08  3200   0.761E-04
  71 F= -.85932439E+03 E0= -.85932439E+03  d E =0.539080E-04  mag=    -0.0000
quench:  g(F)=  0.000E+00 g(S)=  0.000E+00 dE (1.order)= 0.000E+00
 bond charge predicted
       N       E                     dE             d eps       ncg     rms          rms(c)
DAV:   1    -0.851437153210E+03    0.46427E-04   -0.13497E-02  4480   0.204E-01    0.246E-02
DAV:   2    -0.851437161703E+03   -0.84933E-05   -0.19118E-04  4600   0.239E-02    0.161E-02
DAV:   3    -0.851437160423E+03    0.12797E-05   -0.10708E-05  4640   0.675E-03    0.481E-03
DAV:   4    -0.851437161109E+03   -0.68535E-06   -0.28373E-06  4000   0.266E-03    0.162E-03
DAV:   5    -0.851437161174E+03   -0.65265E-07   -0.24857E-07  3080   0.124E-03    0.576E-04
DAV:   6    -0.851437161196E+03   -0.22323E-07   -0.15218E-07  3280   0.103E-03
  72 F= -.85932436E+03 E0= -.85932436E+03  d E =0.321719E-04  mag=    -0.0000
quench:  g(F)=  0.000E+00 g(S)=  0.000E+00 dE (1.order)= 0.000E+00
 bond charge predicted
       N       E                     dE             d eps       ncg     rms          rms(c)
DAV:   1    -0.851437144534E+03    0.16640E-04   -0.19473E-02  4480   0.244E-01    0.299E-02
DAV:   2    -0.851437156847E+03   -0.12313E-04   -0.27610E-04  4600   0.287E-02    0.196E-02
DAV:   3    -0.851437155268E+03    0.15783E-05   -0.15129E-05  4640   0.799E-03    0.591E-03
DAV:   4    -0.851437156316E+03   -0.10475E-05   -0.39787E-06  4200   0.312E-03    0.195E-03
DAV:   5    -0.851437156396E+03   -0.80589E-07   -0.34520E-07  3140   0.140E-03    0.615E-04
DAV:   6    -0.851437156443E+03   -0.46224E-07   -0.17397E-07  3400   0.108E-03
  73 F= -.85932436E+03 E0= -.85932436E+03  d E =0.135755E-05  mag=    -0.0000
quench:  g(F)=  0.000E+00 g(S)=  0.000E+00 dE (1.order)= 0.000E+00
 bond charge predicted
       N       E                     dE             d eps       ncg     rms          rms(c)
DAV:   1    -0.851437167182E+03   -0.10785E-04   -0.28957E-02  4480   0.297E-01    0.366E-02
DAV:   2    -0.851437186431E+03   -0.19250E-04   -0.41870E-04  4600   0.350E-02    0.240E-02
DAV:   3    -0.851437184385E+03    0.20459E-05   -0.21990E-05  4640   0.961E-03    0.758E-03
DAV:   4    -0.851437186214E+03   -0.18281E-05   -0.59828E-06  4840   0.385E-03    0.238E-03
DAV:   5    -0.851437186337E+03   -0.12333E-06   -0.56167E-07  3280   0.176E-03    0.725E-04
DAV:   6    -0.851437186410E+03   -0.73458E-07   -0.26647E-07  3560   0.140E-03
  74 F= -.85932439E+03 E0= -.85932439E+03  d E =-.297362E-04  mag=    -0.0000
quench:  g(F)=  0.000E+00 g(S)=  0.000E+00 dE (1.order)= 0.000E+00
 bond charge predicted
       N       E                     dE             d eps       ncg     rms          rms(c)
DAV:   1    -0.851437260932E+03   -0.74595E-04   -0.44218E-02  4480   0.361E-01    0.449E-02
DAV:   2    -0.851437293951E+03   -0.33020E-04   -0.66454E-04  4560   0.427E-02    0.296E-02
DAV:   3    -0.851437290794E+03    0.31578E-05   -0.30224E-05  4720   0.112E-02    0.105E-02
DAV:   4    -0.851437294506E+03   -0.37121E-05   -0.93057E-06  4940   0.492E-03    0.287E-03
DAV:   5    -0.851437294730E+03   -0.22416E-06   -0.10595E-06  3720   0.233E-03    0.941E-04
DAV:   6    -0.851437294814E+03   -0.84168E-07   -0.37965E-07  3520   0.168E-03
  75 F= -.85932449E+03 E0= -.85932449E+03  d E =-.101039E-03  mag=    -0.0000
quench:  g(F)=  0.000E+00 g(S)=  0.000E+00 dE (1.order)= 0.000E+00
 bond charge predicted
       N       E                     dE             d eps       ncg     rms          rms(c)
DAV:   1    -0.851437435183E+03   -0.14045E-03   -0.67770E-02  4480   0.442E-01    0.555E-02
DAV:   2    -0.851437489934E+03   -0.54751E-04   -0.10348E-03  4600   0.524E-02    0.366E-02
DAV:   3    -0.851437484062E+03    0.58724E-05   -0.43151E-05  4680   0.134E-02    0.138E-02
DAV:   4    -0.851437490533E+03   -0.64713E-05   -0.14409E-05  4780   0.627E-03    0.352E-03
DAV:   5    -0.851437490916E+03   -0.38346E-06   -0.19137E-06  4080   0.319E-03    0.121E-03
DAV:   6    -0.851437490985E+03   -0.68845E-07   -0.69986E-07  3760   0.236E-03
  76 F= -.85932467E+03 E0= -.85932467E+03  d E =-.182962E-03  mag=    -0.0000
quench:  g(F)=  0.000E+00 g(S)=  0.000E+00 dE (1.order)= 0.000E+00
 bond charge predicted
       N       E                     dE             d eps       ncg     rms          rms(c)
DAV:   1    -0.851437704403E+03   -0.21349E-03   -0.98960E-02  4480   0.533E-01    0.677E-02
DAV:   2    -0.851437783432E+03   -0.79029E-04   -0.14796E-03  4680   0.629E-02    0.443E-02
DAV:   3    -0.851437774099E+03    0.93334E-05   -0.62564E-05  4680   0.162E-02    0.163E-02
DAV:   4    -0.851437783021E+03   -0.89221E-05   -0.20497E-05  4760   0.751E-03    0.418E-03
DAV:   5    -0.851437783557E+03   -0.53552E-06   -0.27831E-06  4260   0.391E-03    0.142E-03
DAV:   6    -0.851437783655E+03   -0.98888E-07   -0.10888E-06  4040   0.296E-03
  77 F= -.85932495E+03 E0= -.85932495E+03  d E =-.274601E-03  mag=    -0.0000
quench:  g(F)=  0.000E+00 g(S)=  0.000E+00 dE (1.order)= 0.000E+00
 bond charge predicted
       N       E                     dE             d eps       ncg     rms          rms(c)
DAV:   1    -0.851438041087E+03   -0.25753E-03   -0.14920E-01  4480   0.651E-01    0.829E-02
DAV:   2    -0.851438163832E+03   -0.12275E-03   -0.22218E-03  4720   0.766E-02    0.541E-02
DAV:   3    -0.851438147986E+03    0.15846E-04   -0.92593E-05  4680   0.196E-02    0.201E-02
DAV:   4    -0.851438160563E+03   -0.12578E-04   -0.29992E-05  4820   0.907E-03    0.507E-03
DAV:   5    -0.851438161362E+03   -0.79865E-06   -0.40211E-06  4440   0.457E-03    0.172E-03
DAV:   6    -0.851438161590E+03   -0.22839E-06   -0.14707E-06  4240   0.344E-03
  78 F= -.85932531E+03 E0= -.85932531E+03  d E =-.356627E-03  mag=    -0.0000
quench:  g(F)=  0.000E+00 g(S)=  0.000E+00 dE (1.order)= 0.000E+00
 bond charge predicted
       N       E                     dE             d eps       ncg     rms          rms(c)
DAV:   1    -0.851438399871E+03   -0.23851E-03   -0.24686E-01  4480   0.821E-01    0.104E-01
DAV:   2    -0.851438635768E+03   -0.23590E-03   -0.38896E-03  4680   0.974E-02    0.686E-02
DAV:   3    -0.851438601799E+03    0.33969E-04   -0.13912E-04  4760   0.236E-02    0.287E-02
DAV:   4    -0.851438622540E+03   -0.20742E-04   -0.54373E-05  4760   0.123E-02    0.644E-03
DAV:   5    -0.851438624059E+03   -0.15188E-05   -0.77795E-06  4580   0.583E-03    0.239E-03
DAV:   6    -0.851438624320E+03   -0.26084E-06   -0.17300E-06  4380   0.369E-03
  79 F= -.85932574E+03 E0= -.85932574E+03  d E =-.434606E-03  mag=    -0.0000
quench:  g(F)=  0.000E+00 g(S)=  0.000E+00 dE (1.order)= 0.000E+00
 bond charge predicted
       N       E                     dE             d eps       ncg     rms          rms(c)
DAV:   1    -0.851438909218E+03   -0.28516E-03   -0.30954E-01  4480   0.945E-01    0.120E-01
DAV:   2    -0.851439164027E+03   -0.25481E-03   -0.45722E-03  4700   0.111E-01    0.784E-02
DAV:   3    -0.851439127085E+03    0.36941E-04   -0.20376E-04  4680   0.292E-02    0.283E-02
DAV:   4    -0.851439148790E+03   -0.21704E-04   -0.61699E-05  4780   0.131E-02    0.749E-03
DAV:   5    -0.851439150379E+03   -0.15895E-05   -0.77452E-06  4640   0.662E-03    0.269E-03
DAV:   6    -0.851439150955E+03   -0.57538E-06   -0.35315E-06  4520   0.535E-03
  80 F= -.85932623E+03 E0= -.85932623E+03  d E =-.490026E-03  mag=    -0.0000
quench:  g(F)=  0.000E+00 g(S)=  0.000E+00 dE (1.order)= 0.000E+00
 bond charge predicted
       N       E                     dE             d eps       ncg     rms          rms(c)
DAV:   1    -0.851439000644E+03    0.14974E-03   -0.47694E-01  4480   0.117E+00    0.145E-01
DAV:   2    -0.851439451294E+03   -0.45065E-03   -0.75149E-03  4640   0.140E-01    0.955E-02
DAV:   3    -0.851439382712E+03    0.68582E-04   -0.30135E-04  4760   0.351E-02    0.389E-02
DAV:   4    -0.851439414997E+03   -0.32285E-04   -0.10347E-04  4760   0.172E-02    0.943E-03
DAV:   5    -0.851439417711E+03   -0.27141E-05   -0.13096E-05  4600   0.787E-03    0.366E-03
DAV:   6    -0.851439418624E+03   -0.91302E-06   -0.35786E-06  4560   0.530E-03
  81 F= -.85932646E+03 E0= -.85932646E+03  d E =-.230136E-03  mag=    -0.0000
quench:  g(F)=  0.000E+00 g(S)=  0.000E+00 dE (1.order)= 0.000E+00
 bond charge predicted
       N       E                     dE             d eps       ncg     rms          rms(c)
DAV:   1    -0.851438765854E+03    0.65186E-03   -0.59654E-01  4480   0.136E+00    0.166E-01
DAV:   2    -0.851439295097E+03   -0.52924E-03   -0.96581E-03  4600   0.168E-01    0.111E-01
DAV:   3    -0.851439192312E+03    0.10279E-03   -0.53715E-04  4680   0.469E-02    0.409E-02
DAV:   4    -0.851439222351E+03   -0.30039E-04   -0.13316E-04  5080   0.196E-02    0.123E-02
DAV:   5    -0.851439226595E+03   -0.42439E-05   -0.13589E-05  4600   0.887E-03    0.460E-03
DAV:   6    -0.851439228498E+03   -0.19028E-05   -0.70453E-06  4720   0.769E-03    0.188E-03
DAV:   7    -0.851439227398E+03    0.11005E-05   -0.48438E-06  4400   0.640E-03    0.919E-04
DAV:   8    -0.851439227043E+03    0.35451E-06   -0.90066E-07  3980   0.271E-03
  82 F= -.85932623E+03 E0= -.85932623E+03  d E =0.232706E-03  mag=    -0.0000
quench:  g(F)=  0.000E+00 g(S)=  0.000E+00 dE (1.order)= 0.000E+00
 bond charge predicted
       N       E                     dE             d eps       ncg     rms          rms(c)
DAV:   1    -0.851439901469E+03   -0.67407E-03   -0.29996E-02  4520   0.337E-01    0.411E-02
DAV:   2    -0.851439934608E+03   -0.33139E-04   -0.71770E-04  5040   0.492E-02    0.276E-02
DAV:   3    -0.851439921771E+03    0.12837E-04   -0.65372E-05  5000   0.152E-02    0.126E-02
DAV:   4    -0.851439920995E+03    0.77670E-06   -0.89104E-06  4960   0.528E-03    0.570E-03
DAV:   5    -0.851439921403E+03   -0.40823E-06   -0.13452E-06  3300   0.254E-03    0.135E-03
DAV:   6    -0.851439921636E+03   -0.23335E-06   -0.39888E-07  3480   0.133E-03
  83 F= -.85932693E+03 E0= -.85932693E+03  d E =-.697670E-03  mag=    -0.0000
quench:  g(F)=  0.000E+00 g(S)=  0.000E+00 dE (1.order)= 0.000E+00
 bond charge predicted
       N       E                     dE             d eps       ncg     rms          rms(c)
DAV:   1    -0.851439582964E+03    0.33844E-03   -0.31106E-02  4480   0.342E-01    0.420E-02
DAV:   2    -0.851439616655E+03   -0.33692E-04   -0.72571E-04  5240   0.495E-02    0.278E-02
DAV:   3    -0.851439603803E+03    0.12852E-04   -0.63818E-05  4760   0.152E-02    0.127E-02
DAV:   4    -0.851439602784E+03    0.10190E-05   -0.89808E-06  4960   0.541E-03    0.559E-03
DAV:   5    -0.851439602906E+03   -0.12176E-06   -0.13205E-06  3120   0.254E-03    0.138E-03
DAV:   6    -0.851439602974E+03   -0.67768E-07   -0.42082E-07  3400   0.145E-03
  84 F= -.85932660E+03 E0= -.85932660E+03  d E =0.326057E-03  mag=    -0.0000
quench:  g(F)=  0.000E+00 g(S)=  0.000E+00 dE (1.order)= 0.000E+00
 bond charge predicted
       N       E                     dE             d eps       ncg     rms          rms(c)
DAV:   1    -0.851439836539E+03   -0.23363E-03   -0.13173E-03  4560   0.705E-02    0.853E-03
DAV:   2    -0.851439838060E+03   -0.15210E-05   -0.31873E-05  5120   0.103E-02    0.585E-03
DAV:   3    -0.851439837544E+03    0.51580E-06   -0.28649E-06  4000   0.327E-03    0.267E-03
DAV:   4    -0.851439837555E+03   -0.11270E-07   -0.43638E-07  3400   0.144E-03    0.118E-03
DAV:   5    -0.851439837651E+03   -0.96363E-07   -0.19882E-07  3080   0.111E-03    0.383E-04
DAV:   6    -0.851439837658E+03   -0.66721E-08   -0.11660E-07  3360   0.923E-04
  85 F= -.85932683E+03 E0= -.85932683E+03  d E =-.231426E-03  mag=    -0.0000
quench:  g(F)=  0.000E+00 g(S)=  0.000E+00 dE (1.order)= 0.000E+00
 bond charge predicted
       N       E                     dE             d eps       ncg     rms          rms(c)
DAV:   1    -0.851440154964E+03   -0.31731E-03   -0.42559E-03  4520   0.127E-01    0.153E-02
DAV:   2    -0.851440159848E+03   -0.48840E-05   -0.10077E-04  4800   0.183E-02    0.104E-02
DAV:   3    -0.851440158096E+03    0.17515E-05   -0.90231E-06  5080   0.567E-03    0.478E-03
DAV:   4    -0.851440157972E+03    0.12365E-06   -0.11303E-06  3520   0.195E-03    0.214E-03
DAV:   5    -0.851440158014E+03   -0.42011E-07   -0.26706E-07  3160   0.108E-03    0.542E-04
DAV:   6    -0.851440158027E+03   -0.12886E-07   -0.78209E-08  3280   0.638E-04
  86 F= -.85932714E+03 E0= -.85932714E+03  d E =-.311261E-03  mag=    -0.0000
quench:  g(F)=  0.000E+00 g(S)=  0.000E+00 dE (1.order)= 0.000E+00
 bond charge predicted
       N       E                     dE             d eps       ncg     rms          rms(c)
DAV:   1    -0.851440401936E+03   -0.24392E-03   -0.64296E-03  4480   0.154E-01    0.188E-02
DAV:   2    -0.851440409197E+03   -0.72613E-05   -0.14666E-04  4920   0.219E-02    0.128E-02
DAV:   3    -0.851440406819E+03    0.23785E-05   -0.12490E-05  4960   0.673E-03    0.582E-03
DAV:   4    -0.851440406729E+03    0.89916E-07   -0.16935E-06  3800   0.240E-03    0.252E-03
DAV:   5    -0.851440406807E+03   -0.77765E-07   -0.33359E-07  3240   0.125E-03    0.649E-04
DAV:   6    -0.851440406819E+03   -0.11802E-07   -0.12369E-07  3220   0.874E-04
  87 F= -.85932737E+03 E0= -.85932737E+03  d E =-.230583E-03  mag=    -0.0000
quench:  g(F)=  0.000E+00 g(S)=  0.000E+00 dE (1.order)= 0.000E+00
 bond charge predicted
       N       E                     dE             d eps       ncg     rms          rms(c)
DAV:   1    -0.851440567067E+03   -0.16026E-03   -0.60548E-03  4480   0.144E-01    0.182E-02
DAV:   2    -0.851440573689E+03   -0.66223E-05   -0.12599E-04  5040   0.198E-02    0.123E-02
DAV:   3    -0.851440572036E+03    0.16533E-05   -0.93781E-06  4800   0.594E-03    0.553E-03
DAV:   4    -0.851440572199E+03   -0.16371E-06   -0.14835E-06  4000   0.234E-03    0.214E-03
DAV:   5    -0.851440572325E+03   -0.12531E-06   -0.28994E-07  3120   0.129E-03    0.641E-04
DAV:   6    -0.851440572347E+03   -0.22759E-07   -0.17358E-07  3380   0.111E-03
  88 F= -.85932751E+03 E0= -.85932751E+03  d E =-.139332E-03  mag=    -0.0000
quench:  g(F)=  0.000E+00 g(S)=  0.000E+00 dE (1.order)= 0.000E+00
 bond charge predicted
       N       E                     dE             d eps       ncg     rms          rms(c)
DAV:   1    -0.851440803884E+03   -0.23156E-03   -0.46522E-03  4480   0.113E-01    0.162E-02
DAV:   2    -0.851440808523E+03   -0.46394E-05   -0.78887E-05  4720   0.142E-02    0.106E-02
DAV:   3    -0.851440808050E+03    0.47324E-06   -0.38960E-06  4680   0.397E-03    0.463E-03
DAV:   4    -0.851440808551E+03   -0.50125E-06   -0.10187E-06  3880   0.198E-03    0.134E-03
DAV:   5    -0.851440808646E+03   -0.94522E-07   -0.27910E-07  3360   0.136E-03    0.567E-04
DAV:   6    -0.851440808645E+03    0.44383E-09   -0.15736E-07  3360   0.106E-03
  89 F= -.85932772E+03 E0= -.85932772E+03  d E =-.204505E-03  mag=    -0.0000
quench:  g(F)=  0.000E+00 g(S)=  0.000E+00 dE (1.order)= 0.000E+00
 bond charge predicted
       N       E                     dE             d eps       ncg     rms          rms(c)
DAV:   1    -0.851441222167E+03   -0.41352E-03   -0.50485E-03  4480   0.110E-01    0.172E-02
DAV:   2    -0.851441226826E+03   -0.46591E-05   -0.76555E-05  4600   0.129E-02    0.108E-02
DAV:   3    -0.851441226692E+03    0.13407E-06   -0.27126E-06  4560   0.331E-03    0.468E-03
DAV:   4    -0.851441227379E+03   -0.68701E-06   -0.10417E-06  4040   0.188E-03    0.118E-03
DAV:   5    -0.851441227471E+03   -0.92252E-07   -0.34968E-07  3580   0.149E-03    0.539E-04
DAV:   6    -0.851441227429E+03    0.42019E-07   -0.14691E-07  3160   0.102E-03
  90 F= -.85932810E+03 E0= -.85932810E+03  d E =-.383491E-03  mag=    -0.0000
quench:  g(F)=  0.000E+00 g(S)=  0.000E+00 dE (1.order)= 0.000E+00
 bond charge predicted
       N       E                     dE             d eps       ncg     rms          rms(c)
DAV:   1    -0.851441827327E+03   -0.59986E-03   -0.95544E-03  4480   0.165E-01    0.235E-02
DAV:   2    -0.851441837371E+03   -0.10044E-04   -0.16866E-04  4600   0.211E-02    0.150E-02
DAV:   3    -0.851441836230E+03    0.11415E-05   -0.80212E-06  4880   0.557E-03    0.684E-03
DAV:   4    -0.851441837097E+03   -0.86775E-06   -0.21818E-06  4500   0.272E-03    0.187E-03
DAV:   5    -0.851441837226E+03   -0.12910E-06   -0.36830E-07  3600   0.155E-03    0.780E-04
DAV:   6    -0.851441837238E+03   -0.11671E-07   -0.16049E-07  3320   0.106E-03
  91 F= -.85932867E+03 E0= -.85932867E+03  d E =-.567923E-03  mag=    -0.0000
quench:  g(F)=  0.000E+00 g(S)=  0.000E+00 dE (1.order)= 0.000E+00
 bond charge predicted
       N       E                     dE             d eps       ncg     rms          rms(c)
DAV:   1    -0.851442441740E+03   -0.60451E-03   -0.16754E-02  4480   0.222E-01    0.311E-02
DAV:   2    -0.851442460406E+03   -0.18666E-04   -0.31672E-04  4560   0.295E-02    0.197E-02
DAV:   3    -0.851442457688E+03    0.27177E-05   -0.15922E-05  5000   0.776E-03    0.932E-03
DAV:   4    -0.851442458912E+03   -0.12242E-05   -0.40851E-06  4520   0.382E-03    0.260E-03
DAV:   5    -0.851442459180E+03   -0.26764E-06   -0.69738E-07  3640   0.220E-03    0.104E-03
DAV:   6    -0.851442459182E+03   -0.17171E-08   -0.34905E-07  3560   0.161E-03
  92 F= -.85932924E+03 E0= -.85932924E+03  d E =-.571782E-03  mag=    -0.0000
quench:  g(F)=  0.000E+00 g(S)=  0.000E+00 dE (1.order)= 0.000E+00
 bond charge predicted
       N       E                     dE             d eps       ncg     rms          rms(c)
DAV:   1    -0.851443042577E+03   -0.58340E-03   -0.20478E-02  4480   0.228E-01    0.345E-02
DAV:   2    -0.851443065872E+03   -0.23296E-04   -0.36652E-04  4560   0.291E-02    0.212E-02
[...]
DAV:   2    -0.851482403539E+03   -0.26565E-07   -0.61613E-07  3520   0.142E-03    0.859E-04
DAV:   3    -0.851482403529E+03    0.94733E-08   -0.70443E-08  3120   0.537E-04    0.443E-04
DAV:   4    -0.851482403530E+03   -0.92405E-09   -0.15084E-08  3040   0.264E-04    0.269E-04
DAV:   5    -0.851482403531E+03   -0.48021E-09   -0.15369E-09  3040   0.137E-04    0.235E-04
DAV:   6    -0.851482403532E+03   -0.72032E-09    0.16326E-09  3080   0.824E-05
 253 F= -.85936890E+03 E0= -.85936890E+03  d E =-.161832E-04  mag=     0.0000
quench:  g(F)=  0.000E+00 g(S)=  0.000E+00 dE (1.order)= 0.000E+00
 bond charge predicted
       N       E                     dE             d eps       ncg     rms          rms(c)
DAV:   1    -0.851482426307E+03   -0.22776E-04   -0.47534E-05  4560   0.129E-02    0.153E-03
DAV:   2    -0.851482426354E+03   -0.47185E-07   -0.96223E-07  3440   0.176E-03    0.106E-03
DAV:   3    -0.851482426341E+03    0.13257E-07   -0.10590E-07  3200   0.656E-04    0.532E-04
DAV:   4    -0.851482426341E+03   -0.32014E-09   -0.25122E-08  2920   0.331E-04    0.286E-04
DAV:   5    -0.851482426343E+03   -0.11569E-08   -0.45556E-09  3000   0.186E-04    0.238E-04
DAV:   6    -0.851482426343E+03    0.36380E-10    0.21753E-10  2960   0.125E-04
 254 F= -.85936892E+03 E0= -.85936892E+03  d E =-.221301E-04  mag=     0.0000
quench:  g(F)=  0.000E+00 g(S)=  0.000E+00 dE (1.order)= 0.000E+00
 bond charge predicted
       N       E                     dE             d eps       ncg     rms          rms(c)
DAV:   1    -0.851482455922E+03   -0.29579E-04   -0.64067E-05  4560   0.146E-02    0.178E-03
DAV:   2    -0.851482455989E+03   -0.67172E-07   -0.12668E-06  3320   0.198E-03    0.121E-03
DAV:   3    -0.851482455975E+03    0.14290E-07   -0.12907E-07  3200   0.723E-04    0.606E-04
DAV:   4    -0.851482455976E+03   -0.11132E-08   -0.33229E-08  2960   0.375E-04    0.296E-04
DAV:   5    -0.851482455978E+03   -0.16444E-08   -0.64736E-09  3000   0.212E-04    0.241E-04
DAV:   6    -0.851482455978E+03   -0.16007E-09   -0.39677E-10  2840   0.138E-04
 255 F= -.85936895E+03 E0= -.85936895E+03  d E =-.285482E-04  mag=    -0.0000
quench:  g(F)=  0.000E+00 g(S)=  0.000E+00 dE (1.order)= 0.000E+00
 bond charge predicted
       N       E                     dE             d eps       ncg     rms          rms(c)
DAV:   1    -0.851482493518E+03   -0.37541E-04   -0.78019E-05  4480   0.157E-02    0.198E-03
DAV:   2    -0.851482493606E+03   -0.87814E-07   -0.15018E-06  3560   0.208E-03    0.133E-03
DAV:   3    -0.851482493590E+03    0.16022E-07   -0.12438E-07  3160   0.714E-04    0.670E-04
DAV:   4    -0.851482493594E+03   -0.36307E-08   -0.36918E-08  2960   0.396E-04    0.297E-04
DAV:   5    -0.851482493597E+03   -0.28522E-08   -0.80848E-09  3020   0.240E-04    0.243E-04
DAV:   6    -0.851482493596E+03    0.80036E-09   -0.94855E-10  2880   0.151E-04
 256 F= -.85936898E+03 E0= -.85936898E+03  d E =-.360303E-04  mag=    -0.0000
quench:  g(F)=  0.000E+00 g(S)=  0.000E+00 dE (1.order)= 0.000E+00
 bond charge predicted
       N       E                     dE             d eps       ncg     rms          rms(c)
DAV:   1    -0.851482547324E+03   -0.53727E-04   -0.11247E-04  4480   0.179E-02    0.243E-03
DAV:   2    -0.851482547458E+03   -0.13453E-06   -0.20766E-06  3760   0.231E-03    0.158E-03
DAV:   3    -0.851482547443E+03    0.15163E-07   -0.12552E-07  3120   0.725E-04    0.803E-04
DAV:   4    -0.851482547451E+03   -0.72396E-08   -0.46641E-08  2960   0.434E-04    0.308E-04
DAV:   5    -0.851482547454E+03   -0.33542E-08   -0.10667E-08  3040   0.271E-04    0.247E-04
DAV:   6    -0.851482547453E+03    0.13897E-08   -0.13072E-09  2920   0.152E-04
 257 F= -.85936904E+03 E0= -.85936904E+03  d E =-.513132E-04  mag=     0.0000
quench:  g(F)=  0.000E+00 g(S)=  0.000E+00 dE (1.order)= 0.000E+00
 bond charge predicted
       N       E                     dE             d eps       ncg     rms          rms(c)
DAV:   1    -0.851482624574E+03   -0.77120E-04   -0.16775E-04  4480   0.205E-02    0.306E-03
DAV:   2    -0.851482624781E+03   -0.20707E-06   -0.29200E-06  3920   0.253E-03    0.193E-03
DAV:   3    -0.851482624766E+03    0.14617E-07   -0.13314E-07  3160   0.759E-04    0.973E-04
DAV:   4    -0.851482624787E+03   -0.20686E-07   -0.60455E-08  3040   0.481E-04    0.331E-04
DAV:   5    -0.851482624790E+03   -0.27576E-08   -0.16149E-08  3240   0.334E-04    0.252E-04
DAV:   6    -0.851482624789E+03    0.13242E-08   -0.29753E-09  2880   0.178E-04
 258 F= -.85936911E+03 E0= -.85936911E+03  d E =-.734903E-04  mag=    -0.0000
quench:  g(F)=  0.000E+00 g(S)=  0.000E+00 dE (1.order)= 0.000E+00
 bond charge predicted
       N       E                     dE             d eps       ncg     rms          rms(c)
DAV:   1    -0.851482735273E+03   -0.11048E-03   -0.26729E-04  4480   0.239E-02    0.400E-03
DAV:   2    -0.851482735607E+03   -0.33405E-06   -0.43894E-06  4000   0.281E-03    0.244E-03
DAV:   3    -0.851482735600E+03    0.65193E-08   -0.14270E-07  3200   0.788E-04    0.121E-03
DAV:   4    -0.851482735642E+03   -0.41480E-07   -0.81669E-08  3040   0.519E-04    0.372E-04
DAV:   5    -0.851482735644E+03   -0.28813E-08   -0.22831E-08  3220   0.387E-04    0.258E-04
DAV:   6    -0.851482735642E+03    0.23720E-08   -0.52784E-09  3020   0.205E-04
 259 F= -.85936921E+03 E0= -.85936921E+03  d E =-.105130E-03  mag=    -0.0000
quench:  g(F)=  0.000E+00 g(S)=  0.000E+00 dE (1.order)= 0.000E+00
 bond charge predicted
       N       E                     dE             d eps       ncg     rms          rms(c)
DAV:   1    -0.851482890146E+03   -0.15450E-03   -0.44164E-04  4480   0.295E-02    0.530E-03
DAV:   2    -0.851482890694E+03   -0.54779E-06   -0.69611E-06  4240   0.337E-03    0.319E-03
DAV:   3    -0.851482890700E+03   -0.59008E-08   -0.18466E-07  3340   0.883E-04    0.154E-03
DAV:   4    -0.851482890770E+03   -0.69987E-07   -0.10991E-07  3040   0.574E-04    0.434E-04
DAV:   5    -0.851482890774E+03   -0.41473E-08   -0.30931E-08  3300   0.440E-04    0.269E-04
DAV:   6    -0.851482890774E+03    0.16007E-09   -0.10720E-08  3080   0.275E-04
 260 F= -.85936936E+03 E0= -.85936936E+03  d E =-.147078E-03  mag=     0.0000
quench:  g(F)=  0.000E+00 g(S)=  0.000E+00 dE (1.order)= 0.000E+00
 bond charge predicted
       N       E                     dE             d eps       ncg     rms          rms(c)
DAV:   1    -0.851483104084E+03   -0.21331E-03   -0.77951E-04  4480   0.390E-02    0.715E-03
DAV:   2    -0.851483105063E+03   -0.97878E-06   -0.12321E-05  4600   0.449E-03    0.429E-03
DAV:   3    -0.851483105075E+03   -0.11998E-07   -0.28877E-07  3660   0.106E-03    0.204E-03
DAV:   4    -0.851483105190E+03   -0.11575E-06   -0.16072E-07  3080   0.682E-04    0.532E-04
DAV:   5    -0.851483105197E+03   -0.64174E-08   -0.42561E-08  3320   0.495E-04    0.292E-04
DAV:   6    -0.851483105200E+03   -0.36744E-08   -0.15733E-08  3080   0.317E-04
 261 F= -.85936956E+03 E0= -.85936956E+03  d E =-.202931E-03  mag=     0.0000
quench:  g(F)=  0.000E+00 g(S)=  0.000E+00 dE (1.order)= 0.000E+00
 bond charge predicted
       N       E                     dE             d eps       ncg     rms          rms(c)
DAV:   1    -0.851483388913E+03   -0.28372E-03   -0.14013E-03  4480   0.523E-02    0.963E-03
DAV:   2    -0.851483390672E+03   -0.17598E-05   -0.22519E-05  4760   0.614E-03    0.575E-03
DAV:   3    -0.851483390691E+03   -0.18452E-07   -0.54495E-07  3780   0.145E-03    0.275E-03
DAV:   4    -0.851483390898E+03   -0.20687E-06   -0.29473E-07  3560   0.919E-04    0.702E-04
DAV:   5    -0.851483390906E+03   -0.86075E-08   -0.81035E-08  3320   0.668E-04    0.339E-04
DAV:   6    -0.851483390909E+03   -0.29249E-08   -0.27466E-08  3080   0.403E-04
 262 F= -.85936983E+03 E0= -.85936983E+03  d E =-.269959E-03  mag=     0.0000
quench:  g(F)=  0.000E+00 g(S)=  0.000E+00 dE (1.order)= 0.000E+00
 bond charge predicted
       N       E                     dE             d eps       ncg     rms          rms(c)
DAV:   1    -0.851483756933E+03   -0.36603E-03   -0.23868E-03  4480   0.678E-02    0.126E-02
DAV:   2    -0.851483759919E+03   -0.29858E-05   -0.38609E-05  4760   0.800E-03    0.746E-03
DAV:   3    -0.851483759960E+03   -0.41851E-07   -0.91773E-07  3920   0.186E-03    0.358E-03
DAV:   4    -0.851483760316E+03   -0.35570E-06   -0.49502E-07  3680   0.121E-03    0.867E-04
DAV:   5    -0.851483760339E+03   -0.22366E-07   -0.15248E-07  3360   0.935E-04    0.398E-04
DAV:   6    -0.851483760332E+03    0.67375E-08   -0.55617E-08  3120   0.589E-04
 263 F= -.85937018E+03 E0= -.85937018E+03  d E =-.348586E-03  mag=     0.0000
quench:  g(F)=  0.000E+00 g(S)=  0.000E+00 dE (1.order)= 0.000E+00
 bond charge predicted
       N       E                     dE             d eps       ncg     rms          rms(c)
DAV:   1    -0.851484223104E+03   -0.46277E-03   -0.38816E-03  4480   0.845E-02    0.160E-02
DAV:   2    -0.851484227979E+03   -0.48750E-05   -0.63206E-05  4760   0.989E-03    0.941E-03
DAV:   3    -0.851484228081E+03   -0.10206E-06   -0.13478E-06  4040   0.220E-03    0.457E-03
DAV:   4    -0.851484228703E+03   -0.62190E-06   -0.82603E-07  3960   0.150E-03    0.106E-03
DAV:   5    -0.851484228747E+03   -0.44187E-07   -0.27253E-07  3720   0.122E-03    0.488E-04
DAV:   6    -0.851484228724E+03    0.23509E-07   -0.86308E-08  3160   0.752E-04
 264 F= -.85937062E+03 E0= -.85937062E+03  d E =-.441066E-03  mag=     0.0000
quench:  g(F)=  0.000E+00 g(S)=  0.000E+00 dE (1.order)= 0.000E+00
 bond charge predicted
       N       E                     dE             d eps       ncg     rms          rms(c)
DAV:   1    -0.851484795467E+03   -0.56672E-03   -0.62723E-03  4480   0.105E-01    0.202E-02
DAV:   2    -0.851484803535E+03   -0.80681E-05   -0.10490E-04  4680   0.123E-02    0.117E-02
DAV:   3    -0.851484803597E+03   -0.61707E-07   -0.19876E-06  4100   0.259E-03    0.583E-03
DAV:   4    -0.851484804681E+03   -0.10839E-05   -0.14699E-06  4200   0.193E-03    0.128E-03
DAV:   5    -0.851484804781E+03   -0.10018E-06   -0.52167E-07  3800   0.169E-03    0.621E-04
DAV:   6    -0.851484804685E+03    0.95235E-07   -0.14200E-07  3240   0.969E-04
 265 F= -.85937117E+03 E0= -.85937117E+03  d E =-.541802E-03  mag=     0.0000
quench:  g(F)=  0.000E+00 g(S)=  0.000E+00 dE (1.order)= 0.000E+00
 bond charge predicted
       N       E                     dE             d eps       ncg     rms          rms(c)
DAV:   1    -0.851485480085E+03   -0.67530E-03   -0.92327E-03  4480   0.127E-01    0.245E-02
DAV:   2    -0.851485492060E+03   -0.11975E-04   -0.15554E-04  4720   0.149E-02    0.141E-02
DAV:   3    -0.851485492150E+03   -0.89596E-07   -0.29451E-06  4380   0.314E-03    0.707E-03
DAV:   4    -0.851485493744E+03   -0.15942E-05   -0.21866E-06  4200   0.241E-03    0.151E-03
DAV:   5    -0.851485493941E+03   -0.19700E-06   -0.84977E-07  3800   0.223E-03    0.740E-04
DAV:   6    -0.851485493728E+03    0.21287E-06   -0.22392E-07  3240   0.123E-03
 266 F= -.85937182E+03 E0= -.85937182E+03  d E =-.648899E-03  mag=     0.0000
quench:  g(F)=  0.000E+00 g(S)=  0.000E+00 dE (1.order)= 0.000E+00
 bond charge predicted
       N       E                     dE             d eps       ncg     rms          rms(c)
DAV:   1    -0.851486288197E+03   -0.79426E-03   -0.12520E-02  4480   0.147E-01    0.290E-02
DAV:   2    -0.851486304170E+03   -0.15973E-04   -0.20593E-04  4720   0.173E-02    0.165E-02
DAV:   3    -0.851486304491E+03   -0.32147E-06   -0.39968E-06  4460   0.367E-03    0.817E-03
DAV:   4    -0.851486306559E+03   -0.20678E-05   -0.27452E-06  4200   0.277E-03    0.172E-03
DAV:   5    -0.851486306844E+03   -0.28524E-06   -0.11447E-06  3880   0.265E-03    0.837E-04
DAV:   6    -0.851486306526E+03    0.31784E-06   -0.31624E-07  3240   0.148E-03
 267 F= -.85937258E+03 E0= -.85937258E+03  d E =-.766273E-03  mag=     0.0000
quench:  g(F)=  0.000E+00 g(S)=  0.000E+00 dE (1.order)= 0.000E+00
 bond charge predicted
       N       E                     dE             d eps       ncg     rms          rms(c)
DAV:   1    -0.851487174497E+03   -0.86765E-03   -0.13915E-02  4480   0.156E-01    0.308E-02
DAV:   2    -0.851487192560E+03   -0.18063E-04   -0.21766E-04  4800   0.180E-02    0.182E-02
DAV:   3    -0.851487193513E+03   -0.95348E-06   -0.47847E-06  4540   0.414E-03    0.849E-03
DAV:   4    -0.851487195665E+03   -0.21517E-05   -0.25358E-06  4200   0.280E-03    0.185E-03
DAV:   5    -0.851487195932E+03   -0.26655E-06   -0.10565E-06  4040   0.258E-03    0.825E-04
DAV:   6    -0.851487195742E+03    0.18911E-06   -0.45247E-07  3320   0.182E-03
 268 F= -.85937342E+03 E0= -.85937342E+03  d E =-.840618E-03  mag=     0.0000
quench:  g(F)=  0.000E+00 g(S)=  0.000E+00 dE (1.order)= 0.000E+00
 bond charge predicted
       N       E                     dE             d eps       ncg     rms          rms(c)
DAV:   1    -0.851488073322E+03   -0.87739E-03   -0.13108E-02  4480   0.159E-01    0.304E-02
DAV:   2    -0.851488089668E+03   -0.16346E-04   -0.18638E-04  4920   0.182E-02    0.185E-02
DAV:   3    -0.851488091329E+03   -0.16606E-05   -0.60660E-06  4600   0.483E-03    0.760E-03
DAV:   4    -0.851488092715E+03   -0.13864E-05   -0.16383E-06  4260   0.244E-03    0.184E-03
DAV:   5    -0.851488092878E+03   -0.16290E-06   -0.52279E-07  3880   0.175E-03    0.750E-04
DAV:   6    -0.851488093087E+03   -0.20929E-06   -0.38558E-07  3640   0.169E-03
 269 F= -.85937428E+03 E0= -.85937428E+03  d E =-.854655E-03  mag=     0.0000
quench:  g(F)=  0.000E+00 g(S)=  0.000E+00 dE (1.order)= 0.000E+00
 bond charge predicted
       N       E                     dE             d eps       ncg     rms          rms(c)
DAV:   1    -0.851488082989E+03    0.98894E-05   -0.20802E-05  4740   0.841E-03    0.109E-03
DAV:   2    -0.851488083078E+03   -0.88869E-07   -0.36675E-07  3520   0.126E-03    0.750E-04
DAV:   3    -0.851488083233E+03   -0.15563E-06   -0.10543E-07  3320   0.840E-04    0.348E-04
DAV:   4    -0.851488083293E+03   -0.59525E-07   -0.69351E-08  3400   0.718E-04    0.292E-04
DAV:   5    -0.851488083346E+03   -0.53413E-07   -0.25560E-08  3120   0.436E-04    0.268E-04
DAV:   6    -0.851488083425E+03   -0.78464E-07   -0.35169E-09  3240   0.180E-04
 270 F= -.85937427E+03 E0= -.85937427E+03  d E =0.808009E-05  mag=     0.0000
quench:  g(F)=  0.000E+00 g(S)=  0.000E+00 dE (1.order)= 0.000E+00
 bond charge predicted
       N       E                     dE             d eps       ncg     rms          rms(c)
DAV:   1    -0.851488062695E+03    0.20651E-04   -0.74567E-05  4800   0.157E-02    0.195E-03
DAV:   2    -0.851488062773E+03   -0.77685E-07   -0.11918E-06  4240   0.196E-03    0.134E-03
DAV:   3    -0.851488062792E+03   -0.19529E-07   -0.13206E-07  3100   0.786E-04    0.486E-04
DAV:   4    -0.851488062817E+03   -0.24986E-07   -0.30400E-08  3320   0.344E-04    0.320E-04
DAV:   5    -0.851488062839E+03   -0.21893E-07   -0.51196E-09  3160   0.185E-04    0.264E-04
DAV:   6    -0.851488062853E+03   -0.13424E-07   -0.42881E-10  3280   0.125E-04
 271 F= -.85937425E+03 E0= -.85937425E+03  d E =0.175715E-04  mag=    -0.0000
quench:  g(F)=  0.000E+00 g(S)=  0.000E+00 dE (1.order)= 0.000E+00
 bond charge predicted
       N       E                     dE             d eps       ncg     rms          rms(c)
DAV:   1    -0.851488031995E+03    0.30844E-04   -0.15736E-04  4680   0.226E-02    0.279E-03
DAV:   2    -0.851488032112E+03   -0.11653E-06   -0.24538E-06  4400   0.278E-03    0.190E-03
DAV:   3    -0.851488032087E+03    0.24971E-07   -0.22674E-07  3080   0.103E-03    0.662E-04
DAV:   4    -0.851488032098E+03   -0.10965E-07   -0.58866E-08  3320   0.464E-04    0.367E-04
DAV:   5    -0.851488032102E+03   -0.39727E-08   -0.11929E-08  3160   0.249E-04    0.273E-04
DAV:   6    -0.851488032105E+03   -0.27576E-08   -0.20090E-09  3240   0.148E-04
 272 F= -.85937422E+03 E0= -.85937422E+03  d E =0.264116E-04  mag=     0.0000
quench:  g(F)=  0.000E+00 g(S)=  0.000E+00 dE (1.order)= 0.000E+00
 bond charge predicted
       N       E                     dE             d eps       ncg     rms          rms(c)
DAV:   1    -0.851487993169E+03    0.38933E-04   -0.25769E-04  4480   0.285E-02    0.352E-03
DAV:   2    -0.851487993359E+03   -0.19053E-06   -0.39175E-06  4640   0.344E-03    0.236E-03
DAV:   3    -0.851487993317E+03    0.42070E-07   -0.25818E-07  3240   0.112E-03    0.858E-04
DAV:   4    -0.851487993330E+03   -0.13148E-07   -0.75385E-08  3120   0.532E-04    0.400E-04
DAV:   5    -0.851487993331E+03   -0.10841E-08   -0.17374E-08  3160   0.305E-04    0.280E-04
DAV:   6    -0.851487993332E+03   -0.10041E-08   -0.48175E-09  3160   0.197E-04
 273 F= -.85937419E+03 E0= -.85937419E+03  d E =0.335217E-04  mag=     0.0000
quench:  g(F)=  0.000E+00 g(S)=  0.000E+00 dE (1.order)= 0.000E+00
 bond charge predicted
       N       E                     dE             d eps       ncg     rms          rms(c)
DAV:   1    -0.851487949455E+03    0.43877E-04   -0.38549E-04  4480   0.344E-02    0.425E-03
DAV:   2    -0.851487949751E+03   -0.29663E-06   -0.57674E-06  4600   0.411E-03    0.279E-03
DAV:   3    -0.851487949701E+03    0.50561E-07   -0.28414E-07  3400   0.119E-03    0.107E-03
DAV:   4    -0.851487949721E+03   -0.20234E-07   -0.10222E-07  2980   0.625E-04    0.419E-04
DAV:   5    -0.851487949724E+03   -0.27940E-08   -0.28742E-08  3180   0.406E-04    0.281E-04
DAV:   6    -0.851487949725E+03   -0.17681E-08   -0.95299E-09  3160   0.263E-04
 274 F= -.85937415E+03 E0= -.85937415E+03  d E =0.376244E-04  mag=     0.0000
quench:  g(F)=  0.000E+00 g(S)=  0.000E+00 dE (1.order)= 0.000E+00
 bond charge predicted
       N       E                     dE             d eps       ncg     rms          rms(c)
DAV:   1    -0.851487905280E+03    0.44444E-04   -0.53785E-04  4480   0.401E-02    0.499E-03
DAV:   2    -0.851487905715E+03   -0.43560E-06   -0.81290E-06  4520   0.479E-03    0.321E-03
DAV:   3    -0.851487905652E+03    0.63708E-07   -0.32139E-07  3220   0.126E-03    0.134E-03
DAV:   4    -0.851487905685E+03   -0.33368E-07   -0.15202E-07  3000   0.755E-04    0.444E-04
DAV:   5    -0.851487905694E+03   -0.86729E-08   -0.54124E-08  3120   0.567E-04    0.292E-04
DAV:   6    -0.851487905690E+03    0.42273E-08   -0.13254E-08  3000   0.293E-04
 275 F= -.85937412E+03 E0= -.85937412E+03  d E =0.374851E-04  mag=     0.0000
quench:  g(F)=  0.000E+00 g(S)=  0.000E+00 dE (1.order)= 0.000E+00
 bond charge predicted
       N       E                     dE             d eps       ncg     rms          rms(c)
DAV:   1    -0.851487861016E+03    0.44678E-04   -0.87132E-04  4480   0.507E-02    0.636E-03
DAV:   2    -0.851487861748E+03   -0.73171E-06   -0.13539E-05  4520   0.610E-03    0.406E-03
DAV:   3    -0.851487861645E+03    0.10319E-06   -0.49272E-07  3360   0.152E-03    0.178E-03
DAV:   4    -0.851487861706E+03   -0.61293E-07   -0.25467E-07  3040   0.976E-04    0.497E-04
DAV:   5    -0.851487861724E+03   -0.17761E-07   -0.93866E-08  3180   0.744E-04    0.310E-04
DAV:   6    -0.851487861712E+03    0.11823E-07   -0.25870E-08  3020   0.401E-04
 276 F= -.85937408E+03 E0= -.85937408E+03  d E =0.362435E-04  mag=    -0.0000
quench:  g(F)=  0.000E+00 g(S)=  0.000E+00 dE (1.order)= 0.000E+00
 bond charge predicted
       N       E                     dE             d eps       ncg     rms          rms(c)
DAV:   1    -0.851487822249E+03    0.39475E-04   -0.12733E-03  4480   0.613E-02    0.778E-03
DAV:   2    -0.851487823299E+03   -0.10504E-05   -0.20075E-05  4540   0.744E-03    0.496E-03
DAV:   3    -0.851487823144E+03    0.15472E-06   -0.75118E-07  3600   0.184E-03    0.217E-03
DAV:   4    -0.851487823236E+03   -0.91117E-07   -0.38662E-07  3240   0.115E-03    0.576E-04
DAV:   5    -0.851487823257E+03   -0.21872E-07   -0.10403E-07  3200   0.780E-04    0.325E-04
DAV:   6    -0.851487823246E+03    0.11438E-07   -0.33049E-08  3040   0.456E-04
 277 F= -.85937405E+03 E0= -.85937405E+03  d E =0.294650E-04  mag=     0.0000
quench:  g(F)=  0.000E+00 g(S)=  0.000E+00 dE (1.order)= 0.000E+00
 reached required accuracy - stopping structural energy minimisation
