unknown system                          
           1
    17.271038    0.000000    0.000000
    -8.635519   14.957158    0.000000
     0.000000    0.000000   15.000000
   C    H    O 
    88    10     1
Direct configuration=     1
   0.00092585  0.00043012  0.49814608
   0.00034650  0.14300025  0.49695241
   0.00005364  0.28575163  0.49675311
   0.00037004  0.42882236  0.49682280
   0.00099313  0.57200515  0.49837956
   0.00208853  0.71526976  0.49983089
   0.00203883  0.85829625  0.49953942
   0.14410079  0.00080404  0.50105849
   0.14332092  0.14321620  0.50178867
   0.14240453  0.28540780  0.50359986
   0.14243332  0.42843188  0.50286405
   0.14337254  0.57159630  0.50025603
   0.14411420  0.71479937  0.50016522
   0.14435804  0.85793327  0.50027539
   0.28664767  0.00037852  0.50188296
   0.28629694  0.14300250  0.50583611
   0.28548684  0.28655193  0.51441954
   0.28340925  0.42740987  0.52156351
   0.28554132  0.57046500  0.51245052
   0.28629263  0.71477960  0.50352273
   0.28664539  0.85779294  0.50087678
   0.42954137  0.00057259  0.50084218
   0.42924581  0.14313419  0.50344417
   0.42727236  0.28274276  0.50739063
   0.42720439  0.71602629  0.50320921
   0.42922241  0.85764939  0.50091865
   0.57211390  0.00059939  0.49856242
   0.57217400  0.14315065  0.50012197
   0.57299230  0.28662606  0.50251474
   0.57289437  0.85789561  0.49829621
   0.71498090  0.00034547  0.49661042
   0.71506140  0.14329271  0.49685288
   0.71504516  0.28616507  0.49893686
   0.71476996  0.42840624  0.50202945
   0.71916461  0.57426733  0.50530444
   0.71903699  0.71615445  0.50320529
   0.71464796  0.85775636  0.49831020
   0.85796652  0.00044885  0.49666484
   0.85752291  0.14306514  0.49535336
   0.85752960  0.28590950  0.49601005
   0.85804616  0.42902616  0.49826593
   0.85892148  0.57254273  0.50099070
   0.86045715  0.71597040  0.50152938
   0.85875649  0.85775290  0.49922875
   0.04828926  0.09561323  0.49842430
   0.04734591  0.23790295  0.49825866
   0.04735163  0.38088510  0.49794489
   0.04832487  0.52415667  0.49786937
   0.04900102  0.66732894  0.49930519
   0.04931744  0.81041952  0.49988757
   0.04896486  0.95314555  0.49937601
   0.19114951  0.09553234  0.50321986
   0.19020272  0.23810167  0.50572176
   0.18892123  0.38018434  0.50789773
   0.19024303  0.52355398  0.50401990
   0.19117869  0.66711378  0.50157271
   0.19172054  0.81019864  0.50048625
   0.19172448  0.95301507  0.50116627
   0.33415312  0.09573836  0.50373479
   0.33430172  0.23816254  0.50991166
   0.32844809  0.37843039  0.52724145
   0.32821350  0.52147079  0.52673575
   0.33430233  0.66761120  0.50698353
   0.33413481  0.80994129  0.50166277
   0.33417551  0.95285894  0.50113210
   0.47704610  0.09558964  0.50142714
   0.47618919  0.23826865  0.50440824
   0.47613729  0.80944330  0.50048617
   0.47699572  0.95301575  0.49997329
   0.61963590  0.09561475  0.49839867
   0.61995864  0.23845935  0.50049784
   0.62181621  0.37994957  0.50304405
   0.62173821  0.81342039  0.49810009
   0.61986814  0.95304653  0.49765382
   0.76256830  0.09573254  0.49592940
   0.76256231  0.23834503  0.49699006
   0.76287658  0.38132001  0.49968221
   0.76325469  0.52568886  0.50299609
   0.76530898  0.66832874  0.50372029
   0.76303357  0.80882669  0.50017926
   0.76277202  0.95298043  0.49705591
   0.90517734  0.09526870  0.49581251
   0.90493652  0.23819812  0.49540023
   0.90519561  0.38137735  0.49657236
   0.90594211  0.52458485  0.49903538
   0.90696437  0.66770066  0.50087685
   0.90687849  0.81073566  0.50001651
   0.90583958  0.95276355  0.49767925
   0.46328788  0.35534169  0.50668035
   0.39985766  0.41415635  0.54083505
   0.39908549  0.55768331  0.54358899
   0.64649876  0.67660302  0.50350743
   0.64669725  0.54106459  0.50657743
   0.58596313  0.41663418  0.50414764
   0.58587664  0.74088380  0.49795370
   0.46322415  0.67946924  0.50111659
   0.47514260  0.53123340  0.50181911
   0.50105840  0.52623894  0.40541151
   0.52608233  0.54241936  0.46507995
Direct configuration=     2
   0.00093105  0.00043162  0.49813721
   0.00034837  0.14302765  0.49695620
   0.00007346  0.28575021  0.49674545
   0.00037145  0.42880336  0.49686031
   0.00099304  0.57200915  0.49838815
   0.00211625  0.71527044  0.49982970
   0.00203575  0.85827899  0.49954291
   0.14411786  0.00079175  0.50106981
   0.14335431  0.14326154  0.50178294
   0.14240095  0.28539677  0.50360143
   0.14244857  0.42842514  0.50286280
   0.14339558  0.57161473  0.50025430
   0.14413477  0.71485092  0.50016727
   0.14435873  0.85791483  0.50027498
   0.28663807  0.00035572  0.50189045
   0.28630536  0.14301494  0.50583629
   0.28547339  0.28655447  0.51442225
   0.28338585  0.42739945  0.52155181
   0.28551381  0.57042762  0.51243368
   0.28627511  0.71478858  0.50353616
   0.28663181  0.85777221  0.50087319
   0.42951058  0.00056155  0.50084603
   0.42925215  0.14314312  0.50345790
   0.42727271  0.28273263  0.50742183
   0.42720958  0.71606716  0.50320124
   0.42921192  0.85762430  0.50090772
   0.57209951  0.00059568  0.49855157
   0.57218342  0.14316783  0.50010848
   0.57300636  0.28662256  0.50251926
   0.57290853  0.85788132  0.49830015
   0.71500094  0.00033096  0.49659686
   0.71508868  0.14331938  0.49685289
   0.71505169  0.28617575  0.49893278
   0.71478474  0.42840991  0.50202923
   0.71914877  0.57425337  0.50528977
   0.71904494  0.71619132  0.50320435
   0.71466748  0.85776412  0.49830396
   0.85792981  0.00042757  0.49665018
   0.85751175  0.14305678  0.49536915
   0.85752116  0.28590930  0.49598929
   0.85800742  0.42900886  0.49825943
   0.85890107  0.57252019  0.50098836
   0.86048146  0.71599084  0.50152979
   0.85873020  0.85773058  0.49922683
   0.04831074  0.09564515  0.49844274
   0.04736933  0.23791176  0.49826282
   0.04737315  0.38088446  0.49794489
   0.04833444  0.52415694  0.49788468
   0.04904478  0.66734331  0.49931038
   0.04934234  0.81043477  0.49989933
   0.04897206  0.95313037  0.49937014
   0.19112615  0.09552413  0.50321955
   0.19019158  0.23812364  0.50573289
   0.18891872  0.38016805  0.50786770
   0.19022997  0.52352679  0.50401119
   0.19114305  0.66712580  0.50157014
   0.19171182  0.81018296  0.50048318
   0.19171306  0.95299411  0.50116298
   0.33414147  0.09572711  0.50370099
   0.33429491  0.23819404  0.50991571
   0.32844529  0.37842513  0.52723372
   0.32821107  0.52146356  0.52672944
   0.33429268  0.66760369  0.50700761
   0.33411437  0.80996585  0.50164911
   0.33415664  0.95282727  0.50112770
   0.47705888  0.09558859  0.50143632
   0.47620330  0.23827518  0.50440851
   0.47618541  0.80948486  0.50047916
   0.47695876  0.95299480  0.49996862
   0.61963606  0.09562845  0.49840061
   0.61998587  0.23847017  0.50049345
   0.62182130  0.37994517  0.50304819
   0.62177329  0.81340759  0.49809869
   0.61986978  0.95304469  0.49763614
   0.76257770  0.09572260  0.49595459
   0.76253720  0.23836865  0.49700109
   0.76288887  0.38132812  0.49969443
   0.76323013  0.52566585  0.50299974
   0.76529918  0.66832969  0.50373649
   0.76303949  0.80883157  0.50017531
   0.76276725  0.95296516  0.49704620
   0.90517341  0.09525668  0.49582380
   0.90494780  0.23820628  0.49542783
   0.90519367  0.38139577  0.49656335
   0.90592988  0.52455637  0.49904142
   0.90696446  0.66769503  0.50088558
   0.90687046  0.81074991  0.50001782
   0.90582410  0.95274918  0.49766239
   0.46328696  0.35533862  0.50668142
   0.39986124  0.41415911  0.54080735
   0.39909037  0.55768218  0.54354899
   0.64649797  0.67660425  0.50350836
   0.64668777  0.54106058  0.50657476
   0.58596171  0.41663061  0.50414809
   0.58587754  0.74088542  0.49795544
   0.46322107  0.67947188  0.50111789
   0.47512791  0.53122404  0.50177952
   0.50106791  0.52624849  0.40539070
   0.52606087  0.54244770  0.46502341
Direct configuration=     3
   0.00093221  0.00043302  0.49813637
   0.00034966  0.14302622  0.49695669
   0.00007532  0.28575136  0.49674470
   0.00037279  0.42880508  0.49686327
   0.00099477  0.57200789  0.49838901
   0.00211732  0.71527070  0.49982982
   0.00203593  0.85828107  0.49954319
   0.14411481  0.00079048  0.50107053
   0.14335084  0.14325961  0.50178322
   0.14240129  0.28539826  0.50360188
   0.14244780  0.42842279  0.50286237
   0.14339258  0.57161326  0.50025408
   0.14413301  0.71484783  0.50016757
   0.14435993  0.85791620  0.50027555
   0.28663632  0.00035354  0.50189060
   0.28630220  0.14301517  0.50583625
   0.28547249  0.28655703  0.51442483
   0.28338741  0.42739833  0.52155499
   0.28551513  0.57042894  0.51243477
   0.28627223  0.71478879  0.50353819
   0.28662935  0.85777302  0.50087328
   0.42951052  0.00056075  0.50084635
   0.42925234  0.14314125  0.50345829
   0.42727344  0.28273505  0.50742483
   0.42720957  0.71606600  0.50320185
   0.42921150  0.85762713  0.50090684
   0.57209824  0.00059560  0.49855049
   0.57218501  0.14316841  0.50010735
   0.57300849  0.28662393  0.50251975
   0.57291491  0.85788368  0.49830012
   0.71499874  0.00033043  0.49659532
   0.71508609  0.14331804  0.49685347
   0.71505156  0.28617894  0.49893235
   0.71478255  0.42840814  0.50202963
   0.71914942  0.57425595  0.50528894
   0.71904196  0.71618656  0.50320451
   0.71466878  0.85776248  0.49830293
   0.85793293  0.00042730  0.49664833
   0.85751586  0.14305794  0.49537130
   0.85752157  0.28591233  0.49598733
   0.85801146  0.42901033  0.49825758
   0.85890055  0.57251945  0.50098870
   0.86047806  0.71598810  0.50153124
   0.85873179  0.85773293  0.49922606
   0.04831000  0.09564641  0.49844377
   0.04736731  0.23791187  0.49826268
   0.04737335  0.38088256  0.49794508
   0.04833516  0.52415641  0.49788648
   0.04904377  0.66734438  0.49931076
   0.04934073  0.81043029  0.49990005
   0.04897254  0.95312939  0.49936966
   0.19113073  0.09552676  0.50322014
   0.19019432  0.23812559  0.50573478
   0.18891845  0.38016733  0.50786657
   0.19023057  0.52352738  0.50401115
   0.19114806  0.66712886  0.50157065
   0.19171424  0.81018739  0.50048288
   0.19171515  0.95299234  0.50116336
   0.33414244  0.09572733  0.50369923
   0.33429507  0.23819150  0.50991725
   0.32844428  0.37842756  0.52723712
   0.32820904  0.52146148  0.52673314
   0.33429132  0.66760539  0.50701116
   0.33411547  0.80996174  0.50164883
   0.33415408  0.95282666  0.50112826
   0.47705615  0.09558894  0.50143744
   0.47620363  0.23827448  0.50440963
   0.47618390  0.80948349  0.50047988
   0.47695719  0.95299318  0.49996814
   0.61963889  0.09562906  0.49839988
   0.61998554  0.23847092  0.50049215
   0.62182275  0.37994501  0.50304850
   0.62177354  0.81340764  0.49809852
   0.61987091  0.95304318  0.49763440
   0.76257709  0.09572426  0.49595485
   0.76254164  0.23836759  0.49700062
   0.76288512  0.38132648  0.49969489
   0.76323077  0.52566587  0.50299926
   0.76530103  0.66833134  0.50373707
   0.76303964  0.80883413  0.50017466
   0.76276632  0.95296406  0.49704442
   0.90517104  0.09525708  0.49582442
   0.90494715  0.23820586  0.49542927
   0.90519208  0.38139259  0.49656240
   0.90592904  0.52455749  0.49904154
   0.90696683  0.66769442  0.50088562
   0.90687154  0.81074920  0.50001789
   0.90582272  0.95274837  0.49766016
   0.46328669  0.35533758  0.50668193
   0.39986111  0.41415917  0.54081081
   0.39909039  0.55768201  0.54355205
   0.64649904  0.67660562  0.50350819
   0.64668587  0.54105981  0.50657426
   0.58596191  0.41662983  0.50414814
   0.58587767  0.74088416  0.49795580
   0.46321929  0.67947391  0.50111899
   0.47512339  0.53122275  0.50176748
   0.50106701  0.52624696  0.40537520
   0.52606187  0.54245292  0.46501737
Direct configuration=     4
   0.00093433  0.00043558  0.49813441
   0.00035182  0.14302380  0.49695709
   0.00007857  0.28575334  0.49674262
   0.00037531  0.42880792  0.49686846
   0.00099794  0.57200574  0.49839035
   0.00211926  0.71527109  0.49982996
   0.00203631  0.85828447  0.49954364
   0.14410972  0.00078828  0.50107217
   0.14334491  0.14325644  0.50178408
   0.14240192  0.28540099  0.50360346
   0.14244654  0.42841916  0.50286259
   0.14338762  0.57161082  0.50025413
   0.14413013  0.71484257  0.50016847
   0.14436206  0.85791859  0.50027685
   0.28663330  0.00034975  0.50189127
   0.28629689  0.14301565  0.50583704
   0.28547109  0.28656183  0.51443260
   0.28338996  0.42739632  0.52156584
   0.28551758  0.57043142  0.51244017
   0.28626733  0.71478926  0.50354356
   0.28662515  0.85777439  0.50087396
   0.42951018  0.00055924  0.50084731
   0.42925261  0.14313800  0.50345943
   0.42727484  0.28273929  0.50743137
   0.42720931  0.71606408  0.50320468
   0.42921071  0.85763194  0.50090587
   0.57209601  0.00059530  0.49854831
   0.57218790  0.14316949  0.50010499
   0.57301236  0.28662640  0.50252056
   0.57292542  0.85788720  0.49829988
   0.71499499  0.00032964  0.49659180
   0.71508182  0.14331579  0.49685392
   0.71505156  0.28618460  0.49893087
   0.71477869  0.42840509  0.50203010
   0.71914950  0.57426015  0.50528766
   0.71903687  0.71617835  0.50320475
   0.71467125  0.85775955  0.49830068
   0.85793838  0.00042680  0.49664409
   0.85752321  0.14306019  0.49537465
   0.85752247  0.28591758  0.49598259
   0.85801863  0.42901292  0.49825327
   0.85889968  0.57251816  0.50098907
   0.86047253  0.71598340  0.50153351
   0.85873464  0.85773705  0.49922432
   0.04830866  0.09564863  0.49844547
   0.04736385  0.23791203  0.49826208
   0.04737388  0.38087949  0.49794468
   0.04833651  0.52415539  0.49788975
   0.04904212  0.66734608  0.49931140
   0.04933795  0.81042240  0.49990147
   0.04897343  0.95312783  0.49936863
   0.19113856  0.09553134  0.50322177
   0.19019917  0.23812916  0.50573947
   0.18891820  0.38016604  0.50786619
   0.19023162  0.52352838  0.50401234
   0.19115675  0.66713421  0.50157241
   0.19171848  0.81019522  0.50048267
   0.19171872  0.95298916  0.50116441
   0.33414402  0.09572765  0.50369632
   0.33429536  0.23818723  0.50992186
   0.32844194  0.37843059  0.52724941
   0.32820519  0.52145768  0.52674654
   0.33428881  0.66760853  0.50702037
   0.33411731  0.80995453  0.50164916
   0.33414948  0.95282553  0.50112975
   0.47705145  0.09558947  0.50143978
   0.47620440  0.23827343  0.50441211
   0.47618151  0.80948122  0.50048208
   0.47695436  0.95299049  0.49996750
   0.61964381  0.09563006  0.49839817
   0.61998513  0.23847239  0.50048929
   0.62182535  0.37994477  0.50304897
   0.62177429  0.81340751  0.49809825
   0.61987300  0.95304060  0.49763085
   0.76257614  0.09572735  0.49595468
   0.76254983  0.23836694  0.49699867
   0.76287869  0.38132380  0.49969519
   0.76323175  0.52566597  0.50299813
   0.76530423  0.66833430  0.50373822
   0.76303987  0.80883833  0.50017325
   0.76276484  0.95296207  0.49704043
   0.90516714  0.09525777  0.49582489
   0.90494635  0.23820543  0.49543112
   0.90518963  0.38138724  0.49655967
   0.90592783  0.52455953  0.49904126
   0.90697106  0.66769322  0.50088558
   0.90687342  0.81074787  0.50001790
   0.90582066  0.95274714  0.49765536
   0.46328625  0.35533594  0.50668311
   0.39986049  0.41415907  0.54082614
   0.39908983  0.55768162  0.54356771
   0.64650077  0.67660797  0.50350761
   0.64668233  0.54105844  0.50657325
   0.58596239  0.41662831  0.50414818
   0.58587796  0.74088181  0.49795670
   0.46321592  0.67947751  0.50112242
   0.47511188  0.53122024  0.50173436
   0.50106719  0.52624323  0.40533772
   0.52606254  0.54246151  0.46499718
Direct configuration=     5
   0.00093730  0.00043891  0.49813146
   0.00035403  0.14302111  0.49695665
   0.00008229  0.28575558  0.49673852
   0.00037890  0.42881113  0.49687431
   0.00100196  0.57200331  0.49839166
   0.00212167  0.71527133  0.49982995
   0.00203691  0.85828790  0.49954408
   0.14410435  0.00078573  0.50107489
   0.14333828  0.14325320  0.50178592
   0.14240272  0.28540447  0.50360697
   0.14244539  0.42841497  0.50286442
   0.14338243  0.57160828  0.50025507
   0.14412719  0.71483677  0.50017027
   0.14436437  0.85792040  0.50027865
   0.28662983  0.00034537  0.50189285
   0.28629113  0.14301643  0.50583971
   0.28546984  0.28656814  0.51444853
   0.28339303  0.42739369  0.52158865
   0.28552077  0.57043480  0.51245374
   0.28626238  0.71479054  0.50355334
   0.28662044  0.85777586  0.50087583
   0.42950917  0.00055727  0.50084927
   0.42925272  0.14313416  0.50346171
   0.42727672  0.28274416  0.50744198
   0.42720831  0.71606208  0.50321167
   0.42920962  0.85763722  0.50090580
   0.57209332  0.00059456  0.49854504
   0.57219149  0.14317091  0.50010131
   0.57301656  0.28662883  0.50252185
   0.57293746  0.85789061  0.49829992
   0.71499080  0.00032911  0.49658578
   0.71507744  0.14331347  0.49685335
   0.71505209  0.28619143  0.49892760
   0.71477406  0.42840163  0.50203018
   0.71915012  0.57426545  0.50528561
   0.71903118  0.71616897  0.50320497
   0.71467459  0.85775597  0.49829696
   0.85794476  0.00042613  0.49663682
   0.85753071  0.14306276  0.49537783
   0.85752445  0.28592353  0.49597433
   0.85802691  0.42901547  0.49824622
   0.85889870  0.57251666  0.50098906
   0.86046662  0.71597766  0.50153635
   0.85873817  0.85774192  0.49922135
   0.04830697  0.09565122  0.49844731
   0.04735990  0.23791216  0.49826063
   0.04737497  0.38087614  0.49794336
   0.04833825  0.52415398  0.49789398
   0.04904041  0.66734764  0.49931213
   0.04933497  0.81041363  0.49990362
   0.04897458  0.95312641  0.49936697
   0.19114721  0.09553663  0.50322494
   0.19020501  0.23813373  0.50574795
   0.18891841  0.38016451  0.50786885
   0.19023287  0.52352949  0.50401626
   0.19116605  0.66713979  0.50157655
   0.19172304  0.81020410  0.50048333
   0.19172262  0.95298524  0.50116644
   0.33414553  0.09572784  0.50369305
   0.33429571  0.23818266  0.50993130
   0.32843894  0.37843386  0.52727718
   0.32819992  0.52145268  0.52677616
   0.33428658  0.66761281  0.50703768
   0.33411928  0.80994601  0.50165119
   0.33414374  0.95282401  0.50113260
   0.47704612  0.09558987  0.50144335
   0.47620574  0.23827262  0.50441617
   0.47617928  0.80947884  0.50048661
   0.47695085  0.95298768  0.49996708
   0.61964951  0.09563106  0.49839516
   0.61998500  0.23847447  0.50048458
   0.62182876  0.37994514  0.50304969
   0.62177588  0.81340682  0.49809794
   0.61987495  0.95303837  0.49762512
   0.76257530  0.09573138  0.49595317
   0.76255937  0.23836797  0.49699413
   0.76287145  0.38132113  0.49969447
   0.76323252  0.52566631  0.50299618
   0.76530786  0.66833792  0.50373990
   0.76304012  0.80884258  0.50017096
   0.76276340  0.95295955  0.49703375
   0.90516315  0.09525853  0.49582423
   0.90494619  0.23820563  0.49543211
   0.90518754  0.38138149  0.49655419
   0.90592706  0.52456210  0.49903991
   0.90697617  0.66769151  0.50088529
   0.90687565  0.81074609  0.50001771
   0.90581911  0.95274613  0.49764764
   0.46328583  0.35533440  0.50668509
   0.39985883  0.41415856  0.54086318
   0.39908787  0.55768086  0.54360722
   0.64650246  0.67661064  0.50350630
   0.64667755  0.54105678  0.50657169
   0.58596323  0.41662614  0.50414817
   0.58587848  0.74087868  0.49795826
   0.46321131  0.67948199  0.50112956
   0.47509064  0.53121668  0.50166967
   0.50107105  0.52623674  0.40527157
   0.52605921  0.54247019  0.46495425
Direct configuration=     6
   0.00094059  0.00044247  0.49812716
   0.00035542  0.14301895  0.49695468
   0.00008551  0.28575748  0.49673178
   0.00038307  0.42881356  0.49687980
   0.00100611  0.57200124  0.49839247
   0.00212406  0.71527110  0.49982965
   0.00203771  0.85829001  0.49954437
   0.14410052  0.00078347  0.50107886
   0.14333283  0.14325114  0.50178917
   0.14240349  0.28540810  0.50361314
   0.14244500  0.42841107  0.50286879
   0.14337884  0.57160651  0.50025758
   0.14412524  0.71483211  0.50017329
   0.14436624  0.85792108  0.50028114
   0.28662668  0.00034150  0.50189571
   0.28628664  0.14301669  0.50584516
   0.28546937  0.28657507  0.51447557
   0.28339528  0.42739101  0.52162807
   0.28552420  0.57043864  0.51247927
   0.28625910  0.71479215  0.50356853
   0.28661646  0.85777690  0.50087947
   0.42950710  0.00055509  0.50085262
   0.42925239  0.14313064  0.50346553
   0.42727881  0.28274842  0.50745714
   0.42720613  0.71606082  0.50322475
   0.42920834  0.85764138  0.50090761
   0.57209134  0.00059321  0.49854102
   0.57219508  0.14317244  0.50009626
   0.57302034  0.28663081  0.50252334
   0.57294894  0.85789295  0.49830048
   0.71498735  0.00032932  0.49657677
   0.71507459  0.14331213  0.49685086
   0.71505347  0.28619809  0.49892181
   0.71476996  0.42839847  0.50202911
   0.71915095  0.57427074  0.50528290
   0.71902646  0.71616089  0.50320505
   0.71467845  0.85775243  0.49829153
   0.85795034  0.00042575  0.49662646
   0.85753689  0.14306560  0.49537963
   0.85752747  0.28592878  0.49596168
   0.85803416  0.42901760  0.49823618
   0.85889788  0.57251528  0.50098826
   0.86046226  0.71597272  0.50153941
   0.85874171  0.85774639  0.49921693
   0.04830499  0.09565341  0.49844825
   0.04735647  0.23791218  0.49825798
   0.04737685  0.38087344  0.49794085
   0.04834012  0.52415231  0.49789870
   0.04903927  0.66734825  0.49931280
   0.04933163  0.81040613  0.49990619
   0.04897578  0.95312579  0.49936464
   0.19115407  0.09554126  0.50323015
   0.19021053  0.23813859  0.50576115
   0.18891957  0.38016315  0.50787688
   0.19023406  0.52353042  0.50402439
   0.19117351  0.66714422  0.50158390
   0.19172674  0.81021200  0.50048532
   0.19172560  0.95298126  0.50116976
   0.33414624  0.09572768  0.50369026
   0.33429606  0.23817935  0.50994734
   0.32843609  0.37843705  0.52732685
   0.32819437  0.52144757  0.52682849
   0.33428479  0.66761763  0.50706534
   0.33412071  0.80993823  0.50165600
   0.33413768  0.95282181  0.50113677
   0.47704157  0.09558982  0.50144816
   0.47620769  0.23827255  0.50442210
   0.47617822  0.80947723  0.50049429
   0.47694724  0.95298571  0.49996722
   0.61965400  0.09563179  0.49839082
   0.61998601  0.23847722  0.50047830
   0.62183197  0.37994545  0.50305012
   0.62177856  0.81340520  0.49809767
   0.61987640  0.95303707  0.49761726
   0.76257535  0.09573587  0.49595004
   0.76256850  0.23837096  0.49698616
   0.76286544  0.38131964  0.49969193
   0.76323249  0.52566700  0.50299323
   0.76531092  0.66834146  0.50374204
   0.76304037  0.80884525  0.50016768
   0.76276260  0.95295694  0.49702391
   0.90516062  0.09525827  0.49582123
   0.90494738  0.23820704  0.49543095
   0.90518713  0.38137723  0.49654503
   0.90592749  0.52456471  0.49903688
   0.90698105  0.66768938  0.50088462
   0.90687770  0.81074408  0.50001719
   0.90581928  0.95274599  0.49763669
   0.46328558  0.35533370  0.50668805
   0.39985557  0.41415736  0.54093129
   0.39908357  0.55767953  0.54368127
   0.64650332  0.67661295  0.50350397
   0.64667205  0.54105520  0.50656954
   0.58596446  0.41662344  0.50414805
   0.58587925  0.74087507  0.49796068
   0.46320583  0.67948655  0.50114174
   0.47505695  0.53121219  0.50156349
   0.50108125  0.52622706  0.40517089
   0.52604987  0.54247652  0.46487789
Direct configuration=     7
   0.00094383  0.00044574  0.49812105
   0.00035542  0.14301790  0.49695048
   0.00008764  0.28575859  0.49672179
   0.00038742  0.42881434  0.49688388
   0.00100984  0.57199992  0.49839231
   0.00212606  0.71527009  0.49982889
   0.00203867  0.85828990  0.49954427
   0.14409960  0.00078200  0.50108414
   0.14333009  0.14325125  0.50179417
   0.14240413  0.28541127  0.50362263
   0.14244601  0.42840816  0.50287647
   0.14337825  0.57160610  0.50026222
   0.14412512  0.71482991  0.50017777
   0.14436711  0.85792026  0.50028446
   0.28662447  0.00033891  0.50190011
   0.28628478  0.14301662  0.50585431
   0.28547023  0.28658175  0.51451644
   0.28339555  0.42738890  0.52168802
   0.28552746  0.57044239  0.51252031
   0.28625834  0.71479384  0.50359054
   0.28661420  0.85777700  0.50088533
   0.42950375  0.00055295  0.50085763
   0.42925153  0.14312819  0.50347118
   0.42727965  0.28275065  0.50747689
   0.42720267  0.71606102  0.50324571
   0.42920709  0.85764317  0.50091214
   0.57209027  0.00059120  0.49853615
   0.57219806  0.14317388  0.50008974
   0.57302319  0.28663197  0.50252470
   0.57295816  0.85789341  0.49830167
   0.71498568  0.00033056  0.49656424
   0.71507454  0.14331266  0.49684555
   0.71505599  0.28620351  0.49891273
   0.71476726  0.42839654  0.50202643
   0.71915031  0.57427453  0.50527990
   0.71902488  0.71615747  0.50320505
   0.71468227  0.85774973  0.49828445
   0.85795361  0.00042589  0.49661225
   0.85754084  0.14306858  0.49537892
   0.85753151  0.28593231  0.49594380
   0.85803905  0.42901887  0.49822249
   0.85889744  0.57251419  0.50098621
   0.86046091  0.71596928  0.50154244
   0.85874475  0.85774941  0.49921072
   0.04830315  0.09565484  0.49844780
   0.04735445  0.23791204  0.49825372
   0.04737921  0.38087210  0.49793721
   0.04834203  0.52415049  0.49790342
   0.04903933  0.66734736  0.49931321
   0.04932878  0.81040129  0.49990906
   0.04897699  0.95312639  0.49936156
   0.19115717  0.09554410  0.50323780
   0.19021471  0.23814317  0.50577994
   0.18892212  0.38016234  0.50789237
   0.19023521  0.52353094  0.50403808
   0.19117738  0.66714647  0.50159517
   0.19172871  0.81021714  0.50048896
   0.19172671  0.95297774  0.50117461
   0.33414566  0.09572696  0.50368870
   0.33429660  0.23817957  0.50997138
   0.32843316  0.37843964  0.52740333
   0.32818914  0.52144333  0.52690989
   0.33428353  0.66762230  0.50710537
   0.33412112  0.80993291  0.50166454
   0.33413266  0.95281953  0.50114210
   0.47703894  0.09558906  0.50145412
   0.47620990  0.23827361  0.50442957
   0.47617916  0.80947703  0.50050580
   0.47694403  0.95298521  0.49996819
   0.61965632  0.09563189  0.49838476
   0.61998833  0.23848029  0.50047012
   0.62183441  0.37994553  0.50305003
   0.62178247  0.81340234  0.49809743
   0.61987751  0.95303667  0.49760827
   0.76257581  0.09573882  0.49594473
   0.76257514  0.23837522  0.49697423
   0.76286243  0.38132018  0.49968667
   0.76323129  0.52566806  0.50298905
   0.76531275  0.66834428  0.50374452
   0.76304075  0.80884513  0.50016323
   0.76276290  0.95295465  0.49701038
   0.90516047  0.09525703  0.49581497
   0.90495040  0.23820986  0.49542637
   0.90518942  0.38137589  0.49653128
   0.90592965  0.52456684  0.49903150
   0.90698479  0.66768691  0.50088340
   0.90687919  0.81074200  0.50001612
   0.90582202  0.95274710  0.49762217
   0.46328564  0.35533436  0.50669213
   0.39985022  0.41415519  0.54103898
   0.39907606  0.55767732  0.54379951
   0.64650282  0.67661429  0.50350028
   0.64666643  0.54105402  0.50656670
   0.58596609  0.41662033  0.50414773
   0.58588032  0.74087120  0.49796404
   0.46319981  0.67949043  0.50116012
   0.47500847  0.53120683  0.50140639
   0.50110007  0.52621371  0.40502993
   0.52603413  0.54248055  0.46476409
Direct configuration=     8
   0.00094676  0.00044830  0.49811313
   0.00035381  0.14301824  0.49694426
   0.00008773  0.28575849  0.49670942
   0.00039087  0.42881307  0.49688610
   0.00101274  0.57199947  0.49839135
   0.00212654  0.71526816  0.49982815
   0.00203970  0.85828724  0.49954380
   0.14410212  0.00078158  0.50109062
   0.14333164  0.14325447  0.50180092
   0.14240450  0.28541340  0.50363518
   0.14244882  0.42840674  0.50288714
   0.14338131  0.57160724  0.50026910
   0.14412716  0.71483082  0.50018365
   0.14436645  0.85791772  0.50028862
   0.28662335  0.00033792  0.50190585
   0.28628612  0.14301644  0.50586692
   0.28547265  0.28658758  0.51457050
   0.28339264  0.42738782  0.52176711
   0.28553130  0.57044560  0.51257521
   0.28626021  0.71479534  0.50361910
   0.28661408  0.85777581  0.50089322
   0.42949911  0.00055104  0.50086422
   0.42925019  0.14312731  0.50347852
   0.42727928  0.28275042  0.50750101
   0.42719805  0.71606331  0.50327441
   0.42920614  0.85764203  0.50091925
   0.57209003  0.00058861  0.49853038
   0.57219995  0.14317501  0.50008189
   0.57302478  0.28663209  0.50252595
   0.57296396  0.85789146  0.49830334
   0.71498642  0.00033276  0.49654829
   0.71507783  0.14331562  0.49683752
   0.71505971  0.28620707  0.49890046
   0.71476623  0.42839686  0.50202261
   0.71914783  0.57427613  0.50527662
   0.71902682  0.71615945  0.50320497
   0.71468626  0.85774894  0.49827564
   0.85795438  0.00042653  0.49659489
   0.85754209  0.14307145  0.49537595
   0.85753640  0.28593369  0.49592114
   0.85804083  0.42901907  0.49820547
   0.85889751  0.57251382  0.50098350
   0.86046362  0.71596826  0.50154482
   0.85874709  0.85775031  0.49920267
   0.04830190  0.09565547  0.49844600
   0.04735462  0.23791208  0.49824857
   0.04738223  0.38087237  0.49793263
   0.04834397  0.52414863  0.49790829
   0.04904099  0.66734476  0.49931340
   0.04932706  0.81039979  0.49991221
   0.04897820  0.95312819  0.49935787
   0.19115549  0.09554446  0.50324773
   0.19021690  0.23814707  0.50580405
   0.18892624  0.38016239  0.50791507
   0.19023652  0.52353096  0.50405703
   0.19117678  0.66714603  0.50161018
   0.19172844  0.81021824  0.50049421
   0.19172539  0.95297500  0.50118095
   0.33414358  0.09572555  0.50368844
   0.33429737  0.23818404  0.51000262
   0.32842934  0.37844076  0.52750435
   0.32818553  0.52144178  0.52701812
   0.33428296  0.66762627  0.50715603
   0.33412025  0.80993118  0.50167659
   0.33412921  0.95281722  0.50114850
   0.47703883  0.09558752  0.50146103
   0.47621209  0.23827560  0.50443867
   0.47618252  0.80947869  0.50052078
   0.47694153  0.95298632  0.49996983
   0.61965607  0.09563116  0.49837703
   0.61999151  0.23848318  0.50046131
   0.62183565  0.37994512  0.50304954
   0.62178755  0.81339809  0.49809719
   0.61987821  0.95303710  0.49759818
   0.76257765  0.09573988  0.49593735
   0.76257826  0.23837928  0.49695881
   0.76286357  0.38132325  0.49967867
   0.76322874  0.52566941  0.50298372
   0.76531304  0.66834594  0.50374733
   0.76304170  0.80884195  0.50015762
   0.76276441  0.95295302  0.49699319
   0.90516287  0.09525506  0.49580569
   0.90495521  0.23821386  0.49541849
   0.90519479  0.38137813  0.49651324
   0.90593359  0.52456800  0.49902393