  99  99   0   0
  0.3914025E+02  0.1727104E-08  0.1727104E-08  0.1500000E-08  0.0000000E+00
  1.000000000000000E-004
  CAR 
 unknown system                          
      6.10684291    -31.32911200  301     -2.35900521      1.00000000
    -31.329  0.0000E+00  0.0000E+00  0.0000E+00  0.0000E+00
    -31.204  0.0000E+00  0.0000E+00  0.0000E+00  0.0000E+00
    -31.080  0.0000E+00  0.0000E+00  0.0000E+00  0.0000E+00
    -30.955  0.0000E+00  0.0000E+00  0.0000E+00  0.0000E+00
    -30.830  0.0000E+00  0.0000E+00  0.0000E+00  0.0000E+00
    -30.705  0.0000E+00  0.0000E+00  0.0000E+00  0.0000E+00
    -30.580  0.0000E+00  0.0000E+00  0.0000E+00  0.0000E+00
    -30.456  0.0000E+00  0.0000E+00  0.0000E+00  0.0000E+00
    -30.331  0.0000E+00  0.0000E+00  0.0000E+00  0.0000E+00
    -30.206  0.0000E+00  0.0000E+00  0.0000E+00  0.0000E+00
    -30.081  0.0000E+00  0.0000E+00  0.0000E+00  0.0000E+00
    -29.956  0.0000E+00  0.0000E+00  0.0000E+00  0.0000E+00
    -29.832  0.3061E-10  0.3061E-10  0.3820E-11  0.3820E-11
    -29.707  0.9880E-04  0.9880E-04  0.1233E-04  0.1233E-04
    -29.582  0.7115E-02  0.7115E-02  0.9002E-03  0.9002E-03
    -29.457  0.7997E-03  0.7997E-03  0.1000E-02  0.1000E-02
    -29.333  0.5979E-08  0.5979E-08  0.1000E-02  0.1000E-02
    -29.208  0.0000E+00  0.0000E+00  0.1000E-02  0.1000E-02
    -29.083  0.0000E+00  0.0000E+00  0.1000E-02  0.1000E-02
    -28.958  0.0000E+00  0.0000E+00  0.1000E-02  0.1000E-02
    -28.833  0.0000E+00  0.0000E+00  0.1000E-02  0.1000E-02
    -28.709  0.0000E+00  0.0000E+00  0.1000E-02  0.1000E-02
    -28.584  0.0000E+00  0.0000E+00  0.1000E-02  0.1000E-02
    -28.459  0.0000E+00  0.0000E+00  0.1000E-02  0.1000E-02
    -28.334  0.0000E+00  0.0000E+00  0.1000E-02  0.1000E-02
    -28.209  0.0000E+00  0.0000E+00  0.1000E-02  0.1000E-02
    -28.085  0.0000E+00  0.0000E+00  0.1000E-02  0.1000E-02
    -27.960  0.0000E+00  0.0000E+00  0.1000E-02  0.1000E-02
    -27.835  0.0000E+00  0.0000E+00  0.1000E-02  0.1000E-02
    -27.710  0.0000E+00  0.0000E+00  0.1000E-02  0.1000E-02
    -27.586  0.0000E+00  0.0000E+00  0.1000E-02  0.1000E-02
    -27.461  0.0000E+00  0.0000E+00  0.1000E-02  0.1000E-02
    -27.336  0.0000E+00  0.0000E+00  0.1000E-02  0.1000E-02
    -27.211  0.0000E+00  0.0000E+00  0.1000E-02  0.1000E-02
    -27.086  0.0000E+00  0.0000E+00  0.1000E-02  0.1000E-02
    -26.962  0.0000E+00  0.0000E+00  0.1000E-02  0.1000E-02
    -26.837  0.0000E+00  0.0000E+00  0.1000E-02  0.1000E-02
    -26.712  0.0000E+00  0.0000E+00  0.1000E-02  0.1000E-02
    -26.587  0.0000E+00  0.0000E+00  0.1000E-02  0.1000E-02
    -26.462  0.0000E+00  0.0000E+00  0.1000E-02  0.1000E-02
    -26.338  0.0000E+00  0.0000E+00  0.1000E-02  0.1000E-02
    -26.213  0.0000E+00  0.0000E+00  0.1000E-02  0.1000E-02
    -26.088  0.0000E+00  0.0000E+00  0.1000E-02  0.1000E-02
    -25.963  0.0000E+00  0.0000E+00  0.1000E-02  0.1000E-02
    -25.839  0.0000E+00  0.0000E+00  0.1000E-02  0.1000E-02
    -25.714  0.0000E+00  0.0000E+00  0.1000E-02  0.1000E-02
    -25.589  0.0000E+00  0.0000E+00  0.1000E-02  0.1000E-02
    -25.464  0.0000E+00  0.0000E+00  0.1000E-02  0.1000E-02
    -25.339  0.0000E+00  0.0000E+00  0.1000E-02  0.1000E-02
    -25.215  0.0000E+00  0.0000E+00  0.1000E-02  0.1000E-02
    -25.090  0.0000E+00  0.0000E+00  0.1000E-02  0.1000E-02
    -24.965  0.0000E+00  0.0000E+00  0.1000E-02  0.1000E-02
    -24.840  0.0000E+00  0.0000E+00  0.1000E-02  0.1000E-02
    -24.715  0.0000E+00  0.0000E+00  0.1000E-02  0.1000E-02
    -24.591  0.0000E+00  0.0000E+00  0.1000E-02  0.1000E-02
    -24.466  0.0000E+00  0.0000E+00  0.1000E-02  0.1000E-02
    -24.341  0.0000E+00  0.0000E+00  0.1000E-02  0.1000E-02
    -24.216  0.1084E-14  0.1084E-14  0.1000E-02  0.1000E-02
    -24.091  0.6314E-06  0.6314E-06  0.1000E-02  0.1000E-02
    -23.967  0.3217E-02  0.3217E-02  0.1402E-02  0.1402E-02
    -23.842  0.4792E-02  0.4792E-02  0.1999E-02  0.1999E-02
    -23.717  0.4157E-05  0.4157E-05  0.2000E-02  0.2000E-02
    -23.592  0.3920E-13  0.3920E-13  0.2000E-02  0.2000E-02
    -23.468  0.0000E+00  0.0000E+00  0.2000E-02  0.2000E-02
    -23.343  0.0000E+00  0.0000E+00  0.2000E-02  0.2000E-02
    -23.218  0.0000E+00  0.0000E+00  0.2000E-02  0.2000E-02
    -23.093  0.0000E+00  0.0000E+00  0.2000E-02  0.2000E-02
    -22.968  0.0000E+00  0.0000E+00  0.2000E-02  0.2000E-02
    -22.844  0.0000E+00  0.0000E+00  0.2000E-02  0.2000E-02
    -22.719  0.0000E+00  0.0000E+00  0.2000E-02  0.2000E-02
    -22.594  0.0000E+00  0.0000E+00  0.2000E-02  0.2000E-02
    -22.469  0.0000E+00  0.0000E+00  0.2000E-02  0.2000E-02
    -22.344  0.0000E+00  0.0000E+00  0.2000E-02  0.2000E-02
    -22.220  0.0000E+00  0.0000E+00  0.2000E-02  0.2000E-02
    -22.095  0.0000E+00  0.0000E+00  0.2000E-02  0.2000E-02
    -21.970  0.3237E-11  0.3237E-11  0.2000E-02  0.2000E-02
    -21.845  0.1701E-04  0.1701E-04  0.2002E-02  0.2002E-02
    -21.721  0.3162E-02  0.3162E-02  0.2397E-02  0.2397E-02
    -21.596  0.8668E-02  0.8668E-02  0.3478E-02  0.3478E-02
    -21.471  0.2345E-02  0.2345E-02  0.3771E-02  0.3771E-02
    -21.346  0.8977E-02  0.8977E-02  0.4891E-02  0.4891E-02
    -21.221  0.8249E-02  0.8249E-02  0.5921E-02  0.5921E-02
    -21.097  0.3926E-02  0.3926E-02  0.6410E-02  0.6410E-02
    -20.972  0.3065E-02  0.3065E-02  0.6793E-02  0.6793E-02
    -20.847  0.1312E-01  0.1312E-01  0.8430E-02  0.8430E-02
    -20.722  0.8743E-02  0.8743E-02  0.9521E-02  0.9521E-02
    -20.597  0.1847E-02  0.1847E-02  0.9751E-02  0.9751E-02
    -20.473  0.3729E-02  0.3729E-02  0.1022E-01  0.1022E-01
    -20.348  0.7483E-02  0.7483E-02  0.1115E-01  0.1115E-01
    -20.223  0.1206E-01  0.1206E-01  0.1266E-01  0.1266E-01
    -20.098  0.1074E-01  0.1074E-01  0.1400E-01  0.1400E-01
    -19.974  0.2036E-02  0.2036E-02  0.1425E-01  0.1425E-01
    -19.849  0.3330E-02  0.3330E-02  0.1467E-01  0.1467E-01
    -19.724  0.8227E-02  0.8227E-02  0.1569E-01  0.1569E-01
    -19.599  0.3032E-02  0.3032E-02  0.1607E-01  0.1607E-01
    -19.474  0.1194E-01  0.1194E-01  0.1756E-01  0.1756E-01
    -19.350  0.1401E-01  0.1401E-01  0.1931E-01  0.1931E-01
    -19.225  0.3503E-02  0.3503E-02  0.1975E-01  0.1975E-01
    -19.100  0.4064E-02  0.4064E-02  0.2025E-01  0.2025E-01
    -18.975  0.7917E-02  0.7917E-02  0.2124E-01  0.2124E-01
    -18.850  0.5550E-02  0.5550E-02  0.2193E-01  0.2193E-01
    -18.726  0.3368E-02  0.3368E-02  0.2235E-01  0.2235E-01
    -18.601  0.6931E-02  0.6931E-02  0.2322E-01  0.2322E-01
    -18.476  0.1564E-01  0.1564E-01  0.2517E-01  0.2517E-01
    -18.351  0.7886E-02  0.7886E-02  0.2615E-01  0.2615E-01
    -18.227  0.4941E-02  0.4941E-02  0.2677E-01  0.2677E-01
    -18.102  0.7699E-02  0.7699E-02  0.2773E-01  0.2773E-01
    -17.977  0.7888E-02  0.7888E-02  0.2872E-01  0.2872E-01
    -17.852  0.6359E-02  0.6359E-02  0.2951E-01  0.2951E-01
    -17.727  0.4459E-02  0.4459E-02  0.3007E-01  0.3007E-01
    -17.603  0.3486E-02  0.3486E-02  0.3050E-01  0.3050E-01
    -17.478  0.6952E-02  0.6952E-02  0.3137E-01  0.3137E-01
    -17.353  0.1748E-01  0.1748E-01  0.3355E-01  0.3355E-01
    -17.228  0.8314E-02  0.8314E-02  0.3459E-01  0.3459E-01
    -17.103  0.1140E-01  0.1140E-01  0.3601E-01  0.3601E-01
    -16.979  0.4073E-02  0.4073E-02  0.3652E-01  0.3652E-01
    -16.854  0.8121E-02  0.8121E-02  0.3753E-01  0.3753E-01
    -16.729  0.9667E-02  0.9667E-02  0.3874E-01  0.3874E-01
    -16.604  0.3157E-02  0.3157E-02  0.3913E-01  0.3913E-01
    -16.480  0.6417E-02  0.6417E-02  0.3993E-01  0.3993E-01
    -16.355  0.7245E-02  0.7245E-02  0.4084E-01  0.4084E-01
    -16.230  0.1571E-01  0.1571E-01  0.4280E-01  0.4280E-01
    -16.105  0.7896E-02  0.7896E-02  0.4378E-01  0.4378E-01
    -15.980  0.2175E-02  0.2175E-02  0.4405E-01  0.4405E-01
    -15.856  0.3086E-02  0.3086E-02  0.4444E-01  0.4444E-01
    -15.731  0.2524E-02  0.2524E-02  0.4475E-01  0.4475E-01
    -15.606  0.3539E-02  0.3539E-02  0.4519E-01  0.4519E-01
    -15.481  0.1161E-02  0.1161E-02  0.4534E-01  0.4534E-01
    -15.356  0.7891E-02  0.7891E-02  0.4632E-01  0.4632E-01
    -15.232  0.8143E-02  0.8143E-02  0.4734E-01  0.4734E-01
    -15.107  0.7541E-02  0.7541E-02  0.4828E-01  0.4828E-01
    -14.982  0.5982E-02  0.5982E-02  0.4903E-01  0.4903E-01
    -14.857  0.1440E-01  0.1440E-01  0.5082E-01  0.5082E-01
    -14.733  0.9390E-02  0.9390E-02  0.5200E-01  0.5200E-01
    -14.608  0.2494E-02  0.2494E-02  0.5231E-01  0.5231E-01
    -14.483  0.1118E-01  0.1118E-01  0.5370E-01  0.5370E-01
    -14.358  0.1112E-01  0.1112E-01  0.5509E-01  0.5509E-01
    -14.233  0.7857E-02  0.7857E-02  0.5607E-01  0.5607E-01
    -14.109  0.8961E-02  0.8961E-02  0.5719E-01  0.5719E-01
    -13.984  0.1205E-01  0.1205E-01  0.5869E-01  0.5869E-01
    -13.859  0.4649E-02  0.4649E-02  0.5927E-01  0.5927E-01
    -13.734  0.4748E-02  0.4748E-02  0.5986E-01  0.5986E-01
    -13.609  0.5589E-02  0.5589E-02  0.6056E-01  0.6056E-01
    -13.485  0.8396E-02  0.8396E-02  0.6161E-01  0.6161E-01
    -13.360  0.8506E-02  0.8506E-02  0.6267E-01  0.6267E-01
    -13.235  0.7452E-02  0.7452E-02  0.6360E-01  0.6360E-01
    -13.110  0.7469E-02  0.7469E-02  0.6453E-01  0.6453E-01
    -12.985  0.5903E-02  0.5903E-02  0.6527E-01  0.6527E-01
    -12.861  0.2956E-02  0.2956E-02  0.6564E-01  0.6564E-01
    -12.736  0.7945E-02  0.7945E-02  0.6663E-01  0.6663E-01
    -12.611  0.7356E-02  0.7356E-02  0.6755E-01  0.6755E-01
    -12.486  0.9968E-02  0.9968E-02  0.6879E-01  0.6879E-01
    -12.362  0.1422E-01  0.1422E-01  0.7057E-01  0.7057E-01
    -12.237  0.1162E-01  0.1162E-01  0.7202E-01  0.7202E-01
    -12.112  0.7544E-02  0.7544E-02  0.7296E-01  0.7296E-01
    -11.987  0.5557E-02  0.5557E-02  0.7365E-01  0.7365E-01
    -11.862  0.6563E-02  0.6563E-02  0.7447E-01  0.7447E-01
    -11.738  0.1147E-01  0.1147E-01  0.7590E-01  0.7590E-01
    -11.613  0.8715E-02  0.8715E-02  0.7699E-01  0.7699E-01
    -11.488  0.7980E-02  0.7980E-02  0.7799E-01  0.7799E-01
    -11.363  0.1241E-01  0.1241E-01  0.7953E-01  0.7953E-01
    -11.238  0.1090E-01  0.1090E-01  0.8089E-01  0.8089E-01
    -11.114  0.1379E-01  0.1379E-01  0.8261E-01  0.8261E-01
    -10.989  0.7948E-02  0.7948E-02  0.8361E-01  0.8361E-01
    -10.864  0.8249E-02  0.8249E-02  0.8463E-01  0.8463E-01
    -10.739  0.1621E-01  0.1621E-01  0.8666E-01  0.8666E-01
    -10.615  0.5674E-02  0.5674E-02  0.8737E-01  0.8737E-01
    -10.490  0.6644E-02  0.6644E-02  0.8819E-01  0.8819E-01
    -10.365  0.3708E-02  0.3708E-02  0.8866E-01  0.8866E-01
    -10.240  0.1353E-01  0.1353E-01  0.9035E-01  0.9035E-01
    -10.115  0.1284E-01  0.1284E-01  0.9195E-01  0.9195E-01
     -9.991  0.1600E-01  0.1600E-01  0.9394E-01  0.9394E-01
     -9.866  0.1703E-01  0.1703E-01  0.9607E-01  0.9607E-01
     -9.741  0.1706E-01  0.1706E-01  0.9820E-01  0.9820E-01
     -9.616  0.1896E-01  0.1896E-01  0.1006E+00  0.1006E+00
     -9.491  0.1165E-01  0.1165E-01  0.1020E+00  0.1020E+00
     -9.367  0.1514E-01  0.1514E-01  0.1039E+00  0.1039E+00
     -9.242  0.1811E-01  0.1811E-01  0.1062E+00  0.1062E+00
     -9.117  0.1563E-01  0.1563E-01  0.1081E+00  0.1081E+00
     -8.992  0.2166E-01  0.2166E-01  0.1108E+00  0.1108E+00
     -8.868  0.2224E-01  0.2224E-01  0.1136E+00  0.1136E+00
     -8.743  0.3185E-01  0.3185E-01  0.1176E+00  0.1176E+00
     -8.618  0.2554E-01  0.2554E-01  0.1208E+00  0.1208E+00
     -8.493  0.1672E-01  0.1672E-01  0.1228E+00  0.1228E+00
     -8.368  0.1754E-01  0.1754E-01  0.1250E+00  0.1250E+00
     -8.244  0.1966E-01  0.1966E-01  0.1275E+00  0.1275E+00
     -8.119  0.2034E-01  0.2034E-01  0.1300E+00  0.1300E+00
     -7.994  0.2503E-01  0.2503E-01  0.1331E+00  0.1331E+00
     -7.869  0.1726E-01  0.1726E-01  0.1353E+00  0.1353E+00
     -7.744  0.1694E-01  0.1694E-01  0.1374E+00  0.1374E+00
     -7.620  0.1859E-01  0.1859E-01  0.1397E+00  0.1397E+00
     -7.495  0.1526E-01  0.1526E-01  0.1416E+00  0.1416E+00
     -7.370  0.6923E-02  0.6923E-02  0.1425E+00  0.1425E+00
     -7.245  0.9962E-02  0.9962E-02  0.1437E+00  0.1437E+00
     -7.121  0.2680E-01  0.2680E-01  0.1471E+00  0.1471E+00
     -6.996  0.1775E-01  0.1775E-01  0.1493E+00  0.1493E+00
     -6.871  0.1733E-01  0.1733E-01  0.1515E+00  0.1515E+00
     -6.746  0.1088E-01  0.1088E-01  0.1528E+00  0.1528E+00
     -6.621  0.1074E-01  0.1074E-01  0.1542E+00  0.1542E+00
     -6.497  0.1049E-01  0.1049E-01  0.1555E+00  0.1555E+00
     -6.372  0.1314E-01  0.1314E-01  0.1571E+00  0.1571E+00
     -6.247  0.1122E-01  0.1122E-01  0.1585E+00  0.1585E+00
     -6.122  0.1683E-01  0.1683E-01  0.1606E+00  0.1606E+00
     -5.997  0.1914E-01  0.1914E-01  0.1630E+00  0.1630E+00
     -5.873  0.1449E-01  0.1449E-01  0.1648E+00  0.1648E+00
     -5.748  0.1647E-01  0.1647E-01  0.1669E+00  0.1669E+00
     -5.623  0.1596E-01  0.1596E-01  0.1689E+00  0.1689E+00
     -5.498  0.1077E-01  0.1077E-01  0.1702E+00  0.1702E+00
     -5.374  0.8023E-02  0.8023E-02  0.1712E+00  0.1712E+00
     -5.249  0.4045E-02  0.4045E-02  0.1717E+00  0.1717E+00
     -5.124  0.2139E-02  0.2139E-02  0.1720E+00  0.1720E+00
     -4.999  0.8681E-02  0.8681E-02  0.1731E+00  0.1731E+00
     -4.874  0.2261E-01  0.2261E-01  0.1759E+00  0.1759E+00
     -4.750  0.1535E-01  0.1535E-01  0.1778E+00  0.1778E+00
     -4.625  0.6809E-02  0.6809E-02  0.1786E+00  0.1786E+00
     -4.500  0.8989E-02  0.8989E-02  0.1798E+00  0.1798E+00
     -4.375  0.3880E-02  0.3880E-02  0.1802E+00  0.1802E+00
     -4.250  0.1213E-02  0.1213E-02  0.1804E+00  0.1804E+00
     -4.126  0.8714E-02  0.8714E-02  0.1815E+00  0.1815E+00
     -4.001  0.6283E-02  0.6283E-02  0.1823E+00  0.1823E+00
     -3.876  0.7321E-02  0.7321E-02  0.1832E+00  0.1832E+00
     -3.751  0.7778E-02  0.7778E-02  0.1842E+00  0.1842E+00
     -3.627  0.6199E-02  0.6199E-02  0.1849E+00  0.1849E+00
     -3.502  0.5604E-03  0.5604E-03  0.1850E+00  0.1850E+00
     -3.377  0.9917E-04  0.9917E-04  0.1850E+00  0.1850E+00
     -3.252  0.2074E-02  0.2074E-02  0.1853E+00  0.1853E+00
     -3.127  0.6371E-02  0.6371E-02  0.1861E+00  0.1861E+00
     -3.003  0.1603E-02  0.1603E-02  0.1863E+00  0.1863E+00
     -2.878  0.1830E-02  0.1830E-02  0.1865E+00  0.1865E+00
     -2.753  0.4366E-04  0.4366E-04  0.1865E+00  0.1865E+00
     -2.628  0.6978E-04  0.6978E-04  0.1865E+00  0.1865E+00
     -2.503  0.3610E-02  0.3610E-02  0.1870E+00  0.1870E+00
     -2.379  0.3266E-03  0.3266E-03  0.1870E+00  0.1870E+00
     -2.254  0.2238E-04  0.2238E-04  0.1870E+00  0.1870E+00
     -2.129  0.3241E-02  0.3241E-02  0.1874E+00  0.1874E+00
     -2.004  0.7437E-03  0.7437E-03  0.1875E+00  0.1875E+00
     -1.879  0.6563E-07  0.6563E-07  0.1875E+00  0.1875E+00
     -1.755  0.5576E-03  0.5576E-03  0.1876E+00  0.1876E+00
     -1.630  0.3022E-02  0.3022E-02  0.1879E+00  0.1879E+00
     -1.505  0.5117E-02  0.5117E-02  0.1886E+00  0.1886E+00
     -1.380  0.3315E-02  0.3315E-02  0.1890E+00  0.1890E+00
     -1.256  0.3677E-04  0.3677E-04  0.1890E+00  0.1890E+00
     -1.131  0.4869E-02  0.4869E-02  0.1896E+00  0.1896E+00
     -1.006  0.6854E-02  0.6854E-02  0.1905E+00  0.1905E+00
     -0.881  0.2788E-02  0.2788E-02  0.1908E+00  0.1908E+00
     -0.756  0.1304E-01  0.1304E-01  0.1924E+00  0.1924E+00
     -0.632  0.1185E-01  0.1185E-01  0.1939E+00  0.1939E+00
     -0.507  0.6061E-02  0.6061E-02  0.1947E+00  0.1947E+00
     -0.382  0.1200E-01  0.1200E-01  0.1962E+00  0.1962E+00
     -0.257  0.6504E-02  0.6504E-02  0.1970E+00  0.1970E+00
     -0.132  0.3993E-02  0.3993E-02  0.1975E+00  0.1975E+00
     -0.008  0.8926E-02  0.8926E-02  0.1986E+00  0.1986E+00
      0.117  0.7967E-02  0.7967E-02  0.1996E+00  0.1996E+00
      0.242  0.1173E-01  0.1173E-01  0.2011E+00  0.2011E+00
      0.367  0.1071E-01  0.1071E-01  0.2024E+00  0.2024E+00
      0.491  0.4294E-02  0.4294E-02  0.2029E+00  0.2029E+00
      0.616  0.3393E-02  0.3393E-02  0.2034E+00  0.2034E+00
      0.741  0.1135E-01  0.1135E-01  0.2048E+00  0.2048E+00
      0.866  0.8807E-02  0.8807E-02  0.2059E+00  0.2059E+00
      0.991  0.6784E-02  0.6784E-02  0.2067E+00  0.2067E+00
      1.115  0.1033E-01  0.1033E-01  0.2080E+00  0.2080E+00
      1.240  0.6341E-02  0.6341E-02  0.2088E+00  0.2088E+00
      1.365  0.7948E-02  0.7948E-02  0.2098E+00  0.2098E+00
      1.490  0.1089E-01  0.1089E-01  0.2111E+00  0.2111E+00
      1.615  0.1845E-01  0.1844E-01  0.2134E+00  0.2134E+00
      1.739  0.1792E-01  0.1792E-01  0.2157E+00  0.2157E+00
      1.864  0.9813E-02  0.9813E-02  0.2169E+00  0.2169E+00
      1.989  0.8905E-02  0.8905E-02  0.2180E+00  0.2180E+00
      2.114  0.2429E-01  0.2429E-01  0.2210E+00  0.2210E+00
      2.238  0.1543E-01  0.1543E-01  0.2230E+00  0.2230E+00
      2.363  0.1822E-01  0.1822E-01  0.2252E+00  0.2252E+00
      2.488  0.2652E-01  0.2652E-01  0.2286E+00  0.2286E+00
      2.613  0.8330E-02  0.8331E-02  0.2296E+00  0.2296E+00
      2.738  0.1208E-01  0.1207E-01  0.2311E+00  0.2311E+00
      2.862  0.2678E-01  0.2678E-01  0.2344E+00  0.2344E+00
      2.987  0.3521E-01  0.3521E-01  0.2388E+00  0.2388E+00
      3.112  0.2133E-01  0.2133E-01  0.2415E+00  0.2415E+00
      3.237  0.2243E-01  0.2243E-01  0.2443E+00  0.2443E+00
      3.362  0.2324E-01  0.2324E-01  0.2472E+00  0.2472E+00
      3.486  0.2158E-01  0.2158E-01  0.2499E+00  0.2499E+00
      3.611  0.1899E-01  0.1899E-01  0.2523E+00  0.2523E+00
      3.736  0.1543E-01  0.1543E-01  0.2542E+00  0.2542E+00
      3.861  0.2949E-01  0.2949E-01  0.2579E+00  0.2579E+00
      3.985  0.2032E-01  0.2032E-01  0.2604E+00  0.2604E+00
      4.110  0.2114E-01  0.2114E-01  0.2630E+00  0.2630E+00
      4.235  0.1311E-01  0.1311E-01  0.2647E+00  0.2647E+00
      4.360  0.3012E-01  0.3012E-01  0.2684E+00  0.2684E+00
      4.485  0.1249E-01  0.1249E-01  0.2700E+00  0.2700E+00
      4.609  0.4293E-04  0.4295E-04  0.2700E+00  0.2700E+00
      4.734  0.9565E-11  0.9573E-11  0.2700E+00  0.2700E+00
      4.859  0.0000E+00  0.0000E+00  0.2700E+00  0.2700E+00
      4.984  0.0000E+00  0.0000E+00  0.2700E+00  0.2700E+00
      5.109  0.0000E+00  0.0000E+00  0.2700E+00  0.2700E+00
      5.233  0.0000E+00  0.0000E+00  0.2700E+00  0.2700E+00
      5.358  0.0000E+00  0.0000E+00  0.2700E+00  0.2700E+00
      5.483  0.0000E+00  0.0000E+00  0.2700E+00  0.2700E+00
      5.608  0.0000E+00  0.0000E+00  0.2700E+00  0.2700E+00
      5.732  0.0000E+00  0.0000E+00  0.2700E+00  0.2700E+00
      5.857  0.0000E+00  0.0000E+00  0.2700E+00  0.2700E+00
      5.982  0.0000E+00  0.0000E+00  0.2700E+00  0.2700E+00
      6.107  0.0000E+00  0.0000E+00  0.2700E+00  0.2700E+00
