<?xml version="1.0" encoding="ISO-8859-1"?>
<modeling>
 <generator>
  <i name="program" type="string">vasp </i>
  <i name="version" type="string">6.4.2  </i>
  <i name="subversion" type="string">20Jul23 (build Aug 26 2025 15:10:52) complex                          parallel </i>
  <i name="platform" type="string">LinuxIFC </i>
  <i name="date" type="string">2025 12 16 </i>
  <i name="time" type="string">07:56:44 </i>
 </generator>
 <incar>
  <i type="int" name="ISTART">     0</i>
  <i type="string" name="ALGO">Normal</i>
  <i type="logical" name="ADDGRID"> T  </i>
  <i type="int" name="ISPIN">     2</i>
  <i type="int" name="IMIX">     4</i>
  <i name="AMIX">      0.20000000</i>
  <i name="BMIX">      0.00010000</i>
  <i name="AMIX_MAG">      0.80000000</i>
  <i name="BMIX_MAG">      0.00010000</i>
  <i type="int" name="ICHARG">     2</i>
  <i type="int" name="NELM">   200</i>
  <i type="int" name="IBRION">     3</i>
  <i name="EDIFF">      0.00000100</i>
  <i name="EDIFFG">     -0.03000000</i>
  <i type="int" name="NSW">  1000</i>
  <i type="int" name="ISIF">     2</i>
  <i type="int" name="ISYM">     0</i>
  <i name="ENCUT">    520.00000000</i>
  <i name="POTIM">      0.00000000</i>
  <v name="MAGMOM">      0.60000000      0.60000000      0.60000000      0.60000000      0.60000000      0.60000000      0.60000000      0.60000000      0.60000000      0.60000000      0.60000000      0.60000000      0.60000000      0.60000000      0.60000000      0.60000000      0.60000000      0.60000000      0.60000000      0.60000000
      0.60000000      0.60000000      0.60000000      0.60000000      0.60000000      0.60000000      0.60000000      0.60000000      0.60000000      0.60000000      0.60000000      0.60000000      0.60000000      0.60000000      0.60000000      0.60000000      0.60000000      0.60000000      0.60000000      0.60000000
      0.60000000      0.60000000      0.60000000      0.60000000      0.60000000      0.60000000      0.60000000      0.60000000      0.60000000      0.60000000      0.60000000      0.60000000      0.60000000      0.60000000      0.60000000      0.60000000      0.60000000      0.60000000      0.60000000      0.60000000
      0.60000000      0.60000000      0.60000000      0.60000000      0.60000000      0.60000000      0.60000000      0.60000000      0.60000000      0.60000000      0.60000000      0.60000000      0.60000000      0.60000000      0.60000000      0.60000000      0.60000000      0.60000000      0.60000000      0.60000000
      0.60000000      0.60000000      0.60000000      0.60000000      0.60000000      0.60000000      0.60000000      0.60000000      0.60000000      0.60000000      0.60000000      0.60000000      0.60000000      0.60000000      0.60000000      0.60000000      0.60000000      0.60000000      0.60000000</v>
  <i type="string" name="LREAL">Auto</i>
  <i type="int" name="ISMEAR">     0</i>
  <i name="SIGMA">      0.05000000</i>
  <i type="logical" name="LWAVE"> F  </i>
  <i type="logical" name="LCHARG"> F  </i>
  <i type="logical" name="LASPH"> T  </i>
  <i type="int" name="IVDW">    12</i>
  <i name="SPRING">     -5.00000000</i>
 </incar>
 <primitive_cell>
  <structure name="primitive_cell" >
   <crystal>
    <varray name="basis" >
     <v>      17.27103806       0.00000000       0.00000000 </v>
     <v>      -8.63551903      14.95715771       0.00000000 </v>
     <v>       0.00000000       0.00000000      15.00000000 </v>
    </varray>
    <i name="volume">   3874.88459904 </i>
    <varray name="rec_basis" >
     <v>       0.05790040       0.03342881       0.00000000 </v>
     <v>       0.00000000       0.06685762       0.00000000 </v>
     <v>       0.00000000       0.00000000       0.06666667 </v>
    </varray>
   </crystal>
   <varray name="positions" >
    <v>       0.99916194       0.00041213       0.49500106 </v>
    <v>       0.99879727       0.14314411       0.49614708 </v>
    <v>       0.99876333       0.28605228       0.49772963 </v>
    <v>       0.99913739       0.42913578       0.49855826 </v>
    <v>       0.99980556       0.57222856       0.49844244 </v>
    <v>       0.00076660       0.71547356       0.49657728 </v>
    <v>       0.00037253       0.85840301       0.49486881 </v>
    <v>       0.14245427       0.00108129       0.50136403 </v>
    <v>       0.14175574       0.14349020       0.50139215 </v>
    <v>       0.14102632       0.28571357       0.50247090 </v>
    <v>       0.14120169       0.42884772       0.50342574 </v>
    <v>       0.14222891       0.57192461       0.50366429 </v>
    <v>       0.14276958       0.71512682       0.50345532 </v>
    <v>       0.14281772       0.85826473       0.50209909 </v>
    <v>       0.28517078       0.00080213       0.50455547 </v>
    <v>       0.28496174       0.14347161       0.50513756 </v>
    <v>       0.28470713       0.28750666       0.50790855 </v>
    <v>       0.28269260       0.42803809       0.51074550 </v>
    <v>       0.28511944       0.57091631       0.50929141 </v>
    <v>       0.28511480       0.71529129       0.50684925 </v>
    <v>       0.28521549       0.85826639       0.50535735 </v>
    <v>       0.42816475       0.00111727       0.50402912 </v>
    <v>       0.42795189       0.14363565       0.50413654 </v>
    <v>       0.42618608       0.28330119       0.50604108 </v>
    <v>       0.42626698       0.71699442       0.50581163 </v>
    <v>       0.42786921       0.85835675       0.50431743 </v>
    <v>       0.57078633       0.00132034       0.49978575 </v>
    <v>       0.57086387       0.14368986       0.50032308 </v>
    <v>       0.57181693       0.28721443       0.49942965 </v>
    <v>       0.57149372       0.85902111       0.49703046 </v>
    <v>       0.71360109       0.00070745       0.49299995 </v>
    <v>       0.71374081       0.14365251       0.49635381 </v>
    <v>       0.71380018       0.28646686       0.49561280 </v>
    <v>       0.71361606       0.42854021       0.48954719 </v>
    <v>       0.71882917       0.57369757       0.46910964 </v>
    <v>       0.72143659       0.71740732       0.46535193 </v>
    <v>       0.71246898       0.85775770       0.48407897 </v>
    <v>       0.85634033       0.00056631       0.48991694 </v>
    <v>       0.85617724       0.14337327       0.49398958 </v>
    <v>       0.85631476       0.28619897       0.49538798 </v>
    <v>       0.85687179       0.42919085       0.49378463 </v>
    <v>       0.85784768       0.57258501       0.48979394 </v>
    <v>       0.85954822       0.71601365       0.48415245 </v>
    <v>       0.85697599       0.85756111       0.48539201 </v>
    <v>       0.04665288       0.09569948       0.49748592 </v>
    <v>       0.04590248       0.23807829       0.49863183 </v>
    <v>       0.04606833       0.38122705       0.49983257 </v>
    <v>       0.04717950       0.52446047       0.50035831 </v>
    <v>       0.04769755       0.66756930       0.49988884 </v>
    <v>       0.04775176       0.81062074       0.49809017 </v>
    <v>       0.04728379       0.95327769       0.49728972 </v>
    <v>       0.18968577       0.09590080       0.50298835 </v>
    <v>       0.18898503       0.23856831       0.50382897 </v>
    <v>       0.18760671       0.38052333       0.50514767 </v>
    <v>       0.18935392       0.52401444       0.50536125 </v>
    <v>       0.18994924       0.66749863       0.50522998 </v>
    <v>       0.19027401       0.81060276       0.50407267 </v>
    <v>       0.19018529       0.95338447       0.50298182 </v>
    <v>       0.33280333       0.09619470       0.50491614 </v>
    <v>       0.33317487       0.23871335       0.50676736 </v>
    <v>       0.32884673       0.38017897       0.51253259 </v>
    <v>       0.32899352       0.52209380       0.51357480 </v>
    <v>       0.33338081       0.66828489       0.50800606 </v>
    <v>       0.33279599       0.81049112       0.50598351 </v>
    <v>       0.33273835       0.95333131       0.50493742 </v>
    <v>       0.47572237       0.09611742       0.50295202 </v>
    <v>       0.47499210       0.23880025       0.50363619 </v>
    <v>       0.47490067       0.81033173       0.50286904 </v>
    <v>       0.47567354       0.95365495       0.50285344 </v>
    <v>       0.61837016       0.09622100       0.49878260 </v>
    <v>       0.61871726       0.23896604       0.49823545 </v>
    <v>       0.62072229       0.38056586       0.49519162 </v>
    <v>       0.61958186       0.81413292       0.49000949 </v>
    <v>       0.61853319       0.95386268       0.49654470 </v>
    <v>       0.76124042       0.09605584       0.49434918 </v>
    <v>       0.76134693       0.23865172       0.49568391 </v>
    <v>       0.76169633       0.38150176       0.49256561 </v>
    <v>       0.76243332       0.52552404       0.48269056 </v>
    <v>       0.76526598       0.66768646       0.47155577 </v>
    <v>       0.76094160       0.80919650       0.47735683 </v>
    <v>       0.76117811       0.95313882       0.48853118 </v>
    <v>       0.90364022       0.09542994       0.49320425 </v>
    <v>       0.90368336       0.23849689       0.49555115 </v>
    <v>       0.90400033       0.38160385       0.49584884 </v>
    <v>       0.90479676       0.52470010       0.49450985 </v>
    <v>       0.90583507       0.66774299       0.49031506 </v>
    <v>       0.90536419       0.81077190       0.48796440 </v>
    <v>       0.90397136       0.95262325       0.49024806 </v>
    <v>       0.46209931       0.35584494       0.50704864 </v>
    <v>       0.40120318       0.41931752       0.51858871 </v>
    <v>       0.40137705       0.55504239       0.51981618 </v>
    <v>       0.64727212       0.53892608       0.45724304 </v>
    <v>       0.58511252       0.41752276       0.49752333 </v>
    <v>       0.58266754       0.74210691       0.48907771 </v>
    <v>       0.46225909       0.68046296       0.50541195 </v>
    <v>       0.57235136       0.58187829       0.54703706 </v>
    <v>       0.55545622       0.53534138       0.63887074 </v>
    <v>       0.63045812       0.66568908       0.44906031 </v>
    <v>       0.52886120       0.52973207       0.58046333 </v>
   </varray>
  </structure>
  <varray name="primitive_index" >
   <v type="int" >        1 </v>
   <v type="int" >        2 </v>
   <v type="int" >        3 </v>
   <v type="int" >        4 </v>
   <v type="int" >        5 </v>
   <v type="int" >        6 </v>
   <v type="int" >        7 </v>
   <v type="int" >        8 </v>
   <v type="int" >        9 </v>
   <v type="int" >       10 </v>
   <v type="int" >       11 </v>
   <v type="int" >       12 </v>
   <v type="int" >       13 </v>
   <v type="int" >       14 </v>
   <v type="int" >       15 </v>
   <v type="int" >       16 </v>
   <v type="int" >       17 </v>
   <v type="int" >       18 </v>
   <v type="int" >       19 </v>
   <v type="int" >       20 </v>
   <v type="int" >       21 </v>
   <v type="int" >       22 </v>
   <v type="int" >       23 </v>
   <v type="int" >       24 </v>
   <v type="int" >       25 </v>
   <v type="int" >       26 </v>
   <v type="int" >       27 </v>
   <v type="int" >       28 </v>
   <v type="int" >       29 </v>
   <v type="int" >       30 </v>
   <v type="int" >       31 </v>
   <v type="int" >       32 </v>
   <v type="int" >       33 </v>
   <v type="int" >       34 </v>
   <v type="int" >       35 </v>
   <v type="int" >       36 </v>
   <v type="int" >       37 </v>
   <v type="int" >       38 </v>
   <v type="int" >       39 </v>
   <v type="int" >       40 </v>
   <v type="int" >       41 </v>
   <v type="int" >       42 </v>
   <v type="int" >       43 </v>
   <v type="int" >       44 </v>
   <v type="int" >       45 </v>
   <v type="int" >       46 </v>
   <v type="int" >       47 </v>
   <v type="int" >       48 </v>
   <v type="int" >       49 </v>
   <v type="int" >       50 </v>
   <v type="int" >       51 </v>
   <v type="int" >       52 </v>
   <v type="int" >       53 </v>
   <v type="int" >       54 </v>
   <v type="int" >       55 </v>
   <v type="int" >       56 </v>
   <v type="int" >       57 </v>
   <v type="int" >       58 </v>
   <v type="int" >       59 </v>
   <v type="int" >       60 </v>
   <v type="int" >       61 </v>
   <v type="int" >       62 </v>
   <v type="int" >       63 </v>
   <v type="int" >       64 </v>
   <v type="int" >       65 </v>
   <v type="int" >       66 </v>
   <v type="int" >       67 </v>
   <v type="int" >       68 </v>
   <v type="int" >       69 </v>
   <v type="int" >       70 </v>
   <v type="int" >       71 </v>
   <v type="int" >       72 </v>
   <v type="int" >       73 </v>
   <v type="int" >       74 </v>
   <v type="int" >       75 </v>
   <v type="int" >       76 </v>
   <v type="int" >       77 </v>
   <v type="int" >       78 </v>
   <v type="int" >       79 </v>
   <v type="int" >       80 </v>
   <v type="int" >       81 </v>
   <v type="int" >       82 </v>
   <v type="int" >       83 </v>
   <v type="int" >       84 </v>
   <v type="int" >       85 </v>
   <v type="int" >       86 </v>
   <v type="int" >       87 </v>
   <v type="int" >       88 </v>
   <v type="int" >       89 </v>
   <v type="int" >       90 </v>
   <v type="int" >       91 </v>
   <v type="int" >       92 </v>
   <v type="int" >       93 </v>
   <v type="int" >       94 </v>
   <v type="int" >       95 </v>
   <v type="int" >       96 </v>
   <v type="int" >       97 </v>
   <v type="int" >       98 </v>
   <v type="int" >       99 </v>
  </varray>
 </primitive_cell>
 <kpoints>
  <generation param="Gamma">
   <v type="int" name="divisions">       2        2        1 </v>
   <v name="usershift">      0.00000000       0.00000000       0.00000000 </v>
   <v name="genvec1">      0.50000000       0.00000000       0.00000000 </v>
   <v name="genvec2">      0.00000000       0.50000000       0.00000000 </v>
   <v name="genvec3">      0.00000000       0.00000000       1.00000000 </v>
   <v name="shift">      0.00000000       0.00000000       0.00000000 </v>
  </generation>
  <varray name="kpointlist" >
   <v>       0.00000000       0.00000000       0.00000000 </v>
   <v>       0.50000000       0.00000000       0.00000000 </v>
   <v>       0.00000000       0.50000000       0.00000000 </v>
   <v>       0.50000000       0.50000000       0.00000000 </v>
  </varray>
  <varray name="weights" >
   <v>       0.25000000 </v>
   <v>       0.25000000 </v>
   <v>       0.25000000 </v>
   <v>       0.25000000 </v>
  </varray>
 </kpoints>
 <parameters>
  <separator name="general" >
   <i type="string" name="SYSTEM">unknown system</i>
   <i type="logical" name="LCOMPAT"> F  </i>
  </separator>
  <separator name="electronic" >
   <i type="string" name="PREC">normal</i>
   <i name="ENMAX">    520.00000000</i>
   <i name="ENAUG">    644.87300000</i>
   <i name="EDIFF">      0.00000100</i>
   <i type="int" name="IALGO">    38</i>
   <i type="int" name="IWAVPR">    11</i>
   <i type="int" name="NBANDS">   270</i>
   <i type="int" name="NBANDSLOW">    -1</i>
   <i type="int" name="NBANDSHIGH">    -1</i>
   <i name="NELECT">    374.00000000</i>
   <i type="int" name="TURBO">     0</i>
   <i type="int" name="IRESTART">     0</i>
   <i type="int" name="NREBOOT">     0</i>
   <i type="int" name="NMIN">     0</i>
   <i name="EREF">      0.00000000</i>
   <separator name="electronic smearing" >
    <i type="int" name="ISMEAR">     0</i>
    <i name="SIGMA">      0.05000000</i>
    <i name="KSPACING">      0.50000000</i>
    <i type="logical" name="KGAMMA"> T  </i>
    <i type="logical" name="KBLOWUP"> T  </i>
   </separator>
   <separator name="electronic projectors" >
    <i type="logical" name="LREAL"> T  </i>
    <v name="ROPT">     -0.00050000     -0.00050000     -0.00050000     -0.00050000</v>
    <i type="int" name="LMAXPAW">  -100</i>
    <i type="int" name="LMAXMIX">     2</i>
    <i type="logical" name="NLSPLINE"> F  </i>
   </separator>
   <separator name="electronic startup" >
    <i type="int" name="ISTART">     0</i>
    <i type="int" name="ICHARG">     2</i>
    <i type="int" name="INIWAV">     1</i>
   </separator>
   <separator name="electronic spin" >
    <i type="int" name="ISPIN">     2</i>
    <i type="logical" name="LNONCOLLINEAR"> F  </i>
    <v name="MAGMOM">      0.60000000      0.60000000      0.60000000      0.60000000      0.60000000      0.60000000      0.60000000      0.60000000      0.60000000      0.60000000      0.60000000      0.60000000      0.60000000      0.60000000      0.60000000      0.60000000      0.60000000      0.60000000      0.60000000      0.60000000
      0.60000000      0.60000000      0.60000000      0.60000000      0.60000000      0.60000000      0.60000000      0.60000000      0.60000000      0.60000000      0.60000000      0.60000000      0.60000000      0.60000000      0.60000000      0.60000000      0.60000000      0.60000000      0.60000000      0.60000000
      0.60000000      0.60000000      0.60000000      0.60000000      0.60000000      0.60000000      0.60000000      0.60000000      0.60000000      0.60000000      0.60000000      0.60000000      0.60000000      0.60000000      0.60000000      0.60000000      0.60000000      0.60000000      0.60000000      0.60000000
      0.60000000      0.60000000      0.60000000      0.60000000      0.60000000      0.60000000      0.60000000      0.60000000      0.60000000      0.60000000      0.60000000      0.60000000      0.60000000      0.60000000      0.60000000      0.60000000      0.60000000      0.60000000      0.60000000      0.60000000
      0.60000000      0.60000000      0.60000000      0.60000000      0.60000000      0.60000000      0.60000000      0.60000000      0.60000000      0.60000000      0.60000000      0.60000000      0.60000000      0.60000000      0.60000000      0.60000000      0.60000000      0.60000000      0.60000000</v>
    <i name="NUPDOWN">     -1.00000000</i>
    <i type="logical" name="LSORBIT"> F  </i>
    <v name="SAXIS">      0.00000000      0.00000000      1.00000000</v>
    <i type="logical" name="LSPIRAL"> F  </i>
    <v name="QSPIRAL">      0.00000000      0.00000000      0.00000000</v>
    <i type="logical" name="LZEROZ"> F  </i>
   </separator>
   <separator name="electronic exchange-correlation" >
    <i type="logical" name="LASPH"> T  </i>
    <i type="logical" name="LMETAGGA"> F  </i>
   </separator>
   <separator name="electronic convergence" >
    <i type="int" name="NELM">   200</i>
    <i type="int" name="NELMDL">    -5</i>
    <i type="int" name="NELMIN">     2</i>
    <i name="ENINI">    520.00000000</i>
    <separator name="electronic convergence detail" >
     <i type="logical" name="LDIAG"> T  </i>
     <i type="logical" name="LSUBROT"> F  </i>
     <i name="WEIMIN">      0.00100000</i>
     <i name="EBREAK">      0.00000000</i>
     <i name="DEPER">      0.30000000</i>
     <i type="int" name="NRMM">     4</i>
     <i name="TIME">      0.40000000</i>
    </separator>
   </separator>
   <separator name="electronic mixer" >
    <i name="AMIX">      0.20000000</i>
    <i name="BMIX">      0.00010000</i>
    <i name="AMIN">      0.10000000</i>
    <i name="AMIX_MAG">      0.80000000</i>
    <i name="BMIX_MAG">      0.00010000</i>
    <separator name="electronic mixer details" >
     <i type="int" name="IMIX">     4</i>
     <i type="logical" name="MIXFIRST"> F  </i>
     <i type="int" name="MAXMIX">   -45</i>
     <i name="WC">    100.00000000</i>
     <i type="int" name="INIMIX">     1</i>
     <i type="int" name="MIXPRE">     1</i>
     <i type="int" name="MREMOVE">     5</i>
    </separator>
   </separator>
   <separator name="electronic dipolcorrection" >
    <i type="logical" name="LDIPOL"> F  </i>
    <i type="logical" name="LMONO"> F  </i>
    <i type="int" name="IDIPOL">     0</i>
    <i name="EPSILON">      1.00000000</i>
    <v name="DIPOL">   -100.00000000   -100.00000000   -100.00000000</v>
    <i name="EFIELD">      0.00000000</i>
   </separator>
  </separator>
  <separator name="grids" >
   <i type="int" name="NGX">    96</i>
   <i type="int" name="NGY">    96</i>
   <i type="int" name="NGZ">    84</i>
   <i type="int" name="NGXF">   192</i>
   <i type="int" name="NGYF">   192</i>
   <i type="int" name="NGZF">   168</i>
   <i type="logical" name="ADDGRID"> T  </i>
  </separator>
  <separator name="ionic" >
   <i type="int" name="NSW">  1000</i>
   <i type="int" name="IBRION">     3</i>
   <i type="int" name="MDALGO">     0</i>
   <i type="int" name="ISIF">     2</i>
   <i name="PSTRESS">      0.00000000</i>
   <i name="EDIFFG">     -0.03000000</i>
   <i type="int" name="NFREE">     0</i>
   <i name="POTIM">      0.00000000</i>
   <i name="SMASS">     -3.00000000</i>
   <i name="SCALEE">      1.00000000</i>
  </separator>
  <separator name="ionic md" >
   <i name="TEBEG">      0.00010000</i>
   <i name="TEEND">      0.00010000</i>
   <i type="int" name="NBLOCK">     1</i>
   <i type="int" name="KBLOCK">  1000</i>
   <i type="int" name="NPACO">   256</i>
   <i name="APACO">     10.00000000</i>
  </separator>
  <separator name="symmetry" >
   <i type="int" name="ISYM">     0</i>
   <i name="SYMPREC">      0.00001000</i>
  </separator>
  <separator name="dos" >
   <i type="int" name="LORBIT">     0</i>
   <v name="RWIGS">     -1.00000000     -1.00000000     -1.00000000     -1.00000000</v>
   <i type="int" name="NEDOS">   301</i>
   <i name="EMIN">     10.00000000</i>
   <i name="EMAX">    -10.00000000</i>
   <i name="EFERMI">      0.00000000</i>
  </separator>
  <separator name="writing" >
   <i type="int" name="NWRITE">     2</i>
   <i type="logical" name="LWAVE"> F  </i>
   <i type="logical" name="LDOWNSAMPLE"> F  </i>
   <i type="logical" name="LCHARG"> F  </i>
   <i type="logical" name="LPARD"> F  </i>
   <i type="logical" name="LVTOT"> F  </i>
   <i type="logical" name="LVHAR"> F  </i>
   <i type="logical" name="LELF"> F  </i>
   <i type="logical" name="LOPTICS"> F  </i>
   <v name="STM">      0.00000000      0.00000000      0.00000000      0.00000000      0.00000000      0.00000000      0.00000000</v>
  </separator>
  <separator name="performance" >
   <i type="int" name="NPAR">     5</i>
   <i type="int" name="NSIM">     4</i>
   <i type="int" name="NBLK">    -1</i>
   <i type="logical" name="LPLANE"> T  </i>
   <i type="logical" name="LSCALAPACK"> T  </i>
   <i type="logical" name="LSCAAWARE"> F  </i>
   <i type="logical" name="LSCALU"> F  </i>
   <i type="logical" name="LASYNC"> F  </i>
   <i type="logical" name="LORBITALREAL"> F  </i>
  </separator>
  <separator name="miscellaneous" >
   <i type="int" name="IDIOT">     3</i>
   <i type="int" name="PHON_NSTRUCT">    -1</i>
   <i type="logical" name="LMUSIC"> F  </i>
   <v name="POMASS">     12.01100000      1.00000000     18.99800000     16.00000000</v>
   <v name="DARWINR">      0.00000000      0.00000000      0.00000000      0.00000000</v>
   <v name="DARWINV">      1.00000000      1.00000000      1.00000000      1.00000000</v>
   <i type="logical" name="LCORR"> T  </i>
  </separator>
  <i type="logical" name="GGA_COMPAT"> T  </i>
  <i type="logical" name="LBERRY"> F  </i>
  <i type="int" name="ICORELEVEL">     0</i>
  <i type="logical" name="LDAU"> F  </i>
  <i type="int" name="I_CONSTRAINED_M">     0</i>
  <separator name="electronic exchange-correlation" >
   <i type="string" name="GGA">--</i>
   <i type="int" name="VOSKOWN">     0</i>
   <i type="logical" name="LHFCALC"> F  </i>
   <i type="string" name="PRECFOCK"></i>
   <i type="logical" name="LSYMGRAD"> F  </i>
   <i type="logical" name="LHFONE"> F  </i>
   <i type="logical" name="LRHFCALC"> F  </i>
   <i type="logical" name="LTHOMAS"> F  </i>
   <i type="logical" name="LMODELHF"> F  </i>
   <i type="logical" name="LFOCKACE"> F  </i>
   <i name="ENCUT4O">     -1.00000000</i>
   <i type="int" name="EXXOEP">     0</i>
   <i type="int" name="FOURORBIT">     0</i>
   <i name="AEXX">      0.00000000</i>
   <i name="HFALPHA">      0.00000000</i>
   <i name="MCALPHA">      0.00000000</i>
   <i name="ALDAX">      1.00000000</i>
   <i name="AGGAX">      1.00000000</i>
   <i name="ALDAC">      1.00000000</i>
   <i name="AGGAC">      1.00000000</i>
   <i type="int" name="NKREDX">     1</i>
   <i type="int" name="NKREDY">     1</i>
   <i type="int" name="NKREDZ">     1</i>
   <i type="logical" name="SHIFTRED"> F  </i>
   <i type="logical" name="ODDONLY"> F  </i>
   <i type="logical" name="EVENONLY"> F  </i>
   <i type="int" name="LMAXFOCK">     0</i>
   <i type="int" name="NMAXFOCKAE">     0</i>
   <i type="logical" name="LFOCKAEDFT"> F  </i>
   <i name="HFSCREEN">      0.00000000</i>
   <i name="HFSCREENC">      0.00000000</i>
   <i type="int" name="NBANDSGWLOW">     0</i>
  </separator>
  <separator name="vdW DFT" >
   <i type="logical" name="LUSE_VDW"> F  </i>
   <i type="int" name="IVDW_NL">     1</i>
   <i type="logical" name="LSPIN_VDW"> F  </i>
   <i name="Zab_VDW">     -0.84910000</i>
   <i name="PARAM1">      0.12340000</i>
   <i name="PARAM2">      1.00000000</i>
   <i name="PARAM3">      0.00000000</i>
  </separator>
  <separator name="model GW" >
   <i type="int" name="MODEL_GW">     0</i>
   <i name="MODEL_EPS0">     23.48414909</i>
   <i name="MODEL_ALPHA">      1.00000000</i>
  </separator>
  <separator name="linear response parameters" >
   <i type="logical" name="LEPSILON"> F  </i>
   <i type="logical" name="LRPA"> F  </i>
   <i type="logical" name="LNABLA"> F  </i>
   <i type="logical" name="LVEL"> F  </i>
   <i name="CSHIFT">      0.10000000</i>
   <i name="OMEGAMAX">     -1.00000000</i>
   <i name="DEG_THRESHOLD">      0.00200000</i>
   <i name="RTIME">     -0.10000000</i>
   <i name="WPLASMAI">      0.00000000</i>
   <v name="DFIELD">      0.00000000      0.00000000      0.00000000</v>
   <v name="WPLASMA">      0.00000000      0.00000000      0.00000000      0.00000000      0.00000000      0.00000000      0.00000000      0.00000000      0.00000000</v>
  </separator>
  <separator name="orbital magnetization" >
   <i type="logical" name="NUCIND"> F  </i>
   <v name="MAGPOS">      0.00000000      0.00000000      0.00000000</v>
   <i type="logical" name="LNICSALL"> T  </i>
   <i type="logical" name="ORBITALMAG"> F  </i>
   <i type="logical" name="LMAGBLOCH"> F  </i>
   <i type="logical" name="LCHIMAG"> F  </i>
   <i type="logical" name="LGAUGE"> T  </i>
   <i type="int" name="MAGATOM">     0</i>
   <v name="MAGDIPOL">      0.00000000      0.00000000      0.00000000</v>
   <v name="AVECCONST">      0.00000000      0.00000000      0.00000000</v>
  </separator>
  <separator name="response functions" >
   <i type="logical" name="LALL_IN_ONE"> F  </i>
   <i type="int" name="IALL_IN_ONE">    -1</i>
   <i type="int" name="NBANDS_WAVE">    -1</i>
   <i type="logical" name="LFINITE_TEMPERATURE"> F  </i>
   <i type="logical" name="LADDER"> F  </i>
   <i type="logical" name="LRPAFORCE"> F  </i>
   <i type="logical" name="LFXC"> F  </i>
   <i type="logical" name="LHARTREE"> T  </i>
   <i type="int" name="IBSE">     0</i>
   <v type="int" name="KPOINT">    -1     0     0     0</v>
   <i type="logical" name="LTCTC"> F  </i>
   <i type="logical" name="LTCTE"> F  </i>
   <i type="logical" name="LTETE"> F  </i>
   <i type="logical" name="LTRIPLET"> F  </i>
   <i type="logical" name="LFXCEPS"> F  </i>
   <i type="logical" name="LFXHEG"> F  </i>
   <i type="int" name="NATURALO">     2</i>
   <i type="logical" name="LHOLEGF"> F  </i>
   <i type="logical" name="L2ORDER"> F  </i>
   <i type="logical" name="LDMP1"> F  </i>
   <i type="logical" name="LMP2LT"> F  </i>
   <i type="logical" name="LSMP2LT"> F  </i>
   <i type="logical" name="LGWLF"> F  </i>
   <i name="ENCUTGW">     -1.60000002</i>
   <i name="ENCUTGWSOFT">     -1.60000002</i>
   <i name="ENCUTLF">     -1.00000000</i>
   <i type="logical" name="LESF_SPLINES"> F  </i>
   <i type="int" name="LMAXMP2">    -1</i>
   <i name="SCISSOR">      0.00000000</i>
   <i type="int" name="NOMEGA">     0</i>
   <i type="int" name="NOMEGAR">     0</i>
   <i type="int" name="NBANDSGW">    -1</i>
   <i type="int" name="NBANDSO">    -1</i>
   <i type="int" name="NBANDSV">    -1</i>
   <i type="int" name="NELMGW">     1</i>
   <i type="int" name="NELMHF">     1</i>
   <i type="int" name="DIM">     3</i>
   <i type="int" name="IESPILON">     4</i>
   <i type="int" name="ANTIRES">     0</i>
   <i name="OMEGAMAX">    -30.00000000</i>
   <i name="OMEGAMIN">    -30.00000000</i>
   <i name="OMEGATL">   -200.00000000</i>
   <i type="int" name="OMEGAGRID">     0</i>
   <i name="CSHIFT">     -0.10000000</i>
   <i type="logical" name="LSELFENERGY"> F  </i>
   <i type="logical" name="LSPECTRAL"> F  </i>
   <i type="logical" name="LSPECTRALGW"> F  </i>
   <i type="logical" name="LSINGLES"> F  </i>
   <i type="logical" name="LFERMIGW"> F  </i>
   <i type="logical" name="ODDONLYGW"> F  </i>
   <i type="logical" name="EVENONLYGW"> F  </i>
   <i type="int" name="NKREDLFX">     1</i>
   <i type="int" name="NKREDLFY">     1</i>
   <i type="int" name="NKREDLFZ">     1</i>
   <i type="int" name="MAXMEM">  2800</i>
   <i type="int" name="TELESCOPE">     0</i>
   <i type="int" name="NTAUPAR">    -1</i>
   <i type="int" name="NOMEGAPAR">    -1</i>
   <i name="DAMP_NEWTON">      0.80000001</i>
   <i name="LAMBDA">      1.00000000</i>
  </separator>
  <separator name="External order field" >
   <i name="OFIELD_KAPPA">      0.00000000</i>
   <v name="OFIELD_K">      0.00000000      0.00000000      0.00000000</v>
   <i name="OFIELD_Q6_NEAR">      0.00000000</i>
   <i name="OFIELD_Q6_FAR">      0.00000000</i>
   <i name="OFIELD_A">      0.00000000</i>
  </separator>
  <separator name="optional k-points parameters" >
   <i type="int" name="KPOINTS_OPT_MODE">     1</i>
   <i type="logical" name="LKPOINTS_OPT"> F  </i>
  </separator>
 </parameters>
 <atominfo>
  <atoms>      99 </atoms>
  <types>       4 </types>
  <array name="atoms" >
   <dimension dim="1">ion</dimension>
   <field type="string">element</field>
   <field type="int">atomtype</field>
   <set>
    <rc><c>C </c><c>   1</c></rc>
    <rc><c>C </c><c>   1</c></rc>
    <rc><c>C </c><c>   1</c></rc>
    <rc><c>C </c><c>   1</c></rc>
    <rc><c>C </c><c>   1</c></rc>
    <rc><c>C </c><c>   1</c></rc>
    <rc><c>C </c><c>   1</c></rc>
    <rc><c>C </c><c>   1</c></rc>
    <rc><c>C </c><c>   1</c></rc>
    <rc><c>C </c><c>   1</c></rc>
    <rc><c>C </c><c>   1</c></rc>
    <rc><c>C </c><c>   1</c></rc>
    <rc><c>C </c><c>   1</c></rc>
    <rc><c>C </c><c>   1</c></rc>
    <rc><c>C </c><c>   1</c></rc>
    <rc><c>C </c><c>   1</c></rc>
    <rc><c>C </c><c>   1</c></rc>
    <rc><c>C </c><c>   1</c></rc>
    <rc><c>C </c><c>   1</c></rc>
    <rc><c>C </c><c>   1</c></rc>
    <rc><c>C </c><c>   1</c></rc>
    <rc><c>C </c><c>   1</c></rc>
    <rc><c>C </c><c>   1</c></rc>
    <rc><c>C </c><c>   1</c></rc>
    <rc><c>C </c><c>   1</c></rc>
    <rc><c>C </c><c>   1</c></rc>
    <rc><c>C </c><c>   1</c></rc>
    <rc><c>C </c><c>   1</c></rc>
    <rc><c>C </c><c>   1</c></rc>
    <rc><c>C </c><c>   1</c></rc>
    <rc><c>C </c><c>   1</c></rc>
    <rc><c>C </c><c>   1</c></rc>
    <rc><c>C </c><c>   1</c></rc>
    <rc><c>C </c><c>   1</c></rc>
    <rc><c>C </c><c>   1</c></rc>
    <rc><c>C </c><c>   1</c></rc>
    <rc><c>C </c><c>   1</c></rc>
    <rc><c>C </c><c>   1</c></rc>
    <rc><c>C </c><c>   1</c></rc>
    <rc><c>C </c><c>   1</c></rc>
    <rc><c>C </c><c>   1</c></rc>
    <rc><c>C </c><c>   1</c></rc>
    <rc><c>C </c><c>   1</c></rc>
    <rc><c>C </c><c>   1</c></rc>
    <rc><c>C </c><c>   1</c></rc>
    <rc><c>C </c><c>   1</c></rc>
    <rc><c>C </c><c>   1</c></rc>
    <rc><c>C </c><c>   1</c></rc>
    <rc><c>C </c><c>   1</c></rc>
    <rc><c>C </c><c>   1</c></rc>
    <rc><c>C </c><c>   1</c></rc>
    <rc><c>C </c><c>   1</c></rc>
    <rc><c>C </c><c>   1</c></rc>
    <rc><c>C </c><c>   1</c></rc>
    <rc><c>C </c><c>   1</c></rc>
    <rc><c>C </c><c>   1</c></rc>
    <rc><c>C </c><c>   1</c></rc>
    <rc><c>C </c><c>   1</c></rc>
    <rc><c>C </c><c>   1</c></rc>
    <rc><c>C </c><c>   1</c></rc>
    <rc><c>C </c><c>   1</c></rc>
    <rc><c>C </c><c>   1</c></rc>
    <rc><c>C </c><c>   1</c></rc>
    <rc><c>C </c><c>   1</c></rc>
    <rc><c>C </c><c>   1</c></rc>
    <rc><c>C </c><c>   1</c></rc>
    <rc><c>C </c><c>   1</c></rc>
    <rc><c>C </c><c>   1</c></rc>
    <rc><c>C </c><c>   1</c></rc>
    <rc><c>C </c><c>   1</c></rc>
    <rc><c>C </c><c>   1</c></rc>
    <rc><c>C </c><c>   1</c></rc>
    <rc><c>C </c><c>   1</c></rc>
    <rc><c>C </c><c>   1</c></rc>
    <rc><c>C </c><c>   1</c></rc>
    <rc><c>C </c><c>   1</c></rc>
    <rc><c>C </c><c>   1</c></rc>
    <rc><c>C </c><c>   1</c></rc>
    <rc><c>C </c><c>   1</c></rc>
    <rc><c>C </c><c>   1</c></rc>
    <rc><c>C </c><c>   1</c></rc>
    <rc><c>C </c><c>   1</c></rc>
    <rc><c>C </c><c>   1</c></rc>
    <rc><c>C </c><c>   1</c></rc>
    <rc><c>C </c><c>   1</c></rc>
    <rc><c>C </c><c>   1</c></rc>
    <rc><c>C </c><c>   1</c></rc>
    <rc><c>C </c><c>   1</c></rc>
    <rc><c>H </c><c>   2</c></rc>
    <rc><c>H </c><c>   2</c></rc>
    <rc><c>H </c><c>   2</c></rc>
    <rc><c>H </c><c>   2</c></rc>
    <rc><c>H </c><c>   2</c></rc>
    <rc><c>H </c><c>   2</c></rc>
    <rc><c>H </c><c>   2</c></rc>
    <rc><c>H </c><c>   2</c></rc>
    <rc><c>H </c><c>   2</c></rc>
    <rc><c>F </c><c>   3</c></rc>
    <rc><c>O </c><c>   4</c></rc>
   </set>
  </array>
  <array name="atomtypes" >
   <dimension dim="1">type</dimension>
   <field type="int">atomspertype</field>
   <field type="string">element</field>
   <field>mass</field>
   <field>valence</field>
   <field type="string">pseudopotential</field>
   <set>
    <rc><c>  88</c><c>C </c><c>     12.01100000</c><c>      4.00000000</c><c>  PAW_PBE C 08Apr2002                   </c></rc>
    <rc><c>   9</c><c>H </c><c>      1.00000000</c><c>      1.00000000</c><c>  PAW_PBE H 15Jun2001                   </c></rc>
    <rc><c>   1</c><c>F </c><c>     18.99800000</c><c>      7.00000000</c><c>  PAW_PBE F 08Apr2002                   </c></rc>
    <rc><c>   1</c><c>O </c><c>     16.00000000</c><c>      6.00000000</c><c>  PAW_PBE O 08Apr2002                   </c></rc>
   </set>
  </array>
 </atominfo>
 <structure name="initialpos" >
  <crystal>
   <varray name="basis" >
    <v>      17.27103806       0.00000000       0.00000000 </v>
    <v>      -8.63551903      14.95715771       0.00000000 </v>
    <v>       0.00000000       0.00000000      15.00000000 </v>
   </varray>
   <i name="volume">   3874.88459904 </i>
   <varray name="rec_basis" >
    <v>       0.05790040       0.03342881       0.00000000 </v>
    <v>       0.00000000       0.06685762       0.00000000 </v>
    <v>       0.00000000       0.00000000       0.06666667 </v>
   </varray>
  </crystal>
  <varray name="positions" >
   <v>       0.99916194       0.00041213       0.49500106 </v>
   <v>       0.99879727       0.14314411       0.49614708 </v>
   <v>       0.99876333       0.28605228       0.49772963 </v>
   <v>       0.99913739       0.42913578       0.49855826 </v>
   <v>       0.99980556       0.57222856       0.49844244 </v>
   <v>       0.00076660       0.71547356       0.49657728 </v>
   <v>       0.00037253       0.85840301       0.49486881 </v>
   <v>       0.14245427       0.00108129       0.50136403 </v>
   <v>       0.14175574       0.14349020       0.50139215 </v>
   <v>       0.14102632       0.28571357       0.50247090 </v>
   <v>       0.14120169       0.42884772       0.50342574 </v>
   <v>       0.14222891       0.57192461       0.50366429 </v>
   <v>       0.14276958       0.71512682       0.50345532 </v>
   <v>       0.14281772       0.85826473       0.50209909 </v>
   <v>       0.28517078       0.00080213       0.50455547 </v>
   <v>       0.28496174       0.14347161       0.50513756 </v>
   <v>       0.28470713       0.28750666       0.50790855 </v>
   <v>       0.28269260       0.42803809       0.51074550 </v>
   <v>       0.28511944       0.57091631       0.50929141 </v>
   <v>       0.28511480       0.71529129       0.50684925 </v>
   <v>       0.28521549       0.85826639       0.50535735 </v>
   <v>       0.42816475       0.00111727       0.50402912 </v>
   <v>       0.42795189       0.14363565       0.50413654 </v>
   <v>       0.42618608       0.28330119       0.50604108 </v>
   <v>       0.42626698       0.71699442       0.50581163 </v>
   <v>       0.42786921       0.85835675       0.50431743 </v>
   <v>       0.57078633       0.00132034       0.49978575 </v>
   <v>       0.57086387       0.14368986       0.50032308 </v>
   <v>       0.57181693       0.28721443       0.49942965 </v>
   <v>       0.57149372       0.85902111       0.49703046 </v>
   <v>       0.71360109       0.00070745       0.49299995 </v>
   <v>       0.71374081       0.14365251       0.49635381 </v>
   <v>       0.71380018       0.28646686       0.49561280 </v>
   <v>       0.71361606       0.42854021       0.48954719 </v>
   <v>       0.71882917       0.57369757       0.46910964 </v>
   <v>       0.72143659       0.71740732       0.46535193 </v>
   <v>       0.71246898       0.85775770       0.48407897 </v>
   <v>       0.85634033       0.00056631       0.48991694 </v>
   <v>       0.85617724       0.14337327       0.49398958 </v>
   <v>       0.85631476       0.28619897       0.49538798 </v>
   <v>       0.85687179       0.42919085       0.49378463 </v>
   <v>       0.85784768       0.57258501       0.48979394 </v>
   <v>       0.85954822       0.71601365       0.48415245 </v>
   <v>       0.85697599       0.85756111       0.48539201 </v>
   <v>       0.04665288       0.09569948       0.49748592 </v>
   <v>       0.04590248       0.23807829       0.49863183 </v>
   <v>       0.04606833       0.38122705       0.49983257 </v>
   <v>       0.04717950       0.52446047       0.50035831 </v>
   <v>       0.04769755       0.66756930       0.49988884 </v>
   <v>       0.04775176       0.81062074       0.49809017 </v>
   <v>       0.04728379       0.95327769       0.49728972 </v>
   <v>       0.18968577       0.09590080       0.50298835 </v>
   <v>       0.18898503       0.23856831       0.50382897 </v>
   <v>       0.18760671       0.38052333       0.50514767 </v>
   <v>       0.18935392       0.52401444       0.50536125 </v>
   <v>       0.18994924       0.66749863       0.50522998 </v>
   <v>       0.19027401       0.81060276       0.50407267 </v>
   <v>       0.19018529       0.95338447       0.50298182 </v>
   <v>       0.33280333       0.09619470       0.50491614 </v>
   <v>       0.33317487       0.23871335       0.50676736 </v>
   <v>       0.32884673       0.38017897       0.51253259 </v>
   <v>       0.32899352       0.52209380       0.51357480 </v>
   <v>       0.33338081       0.66828489       0.50800606 </v>
   <v>       0.33279599       0.81049112       0.50598351 </v>
   <v>       0.33273835       0.95333131       0.50493742 </v>
   <v>       0.47572237       0.09611742       0.50295202 </v>
   <v>       0.47499210       0.23880025       0.50363619 </v>
   <v>       0.47490067       0.81033173       0.50286904 </v>
   <v>       0.47567354       0.95365495       0.50285344 </v>
   <v>       0.61837016       0.09622100       0.49878260 </v>
   <v>       0.61871726       0.23896604       0.49823545 </v>
   <v>       0.62072229       0.38056586       0.49519162 </v>
   <v>       0.61958186       0.81413292       0.49000949 </v>
   <v>       0.61853319       0.95386268       0.49654470 </v>
   <v>       0.76124042       0.09605584       0.49434918 </v>
   <v>       0.76134693       0.23865172       0.49568391 </v>
   <v>       0.76169633       0.38150176       0.49256561 </v>
   <v>       0.76243332       0.52552404       0.48269056 </v>
   <v>       0.76526598       0.66768646       0.47155577 </v>
   <v>       0.76094160       0.80919650       0.47735683 </v>
   <v>       0.76117811       0.95313882       0.48853118 </v>
   <v>       0.90364022       0.09542994       0.49320425 </v>
   <v>       0.90368336       0.23849689       0.49555115 </v>
   <v>       0.90400033       0.38160385       0.49584884 </v>
   <v>       0.90479676       0.52470010       0.49450985 </v>
   <v>       0.90583507       0.66774299       0.49031506 </v>
   <v>       0.90536419       0.81077190       0.48796440 </v>
   <v>       0.90397136       0.95262325       0.49024806 </v>
   <v>       0.46209931       0.35584494       0.50704864 </v>
   <v>       0.40120318       0.41931752       0.51858871 </v>
   <v>       0.40137705       0.55504239       0.51981618 </v>
   <v>       0.64727212       0.53892608       0.45724304 </v>
   <v>       0.58511252       0.41752276       0.49752333 </v>
   <v>       0.58266754       0.74210691       0.48907771 </v>
   <v>       0.46225909       0.68046296       0.50541195 </v>
   <v>       0.57235136       0.58187829       0.54703706 </v>
   <v>       0.55545622       0.53534138       0.63887074 </v>
   <v>       0.63045812       0.66568908       0.44906031 </v>
   <v>       0.52886120       0.52973207       0.58046333 </v>
  </varray>
  <varray name="selective"  type="logical" >
   <v type="logical" >  T  T  T </v>
   <v type="logical" >  T  T  T </v>
   <v type="logical" >  T  T  T </v>
   <v type="logical" >  T  T  T </v>
   <v type="logical" >  T  T  T </v>
   <v type="logical" >  T  T  T </v>
   <v type="logical" >  T  T  T </v>
   <v type="logical" >  T  T  T </v>
   <v type="logical" >  T  T  T </v>
   <v type="logical" >  T  T  T </v>
   <v type="logical" >  T  T  T </v>
   <v type="logical" >  T  T  T </v>
   <v type="logical" >  T  T  T </v>
   <v type="logical" >  T  T  T </v>
   <v type="logical" >  T  T  T </v>
   <v type="logical" >  T  T  T </v>
   <v type="logical" >  T  T  T </v>
   <v type="logical" >  T  T  T </v>
   <v type="logical" >  T  T  T </v>
   <v type="logical" >  T  T  T </v>
   <v type="logical" >  T  T  T </v>
   <v type="logical" >  T  T  T </v>
   <v type="logical" >  T  T  T </v>
   <v type="logical" >  T  T  T </v>
   <v type="logical" >  T  T  T </v>
   <v type="logical" >  T  T  T </v>
   <v type="logical" >  T  T  T </v>
   <v type="logical" >  T  T  T </v>
   <v type="logical" >  T  T  T </v>
   <v type="logical" >  T  T  T </v>
   <v type="logical" >  T  T  T </v>
   <v type="logical" >  T  T  T </v>
   <v type="logical" >  T  T  T </v>
   <v type="logical" >  T  T  T </v>
   <v type="logical" >  T  T  T </v>
   <v type="logical" >  T  T  T </v>
   <v type="logical" >  T  T  T </v>
   <v type="logical" >  T  T  T </v>
   <v type="logical" >  T  T  T </v>
   <v type="logical" >  T  T  T </v>
   <v type="logical" >  T  T  T </v>
   <v type="logical" >  T  T  T </v>
   <v type="logical" >  T  T  T </v>
   <v type="logical" >  T  T  T </v>
   <v type="logical" >  T  T  T </v>
   <v type="logical" >  T  T  T </v>
   <v type="logical" >  T  T  T </v>
   <v type="logical" >  T  T  T </v>
   <v type="logical" >  T  T  T </v>
   <v type="logical" >  T  T  T </v>
   <v type="logical" >  T  T  T </v>
   <v type="logical" >  T  T  T </v>
   <v type="logical" >  T  T  T </v>
   <v type="logical" >  T  T  T </v>
   <v type="logical" >  T  T  T </v>
   <v type="logical" >  T  T  T </v>
   <v type="logical" >  T  T  T </v>
   <v type="logical" >  T  T  T </v>
   <v type="logical" >  T  T  T </v>
   <v type="logical" >  T  T  T </v>
   <v type="logical" >  T  T  T </v>
   <v type="logical" >  T  T  T </v>
   <v type="logical" >  T  T  T </v>
   <v type="logical" >  T  T  T </v>
   <v type="logical" >  T  T  T </v>
   <v type="logical" >  T  T  T </v>
   <v type="logical" >  T  T  T </v>
   <v type="logical" >  T  T  T </v>
   <v type="logical" >  T  T  T </v>
   <v type="logical" >  T  T  T </v>
   <v type="logical" >  T  T  T </v>
   <v type="logical" >  T  T  T </v>
   <v type="logical" >  T  T  T </v>
   <v type="logical" >  T  T  T </v>
   <v type="logical" >  T  T  T </v>
   <v type="logical" >  T  T  T </v>
   <v type="logical" >  T  T  T </v>
   <v type="logical" >  T  T  T </v>
   <v type="logical" >  T  T  T </v>
   <v type="logical" >  T  T  T </v>
   <v type="logical" >  T  T  T </v>
   <v type="logical" >  T  T  T </v>
   <v type="logical" >  T  T  T </v>
   <v type="logical" >  T  T  T </v>
   <v type="logical" >  T  T  T </v>
   <v type="logical" >  T  T  T </v>
   <v type="logical" >  T  T  T </v>
   <v type="logical" >  T  T  T </v>
   <v type="logical" >  T  T  T </v>
   <v type="logical" >  T  T  T </v>
   <v type="logical" >  T  T  T </v>
   <v type="logical" >  T  T  T </v>
   <v type="logical" >  T  T  T </v>
   <v type="logical" >  T  T  T </v>
   <v type="logical" >  T  T  T </v>
   <v type="logical" >  T  T  T </v>
   <v type="logical" >  T  T  T </v>
   <v type="logical" >  T  T  T </v>
   <v type="logical" >  T  T  T </v>
  </varray>
  <nose>
   <v>      -3.00000000       0.00000000       0.00010000       0.00010000 </v>
  </nose>
 </structure>
 <calculation>
  <scstep>
   <time name="dav">   81.31   82.55</time>
   <time name="total">   87.19   88.50</time>
   <energy>
    <i name="alphaZ">    181.20502200 </i>
    <i name="ewald">  37108.76337948 </i>
    <i name="hartreedc"> -47679.75235592 </i>
    <i name="XCdc">   1251.76675930 </i>
    <i name="pawpsdc">  10449.77820547 </i>
    <i name="pawaedc"> -10506.58854235 </i>
    <i name="eentropy">     -0.05208088 </i>
    <i name="bandstr">  -1622.09050903 </i>
    <i name="atom">  14153.45850732 </i>
    <i name="e_fr_energy">   3336.48838540 </i>
    <i name="e_wo_entrp">   3336.54046628 </i>
    <i name="e_0_energy">   3336.51442584 </i>
   </energy>
  </scstep>
  <scstep>
   <time name="dav">  106.17  107.89</time>
   <time name="total">  106.17  107.90</time>
   <energy>
    <i name="e_fr_energy">   -254.60222105 </i>
    <i name="e_wo_entrp">   -254.59863192 </i>
    <i name="e_0_energy">   -254.60042649 </i>
   </energy>
  </scstep>
  <scstep>
   <time name="dav">   90.53   92.06</time>
   <time name="total">   90.53   92.07</time>
   <energy>
    <i name="e_fr_energy">   -875.53941196 </i>
    <i name="e_wo_entrp">   -875.53937254 </i>
    <i name="e_0_energy">   -875.53939225 </i>
   </energy>
  </scstep>
  <scstep>
   <time name="dav">   91.13   92.55</time>
   <time name="total">   91.13   92.55</time>
   <energy>
    <i name="e_fr_energy">   -897.57854975 </i>
    <i name="e_wo_entrp">   -897.57851612 </i>
    <i name="e_0_energy">   -897.57853293 </i>
   </energy>
  </scstep>
  <scstep>
   <time name="dav">   99.51  101.07</time>
   <time name="total">  105.13  106.75</time>
   <energy>
    <i name="e_fr_energy">   -898.22982248 </i>
    <i name="e_wo_entrp">   -898.22978724 </i>
    <i name="e_0_energy">   -898.22980486 </i>
   </energy>
  </scstep>
  <scstep>
   <time name="dav">   87.49   88.84</time>
   <time name="total">   98.26   99.78</time>
   <energy>
    <i name="e_fr_energy">   -879.89537833 </i>
    <i name="e_wo_entrp">   -879.89418715 </i>
    <i name="e_0_energy">   -879.89478274 </i>
   </energy>
  </scstep>
  <scstep>
   <time name="dav">   87.42   88.73</time>
   <time name="total">   98.83  100.32</time>
   <energy>
    <i name="e_fr_energy">   -856.98188499 </i>
    <i name="e_wo_entrp">   -856.98188210 </i>
    <i name="e_0_energy">   -856.98188355 </i>
   </energy>
  </scstep>
  <scstep>
   <time name="dav">   87.87   89.29</time>
   <time name="total">   99.56  101.20</time>
   <energy>
    <i name="e_fr_energy">   -851.98461381 </i>
    <i name="e_wo_entrp">   -851.98461378 </i>
    <i name="e_0_energy">   -851.98461379 </i>
   </energy>
  </scstep>
  <scstep>
   <time name="dav">   85.02   86.42</time>
   <time name="total">   96.76   98.34</time>
   <energy>
    <i name="e_fr_energy">   -851.90786566 </i>
    <i name="e_wo_entrp">   -851.90786565 </i>
    <i name="e_0_energy">   -851.90786565 </i>
   </energy>
  </scstep>
  <scstep>
   <time name="dav">   85.19   86.47</time>
   <time name="total">   96.85   98.28</time>
   <energy>
    <i name="e_fr_energy">   -851.80914518 </i>
    <i name="e_wo_entrp">   -851.80914517 </i>
    <i name="e_0_energy">   -851.80914517 </i>
   </energy>
  </scstep>
  <scstep>
   <time name="dav">   85.60   86.96</time>
   <time name="total">   97.15   98.71</time>
   <energy>
    <i name="e_fr_energy">   -851.79397678 </i>
    <i name="e_wo_entrp">   -851.79397677 </i>
    <i name="e_0_energy">   -851.79397678 </i>
   </energy>
  </scstep>
  <scstep>
   <time name="dav">   88.25   89.65</time>
   <time name="total">  100.13  101.71</time>
   <energy>
    <i name="e_fr_energy">   -851.79324131 </i>
    <i name="e_wo_entrp">   -851.79324130 </i>
    <i name="e_0_energy">   -851.79324130 </i>
   </energy>
  </scstep>
  <scstep>
   <time name="dav">   89.45   90.82</time>
   <time name="total">  101.22  102.74</time>
   <energy>
    <i name="e_fr_energy">   -851.79310527 </i>
    <i name="e_wo_entrp">   -851.79310526 </i>
    <i name="e_0_energy">   -851.79310527 </i>
   </energy>
  </scstep>
  <scstep>
   <time name="dav">   87.30   88.64</time>
   <time name="total">   98.66  100.14</time>
   <energy>
    <i name="e_fr_energy">   -851.79313259 </i>
    <i name="e_wo_entrp">   -851.79313258 </i>
    <i name="e_0_energy">   -851.79313259 </i>
   </energy>
  </scstep>
  <scstep>
   <time name="dav">   84.93   86.32</time>
   <time name="total">   96.45   98.08</time>
   <energy>
    <i name="e_fr_energy">   -851.79317763 </i>
    <i name="e_wo_entrp">   -851.79317762 </i>
    <i name="e_0_energy">   -851.79317763 </i>
   </energy>
  </scstep>
  <scstep>
   <time name="dav">   83.44   84.69</time>
   <time name="total">   95.10   96.57</time>
   <energy>
    <i name="e_fr_energy">   -851.79319947 </i>
    <i name="e_wo_entrp">   -851.79319946 </i>
    <i name="e_0_energy">   -851.79319947 </i>
   </energy>
  </scstep>
  <scstep>
   <time name="dav">   98.65  100.09</time>
   <time name="total">  109.74  111.33</time>
   <energy>
    <i name="e_fr_energy">   -851.79319578 </i>
    <i name="e_wo_entrp">   -851.79319577 </i>
    <i name="e_0_energy">   -851.79319577 </i>
   </energy>
  </scstep>
  <scstep>
   <time name="dav">   78.60   79.62</time>
   <time name="total">   87.69   88.84</time>
   <energy>
    <i name="e_fr_energy">   -851.79319679 </i>
    <i name="e_wo_entrp">   -851.79319678 </i>
    <i name="e_0_energy">   -851.79319679 </i>
   </energy>
  </scstep>
  <scstep>
   <time name="dav">   42.16   42.53</time>
   <time name="total">   46.18   46.60</time>
   <energy>
    <i name="alphaZ">    181.20502200 </i>
    <i name="ewald">  37108.76337948 </i>
    <i name="hartreedc"> -49229.55596602 </i>
    <i name="XCdc">   1302.80663403 </i>
    <i name="pawpsdc">  37993.93755166 </i>
    <i name="pawaedc"> -38061.74016128 </i>
    <i name="eentropy">     -0.00000001 </i>
    <i name="bandstr">  -4300.66816334 </i>
    <i name="atom">  14153.45850732 </i>
    <i name="e_fr_energy">   -851.79319615 </i>
    <i name="e_wo_entrp">   -851.79319614 </i>
    <i name="e_0_energy">   -851.79319615 </i>
   </energy>
  </scstep>
  <structure>
   <crystal>
    <varray name="basis" >
     <v>      17.27103806       0.00000000       0.00000000 </v>
     <v>      -8.63551903      14.95715771       0.00000000 </v>
     <v>       0.00000000       0.00000000      15.00000000 </v>
    </varray>
    <i name="volume">   3874.88459904 </i>
    <varray name="rec_basis" >
     <v>       0.05790040       0.03342881       0.00000000 </v>
     <v>       0.00000000       0.06685762       0.00000000 </v>
     <v>       0.00000000       0.00000000       0.06666667 </v>
    </varray>
   </crystal>
   <varray name="positions" >
    <v>       0.99916194       0.00041213       0.49500106 </v>
    <v>       0.99879727       0.14314411       0.49614708 </v>
    <v>       0.99876333       0.28605228       0.49772963 </v>
    <v>       0.99913739       0.42913578       0.49855826 </v>
    <v>       0.99980556       0.57222856       0.49844244 </v>
    <v>       0.00076660       0.71547356       0.49657728 </v>
    <v>       0.00037253       0.85840301       0.49486881 </v>
    <v>       0.14245427       0.00108129       0.50136403 </v>
    <v>       0.14175574       0.14349020       0.50139215 </v>
    <v>       0.14102632       0.28571357       0.50247090 </v>
    <v>       0.14120169       0.42884772       0.50342574 </v>
    <v>       0.14222891       0.57192461       0.50366429 </v>
    <v>       0.14276958       0.71512682       0.50345532 </v>
    <v>       0.14281772       0.85826473       0.50209909 </v>
    <v>       0.28517078       0.00080213       0.50455547 </v>
    <v>       0.28496174       0.14347161       0.50513756 </v>
    <v>       0.28470713       0.28750666       0.50790855 </v>
    <v>       0.28269260       0.42803809       0.51074550 </v>
    <v>       0.28511944       0.57091631       0.50929141 </v>
    <v>       0.28511480       0.71529129       0.50684925 </v>
    <v>       0.28521549       0.85826639       0.50535735 </v>
    <v>       0.42816475       0.00111727       0.50402912 </v>
    <v>       0.42795189       0.14363565       0.50413654 </v>
    <v>       0.42618608       0.28330119       0.50604108 </v>
    <v>       0.42626698       0.71699442       0.50581163 </v>
    <v>       0.42786921       0.85835675       0.50431743 </v>
    <v>       0.57078633       0.00132034       0.49978575 </v>
    <v>       0.57086387       0.14368986       0.50032308 </v>
    <v>       0.57181693       0.28721443       0.49942965 </v>
    <v>       0.57149372       0.85902111       0.49703046 </v>
    <v>       0.71360109       0.00070745       0.49299995 </v>
    <v>       0.71374081       0.14365251       0.49635381 </v>
    <v>       0.71380018       0.28646686       0.49561280 </v>
    <v>       0.71361606       0.42854021       0.48954719 </v>
    <v>       0.71882917       0.57369757       0.46910964 </v>
    <v>       0.72143659       0.71740732       0.46535193 </v>
    <v>       0.71246898       0.85775770       0.48407897 </v>
    <v>       0.85634033       0.00056631       0.48991694 </v>
    <v>       0.85617724       0.14337327       0.49398958 </v>
    <v>       0.85631476       0.28619897       0.49538798 </v>
    <v>       0.85687179       0.42919085       0.49378463 </v>
    <v>       0.85784768       0.57258501       0.48979394 </v>
    <v>       0.85954822       0.71601365       0.48415245 </v>
    <v>       0.85697599       0.85756111       0.48539201 </v>
    <v>       0.04665288       0.09569948       0.49748592 </v>
    <v>       0.04590248       0.23807829       0.49863183 </v>
    <v>       0.04606833       0.38122705       0.49983257 </v>
    <v>       0.04717950       0.52446047       0.50035831 </v>
    <v>       0.04769755       0.66756930       0.49988884 </v>
    <v>       0.04775176       0.81062074       0.49809017 </v>
    <v>       0.04728379       0.95327769       0.49728972 </v>
    <v>       0.18968577       0.09590080       0.50298835 </v>
    <v>       0.18898503       0.23856831       0.50382897 </v>
    <v>       0.18760671       0.38052333       0.50514767 </v>
    <v>       0.18935392       0.52401444       0.50536125 </v>
    <v>       0.18994924       0.66749863       0.50522998 </v>
    <v>       0.19027401       0.81060276       0.50407267 </v>
    <v>       0.19018529       0.95338447       0.50298182 </v>
    <v>       0.33280333       0.09619470       0.50491614 </v>
    <v>       0.33317487       0.23871335       0.50676736 </v>
    <v>       0.32884673       0.38017897       0.51253259 </v>
    <v>       0.32899352       0.52209380       0.51357480 </v>
    <v>       0.33338081       0.66828489       0.50800606 </v>
    <v>       0.33279599       0.81049112       0.50598351 </v>
    <v>       0.33273835       0.95333131       0.50493742 </v>
    <v>       0.47572237       0.09611742       0.50295202 </v>
    <v>       0.47499210       0.23880025       0.50363619 </v>
    <v>       0.47490067       0.81033173       0.50286904 </v>
    <v>       0.47567354       0.95365495       0.50285344 </v>
    <v>       0.61837016       0.09622100       0.49878260 </v>
    <v>       0.61871726       0.23896604       0.49823545 </v>
    <v>       0.62072229       0.38056586       0.49519162 </v>
    <v>       0.61958186       0.81413292       0.49000949 </v>
    <v>       0.61853319       0.95386268       0.49654470 </v>
    <v>       0.76124042       0.09605584       0.49434918 </v>
    <v>       0.76134693       0.23865172       0.49568391 </v>
    <v>       0.76169633       0.38150176       0.49256561 </v>
    <v>       0.76243332       0.52552404       0.48269056 </v>
    <v>       0.76526598       0.66768646       0.47155577 </v>
    <v>       0.76094160       0.80919650       0.47735683 </v>
    <v>       0.76117811       0.95313882       0.48853118 </v>
    <v>       0.90364022       0.09542994       0.49320425 </v>
    <v>       0.90368336       0.23849689       0.49555115 </v>
    <v>       0.90400033       0.38160385       0.49584884 </v>
    <v>       0.90479676       0.52470010       0.49450985 </v>
    <v>       0.90583507       0.66774299       0.49031506 </v>
    <v>       0.90536419       0.81077190       0.48796440 </v>
    <v>       0.90397136       0.95262325       0.49024806 </v>
    <v>       0.46209931       0.35584494       0.50704864 </v>
    <v>       0.40120318       0.41931752       0.51858871 </v>
    <v>       0.40137705       0.55504239       0.51981618 </v>
    <v>       0.64727212       0.53892608       0.45724304 </v>
    <v>       0.58511252       0.41752276       0.49752333 </v>
    <v>       0.58266754       0.74210691       0.48907771 </v>
    <v>       0.46225909       0.68046296       0.50541195 </v>
    <v>       0.57235136       0.58187829       0.54703706 </v>
    <v>       0.55545622       0.53534138       0.63887074 </v>
    <v>       0.63045812       0.66568908       0.44906031 </v>
    <v>       0.52886120       0.52973207       0.58046333 </v>
   </varray>
  </structure>
  <varray name="forces" >
   <v>      -0.00073881       0.00034759      -0.00054668 </v>
   <v>       0.00007643       0.00064746      -0.00091634 </v>
   <v>       0.00037899       0.00016214      -0.00036478 </v>
   <v>      -0.00069352       0.00033580      -0.00029588 </v>
   <v>      -0.00040634       0.00019509      -0.00139358 </v>
   <v>       0.00123386      -0.00008105      -0.00138090 </v>
   <v>      -0.00002541      -0.00333813      -0.00266896 </v>
   <v>       0.00012239       0.00092950      -0.00189492 </v>
   <v>       0.00085099       0.00039987      -0.00143161 </v>
   <v>       0.00059257       0.00027821       0.00047413 </v>
   <v>       0.00030975       0.00049007      -0.00043436 </v>
   <v>      -0.00163289       0.00051422      -0.00114797 </v>
   <v>       0.00054428       0.00085494      -0.00165040 </v>
   <v>       0.00069254      -0.00024743      -0.00131071 </v>
   <v>       0.00014647      -0.00138909      -0.00113002 </v>
   <v>      -0.00006272      -0.00092986       0.00052752 </v>
   <v>      -0.00030192       0.00010455       0.00145045 </v>
   <v>      -0.00007083      -0.00027082       0.00193454 </v>
   <v>       0.00136821       0.00024389       0.00184281 </v>
   <v>       0.00009167       0.00188829      -0.00001283 </v>
   <v>       0.00069192      -0.00167398      -0.00046767 </v>
   <v>      -0.00086816      -0.00213545      -0.00046468 </v>
   <v>      -0.00003267      -0.00126310       0.00002049 </v>
   <v>      -0.00064319      -0.00072654      -0.00005592 </v>
   <v>       0.00009196       0.00172100       0.00090769 </v>
   <v>      -0.00014750       0.00109635      -0.00050170 </v>
   <v>      -0.00202317      -0.00176440      -0.00072702 </v>
   <v>      -0.00042716      -0.00088957      -0.00048686 </v>
   <v>       0.00080536      -0.00006406       0.00020432 </v>
   <v>      -0.00093924      -0.00088335      -0.00047134 </v>
   <v>      -0.00133777      -0.00035250      -0.00206854 </v>
   <v>      -0.00052016       0.00021336      -0.00164721 </v>
   <v>       0.00035904       0.00043354      -0.00035700 </v>
   <v>       0.00138388       0.00020007       0.00028405 </v>
   <v>       0.00024818      -0.00034387       0.00178743 </v>
   <v>       0.00177929       0.00030221       0.00150066 </v>
   <v>      -0.00132253      -0.00065901       0.00017427 </v>
   <v>      -0.00089954       0.00043361      -0.00071101 </v>
   <v>      -0.00095342       0.00135576      -0.00222557 </v>
   <v>       0.00123419       0.00039361      -0.00065858 </v>
   <v>       0.00003669       0.00036939      -0.00027990 </v>
   <v>       0.00106352      -0.00069877      -0.00008003 </v>
   <v>       0.00001575       0.00021903      -0.00179896 </v>
   <v>      -0.00105946      -0.00019393      -0.00193461 </v>
   <v>      -0.00057949       0.00064616      -0.00143115 </v>
   <v>      -0.00042232       0.00025155      -0.00030116 </v>
   <v>       0.00013917       0.00007294       0.00023822 </v>
   <v>       0.00231958      -0.00098685      -0.00091273 </v>
   <v>      -0.00136028       0.00053604      -0.00151954 </v>
   <v>      -0.00127287      -0.00030084      -0.00168086 </v>
   <v>      -0.00043219       0.00039177      -0.00233463 </v>
   <v>      -0.00055526       0.00109132      -0.00047641 </v>
   <v>      -0.00103812       0.00171437      -0.00067187 </v>
   <v>      -0.00027530       0.00143303       0.00089200 </v>
   <v>       0.00012478      -0.00039604       0.00023337 </v>
   <v>      -0.00055247      -0.00035901      -0.00122466 </v>
   <v>      -0.00117179       0.00004040      -0.00106748 </v>
   <v>      -0.00072187       0.00044891      -0.00106406 </v>
   <v>       0.00011022       0.00207326      -0.00087038 </v>
   <v>       0.00145838       0.00157415       0.00099428 </v>
   <v>       0.00051845      -0.00087593       0.00180685 </v>
   <v>       0.00004341       0.00061438       0.00189713 </v>
   <v>      -0.00134634      -0.00060138       0.00142064 </v>
   <v>      -0.00062806      -0.00025039       0.00001916 </v>
   <v>      -0.00073524       0.00138028      -0.00105638 </v>
   <v>      -0.00062864       0.00269606      -0.00064071 </v>
   <v>      -0.00085170       0.00194996      -0.00025477 </v>
   <v>       0.00054085       0.00013582      -0.00023299 </v>
   <v>       0.00034223       0.00173244      -0.00056053 </v>
   <v>      -0.00021664       0.00134923      -0.00076469 </v>
   <v>      -0.00148293       0.00035802       0.00077914 </v>
   <v>       0.00010124      -0.00014429       0.00094571 </v>
   <v>       0.00098574       0.00109452      -0.00064506 </v>
   <v>       0.00031464       0.00113822      -0.00164184 </v>
   <v>      -0.00025790       0.00004675      -0.00240144 </v>
   <v>       0.00304681      -0.00249243      -0.00135785 </v>
   <v>      -0.00011353      -0.00015687       0.00014442 </v>
   <v>       0.00035973      -0.00026827       0.00046400 </v>
   <v>       0.00029556      -0.00068722       0.00050304 </v>
   <v>       0.00005887      -0.00032076       0.00018808 </v>
   <v>      -0.00013827       0.00072046      -0.00087301 </v>
   <v>       0.00237903      -0.00122162      -0.00110950 </v>
   <v>       0.00030700      -0.00111953      -0.00185019 </v>
   <v>       0.00096243      -0.00061776      -0.00075232 </v>
   <v>       0.00038823       0.00019569      -0.00055231 </v>
   <v>      -0.00023094       0.00013391      -0.00155255 </v>
   <v>       0.00049159      -0.00011990      -0.00221229 </v>
   <v>       0.00009433       0.00111736      -0.00121641 </v>
   <v>      -0.00007068       0.00125871      -0.00037354 </v>
   <v>      -0.00097656       0.00015600       0.00411429 </v>
   <v>       0.00043507       0.00059131       0.00327788 </v>
   <v>      -0.00007808      -0.00031992       0.00394331 </v>
   <v>       0.00080127      -0.00010866      -0.00046182 </v>
   <v>      -0.00078435      -0.00000890      -0.00147811 </v>
   <v>      -0.00103261       0.00066475       0.00057484 </v>
   <v>       0.00098071      -0.00324280       0.00967219 </v>
   <v>       0.00088667      -0.00510048       0.00942192 </v>
   <v>      -0.00264406      -0.00145757       0.00573069 </v>
   <v>       0.00310097      -0.00267501       0.00869023 </v>
  </varray>
  <varray name="stress" >
   <v>       4.96454803       0.33830646       0.01205048 </v>
   <v>       0.33830344       2.88285008      -0.02145169 </v>
   <v>       0.01205009      -0.02145106      -0.25593716 </v>
  </varray>
  <energy>
   <i name="e_fr_energy">   -859.67262156 </i>
   <i name="e_wo_entrp">   -859.67262155 </i>
   <i name="e_0_energy">   -859.67262155 </i>
  </energy>
  <time name="totalsc"> 1940.20 1970.22</time>
 </calculation>
 <calculation>
  <scstep>
   <time name="dav">   80.49   81.74</time>
   <time name="total">   92.24   93.68</time>
   <energy>
    <i name="alphaZ">    181.20502200 </i>
    <i name="ewald">  37108.74177360 </i>
    <i name="hartreedc"> -49229.52730923 </i>
    <i name="XCdc">   1302.80660608 </i>
    <i name="pawpsdc">  37993.94051357 </i>
    <i name="pawaedc"> -38061.74311723 </i>
    <i name="eentropy">     -0.00000001 </i>
    <i name="bandstr">  -4300.67520034 </i>
    <i name="atom">  14153.45850732 </i>
    <i name="e_fr_energy">   -851.79320423 </i>
    <i name="e_wo_entrp">   -851.79320422 </i>
    <i name="e_0_energy">   -851.79320423 </i>
   </energy>
  </scstep>
  <scstep>
   <time name="dav">   72.84   74.02</time>
   <time name="total">   78.27   79.52</time>
   <energy>
    <i name="alphaZ">    181.20502200 </i>
    <i name="ewald">  37108.74177360 </i>
    <i name="hartreedc"> -49229.52692722 </i>
    <i name="XCdc">   1302.80665900 </i>
    <i name="pawpsdc">  37993.88378569 </i>
    <i name="pawaedc"> -38061.68644842 </i>
    <i name="eentropy">     -0.00000001 </i>
    <i name="bandstr">  -4300.67557633 </i>
    <i name="atom">  14153.45850732 </i>
    <i name="e_fr_energy">   -851.79320437 </i>
    <i name="e_wo_entrp">   -851.79320436 </i>
    <i name="e_0_energy">   -851.79320436 </i>
   </energy>
  </scstep>
  <structure>
   <crystal>
    <varray name="basis" >
     <v>      17.27103806       0.00000000       0.00000000 </v>
     <v>      -8.63551903      14.95715771       0.00000000 </v>
     <v>       0.00000000       0.00000000      15.00000000 </v>
    </varray>
    <i name="volume">   3874.88459904 </i>
    <varray name="rec_basis" >
     <v>       0.05790040       0.03342881       0.00000000 </v>
     <v>       0.00000000       0.06685762       0.00000000 </v>
     <v>       0.00000000       0.00000000       0.06666667 </v>
    </varray>
   </crystal>
   <varray name="positions" >
    <v>       0.99916162       0.00041234       0.49500080 </v>
    <v>       0.99879752       0.14314452       0.49614662 </v>
    <v>       0.99876359       0.28605236       0.49772954 </v>
    <v>       0.99913709       0.42913599       0.49855819 </v>
    <v>       0.99980538       0.57222867       0.49844158 </v>
    <v>       0.00076728       0.71547348       0.49657640 </v>
    <v>       0.00037139       0.85840076       0.49486708 </v>
    <v>       0.14245465       0.00108189       0.50136294 </v>
    <v>       0.14175636       0.14349044       0.50139144 </v>
    <v>       0.14102673       0.28571372       0.50247154 </v>
    <v>       0.14120202       0.42884802       0.50342575 </v>
    <v>       0.14222812       0.57192493       0.50366373 </v>
    <v>       0.14277017       0.71512736       0.50345435 </v>
    <v>       0.14281803       0.85826455       0.50209834 </v>
    <v>       0.28517040       0.00080118       0.50455487 </v>
    <v>       0.28496139       0.14347096       0.50513817 </v>
    <v>       0.28470697       0.28750669       0.50790996 </v>
    <v>       0.28269243       0.42803787       0.51074734 </v>
    <v>       0.28512030       0.57091645       0.50929305 </v>
    <v>       0.28511547       0.71529252       0.50684945 </v>
    <v>       0.28521533       0.85826525       0.50535717 </v>
    <v>       0.42816352       0.00111582       0.50402888 </v>
    <v>       0.42795144       0.14363479       0.50413668 </v>
    <v>       0.42618545       0.28330069       0.50604131 </v>
    <v>       0.42626760       0.71699554       0.50581247 </v>
    <v>       0.42786949       0.85835745       0.50431720 </v>
    <v>       0.57078456       0.00131913       0.49978528 </v>
    <v>       0.57086332       0.14368924       0.50032278 </v>
    <v>       0.57181737       0.28721437       0.49942979 </v>
    <v>       0.57149287       0.85902048       0.49703015 </v>
    <v>       0.71360019       0.00070719       0.49299854 </v>
    <v>       0.71374057       0.14365263       0.49635270 </v>
    <v>       0.71380052       0.28646713       0.49561253 </v>
    <v>       0.71361692       0.42854033       0.48954725 </v>
    <v>       0.71882923       0.57369734       0.46911050 </v>
    <v>       0.72143778       0.71740755       0.46535255 </v>
    <v>       0.71246800       0.85775724       0.48407895 </v>
    <v>       0.85633995       0.00056659       0.48991647 </v>
    <v>       0.85617713       0.14337415       0.49398814 </v>
    <v>       0.85631559       0.28619922       0.49538757 </v>
    <v>       0.85687193       0.42919107       0.49378443 </v>
    <v>       0.85784806       0.57258453       0.48979381 </v>
    <v>       0.85954830       0.71601379       0.48415114 </v>
    <v>       0.85697532       0.85756097       0.48539066 </v>
    <v>       0.04665276       0.09569989       0.49748513 </v>
    <v>       0.04590231       0.23807843       0.49863184 </v>
    <v>       0.04606843       0.38122707       0.49983292 </v>
    <v>       0.04718050       0.52445978       0.50035784 </v>
    <v>       0.04769693       0.66756964       0.49988791 </v>
    <v>       0.04775092       0.81062052       0.49808912 </v>
    <v>       0.04728367       0.95327793       0.49728828 </v>
    <v>       0.18968581       0.09590150       0.50298826 </v>
    <v>       0.18898498       0.23856943       0.50382885 </v>
    <v>       0.18760701       0.38052426       0.50514866 </v>
    <v>       0.18935384       0.52401415       0.50536170 </v>
    <v>       0.18994879       0.66749836       0.50522936 </v>
    <v>       0.19027334       0.81060276       0.50407209 </v>
    <v>       0.19018502       0.95338475       0.50298127 </v>
    <v>       0.33280408       0.09619607       0.50491574 </v>
    <v>       0.33317623       0.23871438       0.50676837 </v>
    <v>       0.32884669       0.38017833       0.51253440 </v>
    <v>       0.32899372       0.52209418       0.51357665 </v>
    <v>       0.33337982       0.66828445       0.50800730 </v>
    <v>       0.33279554       0.81049092       0.50598367 </v>
    <v>       0.33273838       0.95333221       0.50493683 </v>
    <v>       0.47572290       0.09611920       0.50295166 </v>
    <v>       0.47499225       0.23880154       0.50363615 </v>
    <v>       0.47490103       0.81033178       0.50286899 </v>
    <v>       0.47567431       0.95365608       0.50285312 </v>
    <v>       0.61837048       0.09622188       0.49878209 </v>
    <v>       0.61871651       0.23896626       0.49823596 </v>
    <v>       0.62072228       0.38056574       0.49519214 </v>
    <v>       0.61958280       0.81413362       0.49000896 </v>
    <v>       0.61853374       0.95386341       0.49654359 </v>
    <v>       0.76124028       0.09605585       0.49434757 </v>
    <v>       0.76134785       0.23865003       0.49568301 </v>
    <v>       0.76169620       0.38150164       0.49256565 </v>
    <v>       0.76243344       0.52552384       0.48269067 </v>
    <v>       0.76526594       0.66768600       0.47155582 </v>
    <v>       0.76094155       0.80919629       0.47735675 </v>
    <v>       0.76117827       0.95313928       0.48853053 </v>
    <v>       0.90364118       0.09542910       0.49320357 </v>
    <v>       0.90368315       0.23849612       0.49554999 </v>
    <v>       0.90400067       0.38160342       0.49584839 </v>
    <v>       0.90479704       0.52470022       0.49450948 </v>
    <v>       0.90583498       0.66774306       0.49031398 </v>
    <v>       0.90536444       0.81077181       0.48796288 </v>
    <v>       0.90397178       0.95262398       0.49024727 </v>
    <v>       0.46209968       0.35584577       0.50704869 </v>
    <v>       0.40120261       0.41931755       0.51859217 </v>
    <v>       0.40137745       0.55504276       0.51981908 </v>
    <v>       0.64727203       0.53892585       0.45724521 </v>
    <v>       0.58511294       0.41752267       0.49752286 </v>
    <v>       0.58266710       0.74210687       0.48907661 </v>
    <v>       0.46225871       0.68046337       0.50541260 </v>
    <v>       0.57235004       0.58187567       0.54704197 </v>
    <v>       0.55545589       0.53533868       0.63887535 </v>
    <v>       0.63045624       0.66568825       0.44906341 </v>
    <v>       0.52886211       0.52973039       0.58046823 </v>
   </varray>
  </structure>
  <varray name="forces" >
   <v>      -0.00031664       0.00032239      -0.00070876 </v>
   <v>       0.00027820       0.00029624      -0.00091582 </v>
   <v>       0.00028331      -0.00001316      -0.00035571 </v>
   <v>       0.00026951      -0.00021494      -0.00026870 </v>
   <v>       0.00035280      -0.00001295      -0.00133634 </v>
   <v>       0.00007999      -0.00005455      -0.00148424 </v>
   <v>      -0.00036584       0.00324773      -0.00306547 </v>
   <v>      -0.00042633       0.00050977      -0.00185726 </v>
   <v>       0.00003136       0.00066664      -0.00137351 </v>
   <v>      -0.00009892       0.00065055       0.00047518 </v>
   <v>       0.00006620       0.00041413      -0.00022754 </v>
   <v>      -0.00010683      -0.00003998      -0.00103577 </v>
   <v>      -0.00012670       0.00016497      -0.00164090 </v>
   <v>      -0.00041162       0.00003752      -0.00133024 </v>
   <v>      -0.00026823       0.00006162      -0.00111810 </v>
   <v>       0.00011457       0.00032253       0.00055402 </v>
   <v>       0.00016591      -0.00002819       0.00146389 </v>
   <v>       0.00014272      -0.00004072       0.00205018 </v>
   <v>       0.00031514       0.00016146       0.00186085 </v>
   <v>      -0.00026457       0.00029925       0.00007961 </v>
   <v>       0.00012150       0.00399359      -0.00083592 </v>
   <v>      -0.00062826       0.00015881      -0.00050388 </v>
   <v>      -0.00015251       0.00058517      -0.00002838 </v>
   <v>       0.00001663       0.00085837       0.00003742 </v>
   <v>      -0.00057576       0.00054531       0.00103841 </v>
   <v>      -0.00001870       0.00076448      -0.00041928 </v>
   <v>      -0.00053420       0.00009668      -0.00081886 </v>
   <v>      -0.00034817       0.00013887      -0.00041057 </v>
   <v>      -0.00012213       0.00014399       0.00035866 </v>
   <v>      -0.00008512       0.00001679      -0.00056049 </v>
   <v>      -0.00044037       0.00012409      -0.00209310 </v>
   <v>       0.00006330      -0.00040479      -0.00167781 </v>
   <v>       0.00060200      -0.00050883      -0.00025140 </v>
   <v>       0.00048006      -0.00003929       0.00041796 </v>
   <v>       0.00020984      -0.00058433       0.00188804 </v>
   <v>      -0.00129704      -0.00137319       0.00213858 </v>
   <v>      -0.00006816       0.00006703       0.00010780 </v>
   <v>      -0.00019613       0.00014571      -0.00073984 </v>
   <v>       0.00009208      -0.00009476      -0.00224603 </v>
   <v>      -0.00031060      -0.00021572      -0.00203793 </v>
   <v>       0.00037618      -0.00015759      -0.00025763 </v>
   <v>       0.00052486      -0.00020438      -0.00017694 </v>
   <v>       0.00022094      -0.00006027      -0.00176604 </v>
   <v>      -0.00029191       0.00030240      -0.00180148 </v>
   <v>       0.00008330       0.00057465      -0.00133687 </v>
   <v>       0.00000998       0.00035511      -0.00024766 </v>
   <v>       0.00084612      -0.00012890      -0.00124219 </v>
   <v>       0.00047999      -0.00029907      -0.00096230 </v>
   <v>      -0.00010415       0.00013486      -0.00150147 </v>
   <v>      -0.00000191      -0.00057350      -0.00169508 </v>
   <v>      -0.00010232      -0.00039464      -0.00230675 </v>
   <v>      -0.00012223       0.00060926      -0.00050266 </v>
   <v>      -0.00028159       0.00074487      -0.00050548 </v>
   <v>       0.00006605       0.00062044       0.00097340 </v>
   <v>       0.00005356       0.00012686       0.00028608 </v>
   <v>      -0.00030890       0.00039083      -0.00117550 </v>
   <v>      -0.00011248      -0.00005343      -0.00104556 </v>
   <v>      -0.00018224      -0.00004684      -0.00112102 </v>
   <v>      -0.00000007       0.00012288      -0.00074016 </v>
   <v>       0.00006986       0.00010516       0.00108374 </v>
   <v>       0.00007405      -0.00042250       0.00211107 </v>
   <v>       0.00069107       0.00016801       0.00219066 </v>
   <v>      -0.00032670       0.00032503       0.00149384 </v>
   <v>       0.00006353       0.00032234       0.00001626 </v>
   <v>      -0.00025582      -0.00041403      -0.00098025 </v>
   <v>      -0.00041712       0.00010933      -0.00053595 </v>
   <v>      -0.00010400       0.00050559      -0.00016545 </v>
   <v>       0.00000890       0.00056289      -0.00016059 </v>
   <v>      -0.00046099       0.00017953      -0.00049406 </v>
   <v>      -0.00050439      -0.00003422      -0.00077449 </v>
   <v>       0.00114121       0.00023706      -0.00064918 </v>
   <v>       0.00082624       0.00003106       0.00086718 </v>
   <v>      -0.00022588      -0.00006845      -0.00052826 </v>
   <v>      -0.00065155      -0.00014405      -0.00153987 </v>
   <v>      -0.00032556      -0.00003421      -0.00243136 </v>
   <v>      -0.00417952       0.00251478      -0.00209287 </v>
   <v>       0.00051820      -0.00017102       0.00016499 </v>
   <v>       0.00068155      -0.00035813       0.00056475 </v>
   <v>       0.00049602      -0.00054033       0.00054537 </v>
   <v>      -0.00011053      -0.00013254       0.00020544 </v>
   <v>      -0.00056409       0.00017824      -0.00087412 </v>
   <v>       0.00072931      -0.00017476      -0.00112937 </v>
   <v>       0.00045867      -0.00022911      -0.00175372 </v>
   <v>       0.00026204      -0.00011803      -0.00067575 </v>
   <v>      -0.00169756      -0.00243516       0.00037201 </v>
   <v>       0.00029836      -0.00014985      -0.00148330 </v>
   <v>      -0.00013499      -0.00045583      -0.00232148 </v>
   <v>      -0.00029317       0.00024155      -0.00121307 </v>
   <v>      -0.00005823       0.00060792      -0.00033308 </v>
   <v>      -0.00070380       0.00012131       0.00417494 </v>
   <v>       0.00040566       0.00045994       0.00331813 </v>
   <v>      -0.00010861      -0.00042024       0.00397804 </v>
   <v>       0.00062416      -0.00009004      -0.00036857 </v>
   <v>      -0.00064549       0.00027399      -0.00140861 </v>
   <v>      -0.00075248       0.00053950       0.00064549 </v>
   <v>       0.00141572      -0.00238498       0.00922580 </v>
   <v>       0.00124401      -0.00496690       0.00996281 </v>
   <v>       0.00262050      -0.00303156       0.00642337 </v>
   <v>       0.00221598      -0.00393916       0.00856609 </v>
  </varray>
  <varray name="stress" >
   <v>       4.96177292       0.34005455       0.01117336 </v>
   <v>       0.34005155       2.87798944      -0.02131618 </v>
   <v>       0.01117298      -0.02131555      -0.25486994 </v>
  </varray>
  <energy>
   <i name="e_fr_energy">   -859.67262656 </i>
   <i name="e_wo_entrp">   -859.67262655 </i>
   <i name="e_0_energy">   -859.67262655 </i>
  </energy>
  <time name="totalsc">  522.87  529.54</time>
 </calculation>
 <calculation>
  <scstep>
   <time name="dav">   79.52   80.89</time>
   <time name="total">   91.37   92.93</time>
   <energy>
    <i name="alphaZ">    181.20502200 </i>
    <i name="ewald">  37108.70818385 </i>
    <i name="hartreedc"> -49229.49039836 </i>
    <i name="XCdc">   1302.80670799 </i>
    <i name="pawpsdc">  37993.82953079 </i>
[...]
       <r>   -17.2282     8.3136    34.5865 </r>
       <r>   -17.1034    11.4023    36.0094 </r>
       <r>   -16.9787     4.0729    36.5176 </r>
       <r>   -16.8539     8.1207    37.5310 </r>
       <r>   -16.7291     9.6675    38.7373 </r>
       <r>   -16.6043     3.1571    39.1313 </r>
       <r>   -16.4795     6.4166    39.9320 </r>
       <r>   -16.3547     7.2448    40.8360 </r>
       <r>   -16.2299    15.7072    42.7961 </r>
       <r>   -16.1052     7.8963    43.7814 </r>
       <r>   -15.9804     2.1748    44.0528 </r>
       <r>   -15.8556     3.0855    44.4379 </r>
       <r>   -15.7308     2.5243    44.7529 </r>
       <r>   -15.6060     3.5393    45.1945 </r>
       <r>   -15.4812     1.1605    45.3393 </r>
       <r>   -15.3564     7.8908    46.3240 </r>
       <r>   -15.2317     8.1432    47.3402 </r>
       <r>   -15.1069     7.5406    48.2811 </r>
       <r>   -14.9821     5.9816    49.0276 </r>
       <r>   -14.8573    14.3987    50.8243 </r>
       <r>   -14.7325     9.3905    51.9961 </r>
       <r>   -14.6077     2.4939    52.3073 </r>
       <r>   -14.4829    11.1787    53.7023 </r>
       <r>   -14.3581    11.1188    55.0898 </r>
       <r>   -14.2334     7.8573    56.0702 </r>
       <r>   -14.1086     8.9606    57.1884 </r>
       <r>   -13.9838    12.0470    58.6917 </r>
       <r>   -13.8590     4.6486    59.2718 </r>
       <r>   -13.7342     4.7485    59.8643 </r>
       <r>   -13.6094     5.5892    60.5618 </r>
       <r>   -13.4846     8.3962    61.6095 </r>
       <r>   -13.3599     8.5060    62.6710 </r>
       <r>   -13.2351     7.4520    63.6009 </r>
       <r>   -13.1103     7.4693    64.5329 </r>
       <r>   -12.9855     5.9031    65.2696 </r>
       <r>   -12.8607     2.9559    65.6384 </r>
       <r>   -12.7359     7.9452    66.6299 </r>
       <r>   -12.6111     7.3556    67.5477 </r>
       <r>   -12.4863     9.9679    68.7916 </r>
       <r>   -12.3616    14.2213    70.5662 </r>
       <r>   -12.2368    11.6225    72.0165 </r>
       <r>   -12.1120     7.5437    72.9579 </r>
       <r>   -11.9872     5.5570    73.6513 </r>
       <r>   -11.8624     6.5629    74.4703 </r>
       <r>   -11.7376    11.4722    75.9019 </r>
       <r>   -11.6128     8.7146    76.9893 </r>
       <r>   -11.4881     7.9800    77.9851 </r>
       <r>   -11.3633    12.4055    79.5332 </r>
       <r>   -11.2385    10.8999    80.8933 </r>
       <r>   -11.1137    13.7859    82.6136 </r>
       <r>   -10.9889     7.9480    83.6054 </r>
       <r>   -10.8641     8.2486    84.6348 </r>
       <r>   -10.7393    16.2095    86.6575 </r>
       <r>   -10.6146     5.6741    87.3655 </r>
       <r>   -10.4898     6.6439    88.1946 </r>
       <r>   -10.3650     3.7082    88.6573 </r>
       <r>   -10.2402    13.5342    90.3462 </r>
       <r>   -10.1154    12.8412    91.9486 </r>
       <r>    -9.9906    15.9967    93.9448 </r>
       <r>    -9.8658    17.0294    96.0698 </r>
       <r>    -9.7410    17.0564    98.1982 </r>
       <r>    -9.6163    18.9564   100.5637 </r>
       <r>    -9.4915    11.6519   102.0177 </r>
       <r>    -9.3667    15.1351   103.9064 </r>
       <r>    -9.2419    18.1076   106.1660 </r>
       <r>    -9.1171    15.6313   108.1166 </r>
       <r>    -8.9923    21.6562   110.8190 </r>
       <r>    -8.8675    22.2357   113.5937 </r>
       <r>    -8.7428    31.8483   117.5679 </r>
       <r>    -8.6180    25.5382   120.7547 </r>
       <r>    -8.4932    16.7183   122.8410 </r>
       <r>    -8.3684    17.5362   125.0292 </r>
       <r>    -8.2436    19.6644   127.4831 </r>
       <r>    -8.1188    20.3435   130.0217 </r>
       <r>    -7.9940    25.0261   133.1446 </r>
       <r>    -7.8692    17.2648   135.2990 </r>
       <r>    -7.7445    16.9442   137.4134 </r>
       <r>    -7.6197    18.5859   139.7327 </r>
       <r>    -7.4949    15.2550   141.6363 </r>
       <r>    -7.3701     6.9233   142.5003 </r>
       <r>    -7.2453     9.9619   143.7434 </r>
       <r>    -7.1205    26.8042   147.0882 </r>
       <r>    -6.9957    17.7544   149.3037 </r>
       <r>    -6.8710    17.3261   151.4657 </r>
       <r>    -6.7462    10.8816   152.8236 </r>
       <r>    -6.6214    10.7416   154.1640 </r>
       <r>    -6.4966    10.4925   155.4733 </r>
       <r>    -6.3718    13.1446   157.1136 </r>
       <r>    -6.2470    11.2238   158.5142 </r>
       <r>    -6.1222    16.8282   160.6141 </r>
       <r>    -5.9974    19.1409   163.0027 </r>
       <r>    -5.8727    14.4884   164.8106 </r>
       <r>    -5.7479    16.4689   166.8657 </r>
       <r>    -5.6231    15.9607   168.8574 </r>
       <r>    -5.4983    10.7683   170.2011 </r>
       <r>    -5.3735     8.0233   171.2023 </r>
       <r>    -5.2487     4.0451   171.7071 </r>
       <r>    -5.1239     2.1385   171.9739 </r>
       <r>    -4.9992     8.6813   173.0573 </r>
       <r>    -4.8744    22.6059   175.8782 </r>
       <r>    -4.7496    15.3514   177.7938 </r>
       <r>    -4.6248     6.8092   178.6435 </r>
       <r>    -4.5000     8.9890   179.7652 </r>
       <r>    -4.3752     3.8804   180.2494 </r>
       <r>    -4.2504     1.2128   180.4008 </r>
       <r>    -4.1257     8.7141   181.4882 </r>
       <r>    -4.0009     6.2832   182.2722 </r>
       <r>    -3.8761     7.3214   183.1858 </r>
       <r>    -3.7513     7.7782   184.1565 </r>
       <r>    -3.6265     6.1995   184.9301 </r>
       <r>    -3.5017     0.5604   185.0000 </r>
       <r>    -3.3769     0.0992   185.0124 </r>
       <r>    -3.2521     2.0742   185.2712 </r>
       <r>    -3.1274     6.3709   186.0662 </r>
       <r>    -3.0026     1.6027   186.2662 </r>
       <r>    -2.8778     1.8298   186.4946 </r>
       <r>    -2.7530     0.0437   186.5000 </r>
       <r>    -2.6282     0.0698   186.5087 </r>
       <r>    -2.5034     3.6105   186.9592 </r>
       <r>    -2.3786     0.3266   187.0000 </r>
       <r>    -2.2539     0.0224   187.0028 </r>
       <r>    -2.1291     3.2408   187.4072 </r>
       <r>    -2.0043     0.7437   187.5000 </r>
       <r>    -1.8795     0.0001   187.5000 </r>
       <r>    -1.7547     0.5576   187.5696 </r>
       <r>    -1.6299     3.0224   187.9467 </r>
       <r>    -1.5051     5.1170   188.5853 </r>
       <r>    -1.3803     3.3145   188.9989 </r>
       <r>    -1.2556     0.0368   189.0035 </r>
       <r>    -1.1308     4.8689   189.6111 </r>
       <r>    -1.0060     6.8536   190.4663 </r>
       <r>    -0.8812     2.7880   190.8142 </r>
       <r>    -0.7564    13.0396   192.4414 </r>
       <r>    -0.6316    11.8496   193.9200 </r>
       <r>    -0.5068     6.0607   194.6763 </r>
       <r>    -0.3821    11.9982   196.1735 </r>
       <r>    -0.2573     6.5035   196.9851 </r>
       <r>    -0.1325     3.9932   197.4834 </r>
       <r>    -0.0077     8.9257   198.5972 </r>
       <r>     0.1171     7.9668   199.5913 </r>
       <r>     0.2419    11.7303   201.0551 </r>
       <r>     0.3667    10.7091   202.3915 </r>
       <r>     0.4914     4.2944   202.9274 </r>
       <r>     0.6162     3.3934   203.3508 </r>
       <r>     0.7410    11.3496   204.7671 </r>
       <r>     0.8658     8.8070   205.8661 </r>
       <r>     0.9906     6.7844   206.7127 </r>
       <r>     1.1154    10.3309   208.0019 </r>
       <r>     1.2402     6.3410   208.7931 </r>
       <r>     1.3650     7.9480   209.7849 </r>
       <r>     1.4897    10.8873   211.1435 </r>
       <r>     1.6145    18.4450   213.4452 </r>
       <r>     1.7393    17.9176   215.6811 </r>
       <r>     1.8641     9.8130   216.9056 </r>
       <r>     1.9889     8.9049   218.0168 </r>
       <r>     2.1137    24.2945   221.0485 </r>
       <r>     2.2385    15.4324   222.9742 </r>
       <r>     2.3632    18.2188   225.2477 </r>
       <r>     2.4880    26.5160   228.5565 </r>
       <r>     2.6128     8.3310   229.5961 </r>
       <r>     2.7376    12.0746   231.1029 </r>
       <r>     2.8624    26.7835   234.4451 </r>
       <r>     2.9872    35.2115   238.8390 </r>
       <r>     3.1120    21.3273   241.5004 </r>
       <r>     3.2368    22.4312   244.2995 </r>
       <r>     3.3615    23.2388   247.1994 </r>
       <r>     3.4863    21.5797   249.8922 </r>
       <r>     3.6111    18.9915   252.2621 </r>
       <r>     3.7359    15.4321   254.1878 </r>
       <r>     3.8607    29.4935   257.8682 </r>
       <r>     3.9855    20.3167   260.4035 </r>
       <r>     4.1103    21.1408   263.0415 </r>
       <r>     4.2350    13.1133   264.6779 </r>
       <r>     4.3598    30.1170   268.4361 </r>
       <r>     4.4846    12.4896   269.9946 </r>
       <r>     4.6094     0.0430   270.0000 </r>
       <r>     4.7342     0.0000   270.0000 </r>
       <r>     4.8590     0.0000   270.0000 </r>
       <r>     4.9838     0.0000   270.0000 </r>
       <r>     5.1086     0.0000   270.0000 </r>
       <r>     5.2333     0.0000   270.0000 </r>
       <r>     5.3581     0.0000   270.0000 </r>
       <r>     5.4829     0.0000   270.0000 </r>
       <r>     5.6077     0.0000   270.0000 </r>
       <r>     5.7325     0.0000   270.0000 </r>
       <r>     5.8573     0.0000   270.0000 </r>
       <r>     5.9821     0.0000   270.0000 </r>
       <r>     6.1068     0.0000   270.0000 </r>
      </set>
     </set>
    </array>
   </total>
  </dos>
 </calculation>
 <structure name="finalpos" >
  <crystal>
   <varray name="basis" >
    <v>      17.27103806       0.00000000       0.00000000 </v>
    <v>      -8.63551903      14.95715771       0.00000000 </v>
    <v>       0.00000000       0.00000000      15.00000000 </v>
   </varray>
   <i name="volume">   3874.88459904 </i>
   <varray name="rec_basis" >
    <v>       0.05790040       0.03342881       0.00000000 </v>
    <v>       0.00000000       0.06685762       0.00000000 </v>
    <v>       0.00000000       0.00000000       0.06666667 </v>
   </varray>
  </crystal>
  <varray name="positions" >
   <v>       0.99918173       0.00043409       0.49455852 </v>
   <v>       0.99881810       0.14316300       0.49588469 </v>
   <v>       0.99878694       0.28608180       0.49755213 </v>
   <v>       0.99916051       0.42917178       0.49831459 </v>
   <v>       0.99981965       0.57225670       0.49788896 </v>
   <v>       0.00079688       0.71550925       0.49559655 </v>
   <v>       0.00039445       0.85843516       0.49399148 </v>
   <v>       0.14246697       0.00109188       0.50095898 </v>
   <v>       0.14176762       0.14350502       0.50136073 </v>
   <v>       0.14102310       0.28572583       0.50275853 </v>
   <v>       0.14121118       0.42887454       0.50381312 </v>
   <v>       0.14223492       0.57194465       0.50363686 </v>
   <v>       0.14276707       0.71513254       0.50293708 </v>
   <v>       0.14282634       0.85828340       0.50133253 </v>
   <v>       0.28517573       0.00082359       0.50418343 </v>
   <v>       0.28495763       0.14348003       0.50514946 </v>
   <v>       0.28467536       0.28749862       0.50855369 </v>
   <v>       0.28265169       0.42803757       0.51204514 </v>
   <v>       0.28510958       0.57095435       0.51012513 </v>
   <v>       0.28511346       0.71532888       0.50687245 </v>
   <v>       0.28520542       0.85829029       0.50489181 </v>
   <v>       0.42817117       0.00117362       0.50365529 </v>
   <v>       0.42795504       0.14367992       0.50394136 </v>
   <v>       0.42617464       0.28333558       0.50610503 </v>
   <v>       0.42626862       0.71705741       0.50603303 </v>
   <v>       0.42785957       0.85841840       0.50404864 </v>
   <v>       0.57079020       0.00139733       0.49938832 </v>
   <v>       0.57087350       0.14374635       0.50003833 </v>
   <v>       0.57182392       0.28725277       0.49930601 </v>
   <v>       0.57146794       0.85909704       0.49673666 </v>
   <v>       0.71359098       0.00074456       0.49255976 </v>
   <v>       0.71375738       0.14369915       0.49602341 </v>
   <v>       0.71381925       0.28650715       0.49542432 </v>
   <v>       0.71362833       0.42856806       0.48943595 </v>
   <v>       0.71873841       0.57370471       0.46943068 </v>
   <v>       0.72131711       0.71734554       0.46604726 </v>
   <v>       0.71243542       0.85778003       0.48389478 </v>
   <v>       0.85633899       0.00059319       0.48942027 </v>
   <v>       0.85619265       0.14340204       0.49354188 </v>
   <v>       0.85634892       0.28624286       0.49505972 </v>
   <v>       0.85688608       0.42922461       0.49345498 </v>
   <v>       0.85786662       0.57261716       0.48912497 </v>
   <v>       0.85959449       0.71606807       0.48343815 </v>
   <v>       0.85697687       0.85760378       0.48488667 </v>
   <v>       0.04667468       0.09571934       0.49725247 </v>
   <v>       0.04591532       0.23809729       0.49854937 </v>
   <v>       0.04608805       0.38125606       0.49980011 </v>
   <v>       0.04719587       0.52448752       0.50007291 </v>
   <v>       0.04770194       0.66759449       0.49913173 </v>
   <v>       0.04777699       0.81065273       0.49713625 </v>
   <v>       0.04730063       0.95329636       0.49669576 </v>
   <v>       0.18969237       0.09590805       0.50290947 </v>
   <v>       0.18897478       0.23857995       0.50408950 </v>
   <v>       0.18760184       0.38053839       0.50588561 </v>
   <v>       0.18935554       0.52403764       0.50576104 </v>
   <v>       0.18994932       0.66751776       0.50508809 </v>
   <v>       0.19026675       0.81061035       0.50345422 </v>
   <v>       0.19019233       0.95339708       0.50245750 </v>
   <v>       0.33280524       0.09621410       0.50473422 </v>
   <v>       0.33316265       0.23872079       0.50701927 </v>
   <v>       0.32878184       0.38014428       0.51388274 </v>
   <v>       0.32893801       0.52211195       0.51502605 </v>
   <v>       0.33338184       0.66832990       0.50841729 </v>
   <v>       0.33278748       0.81052340       0.50575130 </v>
   <v>       0.33274464       0.95336030       0.50449272 </v>
   <v>       0.47573397       0.09617762       0.50264689 </v>
   <v>       0.47499463       0.23884796       0.50353107 </v>
   <v>       0.47488390       0.81039258       0.50272307 </v>
   <v>       0.47567447       0.95371912       0.50247557 </v>
   <v>       0.61838583       0.09629305       0.49844874 </v>
   <v>       0.61873296       0.23901443       0.49804775 </v>
   <v>       0.62074016       0.38059840       0.49513837 </v>
   <v>       0.61953556       0.81419983       0.48974687 </v>
   <v>       0.61852269       0.95393528       0.49615094 </v>
   <v>       0.76125110       0.09609791       0.49395194 </v>
   <v>       0.76137236       0.23869868       0.49541397 </v>
   <v>       0.76171569       0.38153621       0.49237510 </v>
   <v>       0.76241873       0.52554054       0.48250543 </v>
   <v>       0.76523130       0.66768609       0.47163757 </v>
   <v>       0.76090854       0.80921112       0.47734799 </v>
   <v>       0.76116621       0.95317000       0.48811045 </v>
   <v>       0.90365477       0.09545365       0.49275124 </v>
   <v>       0.90370875       0.23852983       0.49516572 </v>
   <v>       0.90402843       0.38164521       0.49553765 </v>
   <v>       0.90480950       0.52473037       0.49395844 </v>
   <v>       0.90587314       0.66778283       0.48939536 </v>
   <v>       0.90539054       0.81082821       0.48720488 </v>
   <v>       0.90399189       0.95266593       0.48971506 </v>
   <v>       0.46207651       0.35588264       0.50711876 </v>
   <v>       0.40110210       0.41922628       0.52045242 </v>
   <v>       0.40130063       0.55507980       0.52164381 </v>
   <v>       0.64707272       0.53896945       0.45826288 </v>
   <v>       0.58512259       0.41753847       0.49752468 </v>
   <v>       0.58256924       0.74219528       0.48878501 </v>
   <v>       0.46227358       0.68053646       0.50577968 </v>
   <v>       0.57289059       0.58135515       0.55093068 </v>
   <v>       0.55522458       0.53356241       0.64213228 </v>
   <v>       0.63013690       0.66548278       0.45130342 </v>
   <v>       0.52908267       0.52881602       0.58362863 </v>
  </varray>
  <varray name="selective"  type="logical" >
   <v type="logical" >  T  T  T </v>
   <v type="logical" >  T  T  T </v>
   <v type="logical" >  T  T  T </v>
   <v type="logical" >  T  T  T </v>
   <v type="logical" >  T  T  T </v>
   <v type="logical" >  T  T  T </v>
   <v type="logical" >  T  T  T </v>
   <v type="logical" >  T  T  T </v>
   <v type="logical" >  T  T  T </v>
   <v type="logical" >  T  T  T </v>
   <v type="logical" >  T  T  T </v>
   <v type="logical" >  T  T  T </v>
   <v type="logical" >  T  T  T </v>
   <v type="logical" >  T  T  T </v>
   <v type="logical" >  T  T  T </v>
   <v type="logical" >  T  T  T </v>
   <v type="logical" >  T  T  T </v>
   <v type="logical" >  T  T  T </v>
   <v type="logical" >  T  T  T </v>
   <v type="logical" >  T  T  T </v>
   <v type="logical" >  T  T  T </v>
   <v type="logical" >  T  T  T </v>
   <v type="logical" >  T  T  T </v>
   <v type="logical" >  T  T  T </v>
   <v type="logical" >  T  T  T </v>
   <v type="logical" >  T  T  T </v>
   <v type="logical" >  T  T  T </v>
   <v type="logical" >  T  T  T </v>
   <v type="logical" >  T  T  T </v>
   <v type="logical" >  T  T  T </v>
   <v type="logical" >  T  T  T </v>
   <v type="logical" >  T  T  T </v>
   <v type="logical" >  T  T  T </v>
   <v type="logical" >  T  T  T </v>
   <v type="logical" >  T  T  T </v>
   <v type="logical" >  T  T  T </v>
   <v type="logical" >  T  T  T </v>
   <v type="logical" >  T  T  T </v>
   <v type="logical" >  T  T  T </v>
   <v type="logical" >  T  T  T </v>
   <v type="logical" >  T  T  T </v>
   <v type="logical" >  T  T  T </v>
   <v type="logical" >  T  T  T </v>
   <v type="logical" >  T  T  T </v>
   <v type="logical" >  T  T  T </v>
   <v type="logical" >  T  T  T </v>
   <v type="logical" >  T  T  T </v>
   <v type="logical" >  T  T  T </v>
   <v type="logical" >  T  T  T </v>
   <v type="logical" >  T  T  T </v>
   <v type="logical" >  T  T  T </v>
   <v type="logical" >  T  T  T </v>
   <v type="logical" >  T  T  T </v>
   <v type="logical" >  T  T  T </v>
   <v type="logical" >  T  T  T </v>
   <v type="logical" >  T  T  T </v>
   <v type="logical" >  T  T  T </v>
   <v type="logical" >  T  T  T </v>
   <v type="logical" >  T  T  T </v>
   <v type="logical" >  T  T  T </v>
   <v type="logical" >  T  T  T </v>
   <v type="logical" >  T  T  T </v>
   <v type="logical" >  T  T  T </v>
   <v type="logical" >  T  T  T </v>
   <v type="logical" >  T  T  T </v>
   <v type="logical" >  T  T  T </v>
   <v type="logical" >  T  T  T </v>
   <v type="logical" >  T  T  T </v>
   <v type="logical" >  T  T  T </v>
   <v type="logical" >  T  T  T </v>
   <v type="logical" >  T  T  T </v>
   <v type="logical" >  T  T  T </v>
   <v type="logical" >  T  T  T </v>
   <v type="logical" >  T  T  T </v>
   <v type="logical" >  T  T  T </v>
   <v type="logical" >  T  T  T </v>
   <v type="logical" >  T  T  T </v>
   <v type="logical" >  T  T  T </v>
   <v type="logical" >  T  T  T </v>
   <v type="logical" >  T  T  T </v>
   <v type="logical" >  T  T  T </v>
   <v type="logical" >  T  T  T </v>
   <v type="logical" >  T  T  T </v>
   <v type="logical" >  T  T  T </v>
   <v type="logical" >  T  T  T </v>
   <v type="logical" >  T  T  T </v>
   <v type="logical" >  T  T  T </v>
   <v type="logical" >  T  T  T </v>
   <v type="logical" >  T  T  T </v>
   <v type="logical" >  T  T  T </v>
   <v type="logical" >  T  T  T </v>
   <v type="logical" >  T  T  T </v>
   <v type="logical" >  T  T  T </v>
   <v type="logical" >  T  T  T </v>
   <v type="logical" >  T  T  T </v>
   <v type="logical" >  T  T  T </v>
   <v type="logical" >  T  T  T </v>
   <v type="logical" >  T  T  T </v>
   <v type="logical" >  T  T  T </v>
  </varray>
  <nose>
   <v>      -3.00000000       0.00000000       0.00010000       0.00010000 </v>
  </nose>
 </structure>
</modeling>
