unknown system                          
           1
    17.271038    0.000000    0.000000
    -8.635519   14.957158    0.000000
     0.000000    0.000000   15.000000
   C    H    F    O 
    88     9     1     1
Direct configuration=     1
   0.99916162  0.00041234  0.49500080
   0.99879752  0.14314452  0.49614662
   0.99876359  0.28605236  0.49772954
   0.99913709  0.42913599  0.49855819
   0.99980538  0.57222867  0.49844158
   0.00076728  0.71547348  0.49657640
   0.00037139  0.85840076  0.49486708
   0.14245465  0.00108189  0.50136294
   0.14175636  0.14349044  0.50139144
   0.14102673  0.28571372  0.50247154
   0.14120202  0.42884802  0.50342575
   0.14222812  0.57192493  0.50366373
   0.14277017  0.71512736  0.50345435
   0.14281803  0.85826455  0.50209834
   0.28517040  0.00080118  0.50455487
   0.28496139  0.14347096  0.50513817
   0.28470697  0.28750669  0.50790996
   0.28269243  0.42803787  0.51074734
   0.28512030  0.57091645  0.50929305
   0.28511547  0.71529252  0.50684945
   0.28521533  0.85826525  0.50535717
   0.42816352  0.00111582  0.50402888
   0.42795144  0.14363479  0.50413668
   0.42618545  0.28330069  0.50604131
   0.42626760  0.71699554  0.50581247
   0.42786949  0.85835745  0.50431720
   0.57078456  0.00131913  0.49978528
   0.57086332  0.14368924  0.50032278
   0.57181737  0.28721437  0.49942979
   0.57149287  0.85902048  0.49703015
   0.71360019  0.00070719  0.49299854
   0.71374057  0.14365263  0.49635270
   0.71380052  0.28646713  0.49561253
   0.71361692  0.42854033  0.48954725
   0.71882923  0.57369734  0.46911050
   0.72143778  0.71740755  0.46535255
   0.71246800  0.85775724  0.48407895
   0.85633995  0.00056659  0.48991647
   0.85617713  0.14337415  0.49398814
   0.85631559  0.28619922  0.49538757
   0.85687193  0.42919107  0.49378443
   0.85784806  0.57258453  0.48979381
   0.85954830  0.71601379  0.48415114
   0.85697532  0.85756097  0.48539066
   0.04665276  0.09569989  0.49748513
   0.04590231  0.23807843  0.49863184
   0.04606843  0.38122707  0.49983292
   0.04718050  0.52445978  0.50035784
   0.04769693  0.66756964  0.49988791
   0.04775092  0.81062052  0.49808912
   0.04728367  0.95327793  0.49728828
   0.18968581  0.09590150  0.50298826
   0.18898498  0.23856943  0.50382885
   0.18760701  0.38052426  0.50514866
   0.18935384  0.52401415  0.50536170
   0.18994879  0.66749836  0.50522936
   0.19027334  0.81060276  0.50407209
   0.19018502  0.95338475  0.50298127
   0.33280408  0.09619607  0.50491574
   0.33317623  0.23871438  0.50676837
   0.32884669  0.38017833  0.51253440
   0.32899372  0.52209418  0.51357665
   0.33337982  0.66828445  0.50800730
   0.33279554  0.81049092  0.50598367
   0.33273838  0.95333221  0.50493683
   0.47572290  0.09611920  0.50295166
   0.47499225  0.23880154  0.50363615
   0.47490103  0.81033178  0.50286899
   0.47567431  0.95365608  0.50285312
   0.61837048  0.09622188  0.49878209
   0.61871651  0.23896626  0.49823596
   0.62072228  0.38056574  0.49519214
   0.61958280  0.81413362  0.49000896
   0.61853374  0.95386341  0.49654359
   0.76124028  0.09605585  0.49434757
   0.76134785  0.23865003  0.49568301
   0.76169620  0.38150164  0.49256565
   0.76243344  0.52552384  0.48269067
   0.76526594  0.66768600  0.47155582
   0.76094155  0.80919629  0.47735675
   0.76117827  0.95313928  0.48853053
   0.90364118  0.09542910  0.49320357
   0.90368315  0.23849612  0.49554999
   0.90400067  0.38160342  0.49584839
   0.90479704  0.52470022  0.49450948
   0.90583498  0.66774306  0.49031398
   0.90536444  0.81077181  0.48796288
   0.90397178  0.95262398  0.49024727
   0.46209968  0.35584577  0.50704869
   0.40120261  0.41931755  0.51859217
   0.40137745  0.55504276  0.51981908
   0.64727203  0.53892585  0.45724521
   0.58511294  0.41752267  0.49752286
   0.58266710  0.74210687  0.48907661
   0.46225871  0.68046337  0.50541260
   0.57235004  0.58187567  0.54704197
   0.55545589  0.53533868  0.63887535
   0.63045624  0.66568825  0.44906341
   0.52886211  0.52973039  0.58046823
Direct configuration=     2
   0.99916125  0.00041274  0.49500017
   0.99879803  0.14314508  0.49614571
   0.99876399  0.28605240  0.49772940
   0.99913690  0.42913598  0.49855808
   0.99980542  0.57222873  0.49843992
   0.00076791  0.71547335  0.49657456
   0.00037133  0.85840111  0.49486333
   0.14245489  0.00108278  0.50136080
   0.14175716  0.14349112  0.50139010
   0.14102727  0.28571431  0.50247286
   0.14120249  0.42884856  0.50342597
   0.14222731  0.57192515  0.50366272
   0.14277067  0.71512794  0.50345245
   0.14281806  0.85826437  0.50209685
   0.28516990  0.00080034  0.50455369
   0.28496125  0.14347059  0.50513945
   0.28470689  0.28750666  0.50791287
   0.28269231  0.42803760  0.51075119
   0.28512130  0.57091665  0.50929639
   0.28511602  0.71529382  0.50684996
   0.28521673  0.85826714  0.50535656
   0.42816208  0.00111460  0.50402839
   0.42795115  0.14363443  0.50413694
   0.42618521  0.28330085  0.50604187
   0.42626799  0.71699690  0.50581427
   0.42787001  0.85835861  0.50431680
   0.57078265  0.00131808  0.49978427
   0.57086264  0.14368876  0.50032224
   0.57181772  0.28721441  0.49943018
   0.57149206  0.85901988  0.49702945
   0.71359913  0.00070702  0.49299568
   0.71374024  0.14365241  0.49635047
   0.71380101  0.28646697  0.49561207
   0.71361797  0.42854039  0.48954744
   0.71882925  0.57369670  0.46911226
   0.72143757  0.71740679  0.46535420
   0.71246710  0.85775687  0.48407883
   0.85633954  0.00056692  0.48991549
   0.85617705  0.14337485  0.49398523
   0.85631605  0.28619925  0.49538575
   0.85687222  0.42919114  0.49378405
   0.85784865  0.57258392  0.48979346
   0.85954850  0.71601385  0.48414851
   0.85697465  0.85756106  0.48538804
   0.04665290  0.09570066  0.49748365
   0.04590228  0.23807879  0.49863192
   0.04606899  0.38122697  0.49983256
   0.04718158  0.52445892  0.50035687
   0.04769634  0.66757001  0.49988608
   0.04774994  0.81061987  0.49808703
   0.04728334  0.95327783  0.49728542
   0.18968598  0.09590256  0.50298811
   0.18898502  0.23857095  0.50382880
   0.18760752  0.38052551  0.50515075
   0.18935383  0.52401395  0.50536270
   0.18994833  0.66749838  0.50522816
   0.19027264  0.81060269  0.50407097
   0.19018463  0.95338493  0.50298014
   0.33280480  0.09619736  0.50491506
   0.33317752  0.23871536  0.50677050
   0.32884650  0.38017739  0.51253835
   0.32899435  0.52209460  0.51358064
   0.33337883  0.66828427  0.50800988
   0.33279529  0.81049095  0.50598401
   0.33273808  0.95333268  0.50493573
   0.47572314  0.09612086  0.50295101
   0.47499250  0.23880306  0.50363615
   0.47490156  0.81033221  0.50286896
   0.47567477  0.95365720  0.50285252
   0.61837041  0.09622261  0.49878108
   0.61871664  0.23896661  0.49823595
   0.62072281  0.38056565  0.49519311
   0.61958347  0.81413416  0.49000799
   0.61853376  0.95386392  0.49654145
   0.76123992  0.09605580  0.49434433
   0.76134692  0.23865035  0.49568065
   0.76169634  0.38150138  0.49256573
   0.76243386  0.52552339  0.48269096
   0.76526606  0.66768520  0.47155591
   0.76094142  0.80919602  0.47735659
   0.76117812  0.95313981  0.48852923
   0.90364244  0.09542820  0.49320220
   0.90368316  0.23849523  0.49554774
   0.90400109  0.38160292  0.49584754
   0.90479530  0.52469849  0.49450941
   0.90583502  0.66774300  0.49031184
   0.90536441  0.81077137  0.48795975
   0.90397207  0.95262480  0.49024570
   0.46210019  0.35584694  0.50704885
   0.40120163  0.41931759  0.51859928
   0.40137817  0.55504339  0.51982502
   0.64727179  0.53892533  0.45724951
   0.58511365  0.41752250  0.49752196
   0.58266640  0.74210699  0.48907444
   0.46225808  0.68046410  0.50541401
   0.57234785  0.58187099  0.54705127
   0.55545564  0.53533348  0.63888475
   0.63045527  0.66568544  0.44907005
   0.52886291  0.52972612  0.58047783
Direct configuration=     3
   0.99916107  0.00041335  0.49499894
   0.99879880  0.14314562  0.49614435
   0.99876443  0.28605233  0.49772911
   0.99913726  0.42913532  0.49855785
   0.99980548  0.57222821  0.49843755
   0.00076768  0.71547318  0.49657167
   0.00037216  0.85840354  0.49485765
   0.14245465  0.00108361  0.50135771
   0.14175772  0.14349248  0.50138820
   0.14102758  0.28571559  0.50247480
   0.14120297  0.42884928  0.50342653
   0.14222745  0.57192510  0.50366136
   0.14277052  0.71512818  0.50344963
   0.14281893  0.85826603  0.50209530
   0.28516947  0.00080066  0.50455195
   0.28496185  0.14347138  0.50514135
   0.28470703  0.28750651  0.50791720
   0.28269256  0.42803755  0.51075706
   0.28512172  0.57091681  0.50930138
   0.28511562  0.71529413  0.50685082
   0.28521634  0.85826701  0.50535581
   0.42816150  0.00111531  0.50402757
   0.42795154  0.14363584  0.50413720
   0.42618614  0.28330260  0.50604284
   0.42626731  0.71699774  0.50581709
   0.42787054  0.85835969  0.50431632
   0.57078216  0.00131851  0.49978263
   0.57086236  0.14368922  0.50032145
   0.57181787  0.28721472  0.49943084
   0.57149216  0.85902002  0.49702825
   0.71359848  0.00070721  0.49299141
   0.71373973  0.14365209  0.49634706
   0.71380111  0.28646650  0.49561138
   0.71361867  0.42854009  0.48954789
   0.71882929  0.57369565  0.46911494
   0.72143594  0.71740484  0.46535689
   0.71246719  0.85775706  0.48407852
   0.85633933  0.00056706  0.48991396
   0.85617717  0.14337429  0.49398089
   0.85631674  0.28619861  0.49538345
   0.85687223  0.42919025  0.49378354
   0.85784898  0.57258343  0.48979279
   0.85954878  0.71601347  0.48414459
   0.85697454  0.85756145  0.48538427
   0.04665371  0.09570166  0.49748158
   0.04590273  0.23807943  0.49863210
   0.04606911  0.38122690  0.49983271
   0.04718172  0.52445849  0.50035536
   0.04769636  0.66756996  0.49988334
   0.04774958  0.81061929  0.49808381
   0.04728308  0.95327779  0.49728121
   0.18968638  0.09590269  0.50298896
   0.18898529  0.23857210  0.50382899
   0.18760818  0.38052653  0.50515396
   0.18935418  0.52401436  0.50536425
   0.18994818  0.66749904  0.50522645
   0.19027295  0.81060312  0.50406930
   0.19018430  0.95338495  0.50297835
   0.33280468  0.09619724  0.50491425
   0.33317751  0.23871534  0.50677378
   0.32884602  0.38017662  0.51254468
   0.32899553  0.52209476  0.51358700
   0.33337884  0.66828483  0.50801257
   0.33279598  0.81049211  0.50598445
   0.33273758  0.95333249  0.50493416
   0.47572231  0.09612063  0.50295018
   0.47499273  0.23880379  0.50363626
   0.47490189  0.81033324  0.50286900
   0.47567391  0.95365743  0.50285169
   0.61836945  0.09622220  0.49877951
   0.61871759  0.23896667  0.49823542
   0.62072328  0.38056604  0.49519337
   0.61958290  0.81413394  0.49000660
   0.61853233  0.95386345  0.49653837
   0.76123945  0.09605579  0.49433945
   0.76134724  0.23865182  0.49567723
   0.76169706  0.38150103  0.49256584
   0.76243467  0.52552280  0.48269145
   0.76526624  0.66768423  0.47155603
   0.76094087  0.80919557  0.47735626
   0.76117727  0.95314000  0.48852724
   0.90364167  0.09543018  0.49319984
   0.90368350  0.23849486  0.49554447
   0.90400141  0.38160259  0.49584632
   0.90479564  0.52469784  0.49450889
   0.90583544  0.66774259  0.49030871
   0.90536397  0.81077109  0.48795491
   0.90397169  0.95262511  0.49024336
   0.46210063  0.35584808  0.50704915
   0.40120043  0.41931762  0.51860994
   0.40137913  0.55504419  0.51983393
   0.64727137  0.53892447  0.45725586
   0.58511459  0.41752227  0.49752071
   0.58266563  0.74210739  0.48907126
   0.46225734  0.68046507  0.50541621
   0.57234526  0.58186480  0.54706452
   0.55545573  0.53532605  0.63889886
   0.63045372  0.66568275  0.44908004
   0.52886222  0.52971871  0.58049091
Direct configuration=     4
   0.99916119  0.00041422  0.49499680
   0.99879933  0.14314651  0.49614253
   0.99876468  0.28605234  0.49772864
   0.99913797  0.42913438  0.49855744
   0.99980573  0.57222737  0.49843455
   0.00076706  0.71547325  0.49656895
   0.00037141  0.85840237  0.49485044
   0.14245410  0.00108416  0.50135391
   0.14175817  0.14349438  0.50138604
   0.14102778  0.28571756  0.50247739
   0.14120333  0.42885013  0.50342778
   0.14222858  0.57192522  0.50365978
   0.14276972  0.71512832  0.50344598
   0.14281789  0.85826629  0.50209281
   0.28516925  0.00080202  0.50454968
   0.28496206  0.14347120  0.50514267
   0.28470719  0.28750626  0.50792303
   0.28269333  0.42803797  0.51076521
   0.28512175  0.57091705  0.50930806
   0.28511462  0.71529396  0.50685209
   0.28521456  0.85826533  0.50535491
   0.42816162  0.00111755  0.50402642
   0.42795216  0.14363832  0.50413740
   0.42618770  0.28330533  0.50604439
   0.42626590  0.71699840  0.50582096
   0.42787083  0.85836062  0.50431588
   0.57078443  0.00132141  0.49978066
   0.57086236  0.14369028  0.50032040
   0.57181820  0.28721542  0.49943167
   0.57149277  0.85902089  0.49702647
   0.71359784  0.00070767  0.49298574
   0.71373920  0.14365232  0.49634233
   0.71380111  0.28646635  0.49561033
   0.71361904  0.42853947  0.48954861
   0.71882948  0.57369440  0.46911851
   0.72143537  0.71740315  0.46536009
   0.71246777  0.85775756  0.48407789
   0.85633905  0.00056761  0.48991178
   0.85617702  0.14337326  0.49397514
   0.85631738  0.28619782  0.49538050
   0.85687226  0.42918874  0.49378292
   0.85784869  0.57258473  0.48979045
   0.85954931  0.71601283  0.48413936
   0.85697477  0.85756180  0.48537933
   0.04665485  0.09570271  0.49747904
   0.04590382  0.23808031  0.49863243
   0.04606910  0.38122695  0.49983341
   0.04718100  0.52445859  0.50035330
   0.04769690  0.66756940  0.49987966
   0.04775026  0.81062004  0.49807937
   0.04728317  0.95327894  0.49727569
   0.18968683  0.09590354  0.50298934
   0.18898580  0.23857287  0.50382973
   0.18760884  0.38052736  0.50515843
   0.18935502  0.52401554  0.50536647
   0.18994836  0.66750008  0.50522432
   0.19027398  0.81060416  0.50406712
   0.19018411  0.95338564  0.50297584
   0.33280400  0.09619640  0.50491352
   0.33317674  0.23871498  0.50677833
   0.32884535  0.38017641  0.51255394
   0.32899687  0.52209481  0.51359617
   0.33337945  0.66828598  0.50801572
   0.33279758  0.81049161  0.50598474
   0.33273677  0.95333209  0.50493222
   0.47572086  0.09611946  0.50294925
   0.47499309  0.23880422  0.50363666
   0.47490181  0.81033474  0.50286922
   0.47567217  0.95365738  0.50285059
   0.61836808  0.09622122  0.49877729
   0.61871755  0.23896633  0.49823562
   0.62072397  0.38056663  0.49519292
   0.61958153  0.81413344  0.49000474
   0.61853013  0.95386266  0.49653437
   0.76123890  0.09605589  0.49433286
   0.76134919  0.23865086  0.49567321
   0.76169796  0.38150061  0.49256595
   0.76243564  0.52552213  0.48269212
   0.76526613  0.66768318  0.47155612
   0.76093980  0.80919481  0.47735565
   0.76117624  0.95314000  0.48852450
   0.90364136  0.09543152  0.49319671
   0.90368423  0.23849507  0.49554027
   0.90400173  0.38160225  0.49584480
   0.90479785  0.52469828  0.49450783
   0.90583594  0.66774189  0.49030456
   0.90536358  0.81077168  0.48794824
   0.90397090  0.95262526  0.49024029
   0.46210111  0.35584952  0.50704971
   0.40119916  0.41931770  0.51862432
   0.40138031  0.55504520  0.51984598
   0.64727075  0.53892334  0.45726406
   0.58511556  0.41752231  0.49751913
   0.58266467  0.74210791  0.48906707
   0.46225653  0.68046629  0.50541933
   0.57234211  0.58185712  0.54708128
   0.55545614  0.53531672  0.63891637
   0.63045110  0.66567985  0.44909357
   0.52886035  0.52970789  0.58050875
Direct configuration=     5
   0.99916259  0.00041555  0.49499478
   0.99879969  0.14314768  0.49614025
   0.99876489  0.28605249  0.49772801
   0.99913856  0.42913392  0.49855679
   0.99980654  0.57222679  0.49843096
   0.00076719  0.71547330  0.49656609
   0.00036992  0.85839922  0.49484176
   0.14245374  0.00108471  0.50134960
   0.14175894  0.14349621  0.50138393
   0.14102633  0.28571553  0.50248016
   0.14120372  0.42885094  0.50343016
   0.14222994  0.57192599  0.50365810
   0.14276906  0.71512865  0.50344159
   0.14281831  0.85826780  0.50209009
   0.28516917  0.00080306  0.50454695
   0.28496222  0.14347181  0.50514243
   0.28470708  0.28750595  0.50793053
   0.28269442  0.42803873  0.51077595
   0.28512236  0.57091754  0.50931646
   0.28511411  0.71529383  0.50685371
   0.28521576  0.85826749  0.50535351
   0.42816133  0.00111906  0.50402493
   0.42795129  0.14363689  0.50413660
   0.42618856  0.28330732  0.50604673
   0.42626508  0.71699973  0.50582581
   0.42787097  0.85836140  0.50431555
   0.57078439  0.00132241  0.49977792
   0.57086182  0.14369053  0.50031917
   0.57181890  0.28721621  0.49943255
   0.57149268  0.85902171  0.49702408
   0.71359662  0.00070781  0.49297866
   0.71373894  0.14365262  0.49633619
   0.71380177  0.28646608  0.49560891
   0.71361962  0.42853872  0.48954954
   0.71882966  0.57369306  0.46912285
   0.72143563  0.71740204  0.46536383
   0.71246761  0.85775749  0.48407682
   0.85633854  0.00056849  0.48990881
   0.85617652  0.14337285  0.49396800
   0.85631835  0.28619718  0.49537670
   0.85687330  0.42918789  0.49378221
   0.85784972  0.57258466  0.48978798
   0.85954953  0.71601227  0.48413407
   0.85697483  0.85756200  0.48537321
   0.04665569  0.09570372  0.49747610
   0.04590513  0.23808131  0.49863291
   0.04607021  0.38122689  0.49983334
   0.04718072  0.52445865  0.50035075
   0.04769736  0.66756886  0.49987506
   0.04775097  0.81062124  0.49807363
   0.04728311  0.95328025  0.49726886
   0.18968707  0.09590506  0.50298903
   0.18898646  0.23857376  0.50383138
   0.18760946  0.38052848  0.50516435
   0.18935759  0.52401775  0.50536851
   0.18994847  0.66750075  0.50522190
   0.19027404  0.81060482  0.50406442
   0.19018371  0.95338687  0.50297253
   0.33280381  0.09619635  0.50491298
   0.33317685  0.23871514  0.50678415
   0.32884487  0.38017665  0.51256669
   0.32899794  0.52209523  0.51360863
   0.33337938  0.66828664  0.50801982
   0.33279538  0.81049144  0.50598444
   0.33273556  0.95333178  0.50493000
   0.47572021  0.09611987  0.50294825
   0.47499389  0.23880549  0.50363748
   0.47490159  0.81033614  0.50286970
   0.47567152  0.95365867  0.50284919
   0.61836779  0.09622172  0.49877428
   0.61871684  0.23896626  0.49823645
   0.62072496  0.38056696  0.49519184
   0.61958075  0.81413358  0.49000225
   0.61852920  0.95386300  0.49652947
   0.76123833  0.09605594  0.49432448
   0.76134849  0.23865098  0.49566794
   0.76169840  0.38149981  0.49256602
   0.76243641  0.52552143  0.48269287
   0.76526602  0.66768190  0.47155612
   0.76093882  0.80919377  0.47735462
   0.76117575  0.95314023  0.48852094
   0.90364210  0.09543138  0.49319271
   0.90368528  0.23849528  0.49553521
   0.90400223  0.38160144  0.49584306
   0.90479567  0.52469659  0.49450801
   0.90583637  0.66774174  0.49029931
   0.90536352  0.81077227  0.48793964
   0.90397027  0.95262561  0.49023649
   0.46210193  0.35585174  0.50705068
   0.40119797  0.41931778  0.51864257
   0.40138175  0.55504635  0.51986134
   0.64727006  0.53892193  0.45727389
   0.58511647  0.41752280  0.49751720
   0.58266337  0.74210814  0.48906194
   0.46225571  0.68046771  0.50542353
   0.57233742  0.58184688  0.54710154
   0.55545716  0.53530583  0.63893627
   0.63044753  0.66567652  0.44911096
   0.52885833  0.52969456  0.58053090
Direct configuration=     6
   0.99916383  0.00041676  0.49499208
   0.99879998  0.14314853  0.49613737
   0.99876570  0.28605297  0.49772699
   0.99913890  0.42913412  0.49855562
   0.99980657  0.57222633  0.49842677
   0.00076933  0.71547409  0.49656496
   0.00037083  0.85840165  0.49483103
   0.14245347  0.00108575  0.50134466
   0.14175980  0.14349734  0.50138195
   0.14102742  0.28571641  0.50248379
   0.14120493  0.42885195  0.50343370
   0.14223085  0.57192740  0.50365615
   0.14276927  0.71512944  0.50343639
   0.14282015  0.85827024  0.50208672
   0.28516855  0.00080298  0.50454369
   0.28496174  0.14347138  0.50514244
   0.28470692  0.28750628  0.50793976
   0.28269492  0.42803956  0.51078943
   0.28512421  0.57091852  0.50932634
   0.28511372  0.71529442  0.50685395
   0.28521589  0.85826751  0.50535173
   0.42815998  0.00111886  0.50402294
   0.42795053  0.14363668  0.50413585
   0.42618852  0.28330797  0.50604994
   0.42626523  0.71700185  0.50583143
   0.42786994  0.85836212  0.50431522
   0.57078132  0.00132111  0.49977419
   0.57086070  0.14369009  0.50031774
   0.57181959  0.28721682  0.49943329
   0.57149069  0.85902037  0.49702133
   0.71359499  0.00070750  0.49297005
   0.71373859  0.14365291  0.49632836
   0.71380211  0.28646552  0.49560700
   0.71362062  0.42853806  0.48955047
   0.71882949  0.57369174  0.46912782
   0.72143559  0.71740104  0.46536808
   0.71246624  0.85775658  0.48407505
   0.85633793  0.00056899  0.48990478
   0.85617604  0.14337322  0.49395934
   0.85631887  0.28619687  0.49537169
   0.85687426  0.42918759  0.49378141
   0.85785119  0.57258265  0.48978534
   0.85954992  0.71601405  0.48412966
   0.85697443  0.85756240  0.48536577
   0.04665606  0.09570504  0.49747281
   0.04590529  0.23808153  0.49863325
   0.04607143  0.38122923  0.49983475
   0.04718178  0.52445831  0.50034760
   0.04769704  0.66756852  0.49986949
   0.04774979  0.81062032  0.49806776
   0.04728231  0.95327970  0.49726217
   0.18968697  0.09590574  0.50298888
   0.18898683  0.23857446  0.50383402
   0.18760949  0.38052893  0.50517165
   0.18935907  0.52401894  0.50537159
   0.18994809  0.66750071  0.50521917
   0.19027297  0.81060544  0.50406105
   0.19018334  0.95338848  0.50296823
   0.33280409  0.09619729  0.50491223
   0.33317810  0.23871615  0.50679085
   0.32884462  0.38017669  0.51258315
   0.32899876  0.52209645  0.51362461
   0.33337841  0.66828665  0.50802521
   0.33279451  0.81049029  0.50598406
   0.33273491  0.95333287  0.50492741
   0.47572049  0.09612182  0.50294700
   0.47499427  0.23880689  0.50363859
   0.47490127  0.81033715  0.50287039
   0.47567223  0.95366111  0.50284733
   0.61836854  0.09622381  0.49877020
   0.61871734  0.23896689  0.49823632
   0.62072597  0.38056699  0.49519026
   0.61958070  0.81413448  0.48999890
   0.61852960  0.95386459  0.49652355
   0.76123780  0.09605604  0.49431411
   0.76134918  0.23864892  0.49566209
   0.76169856  0.38149867  0.49256593
   0.76243691  0.52552060  0.48269362
   0.76526595  0.66768033  0.47155605
   0.76093835  0.80919282  0.47735303
   0.76117551  0.95314070  0.48851632
   0.90364331  0.09543043  0.49318759
   0.90368593  0.23849477  0.49552921
   0.90400326  0.38160020  0.49584099
   0.90479578  0.52469636  0.49450675
   0.90583704  0.66774240  0.49029305
   0.90536340  0.81077091  0.48793041
   0.90397023  0.95262691  0.49023325
   0.46210290  0.35585453  0.50705203
   0.40119687  0.41931778  0.51866452
   0.40138306  0.55504746  0.51987987
   0.64726921  0.53892023  0.45728515
   0.58511729  0.41752360  0.49751479
   0.58266164  0.74210809  0.48905585
   0.46225487  0.68046927  0.50542878
   0.57233028  0.58183313  0.54712568
   0.55545894  0.53529347  0.63895885
   0.63044119  0.66567327  0.44913025
   0.52885671  0.52967944  0.58055660
Direct configuration=     7
   0.99916321  0.00041562  0.49498931
   0.99880044  0.14314858  0.49613343
   0.99876760  0.28605441  0.49772544
   0.99913980  0.42913517  0.49855370
   0.99980631  0.57222609  0.49842136
   0.00077152  0.71547494  0.49656426
   0.00037115  0.85840249  0.49481744
   0.14245313  0.00108721  0.50133856
   0.14175987  0.14349870  0.50138163
   0.14103099  0.28572064  0.50248901
   0.14120712  0.42885379  0.50343935
   0.14223132  0.57192847  0.50365371
   0.14276998  0.71513023  0.50342966
   0.14281862  0.85826954  0.50208072
   0.28516768  0.00080288  0.50453946
   0.28496223  0.14347323  0.50514181
   0.28470746  0.28750754  0.50795239
   0.28269449  0.42804034  0.51080826
   0.28512682  0.57092016  0.50933910
   0.28511315  0.71529464  0.50685283
   0.28521396  0.85826501  0.50534915
   0.42815862  0.00111880  0.50402013
   0.42795109  0.14363993  0.50413529
   0.42618901  0.28330879  0.50605477
   0.42626543  0.71700398  0.50583864
   0.42786823  0.85836313  0.50431484
   0.57078092  0.00132231  0.49976905
   0.57086044  0.14369041  0.50031586
   0.57182018  0.28721716  0.49943378
   0.57148952  0.85902127  0.49701712
   0.71359418  0.00070749  0.49295855
   0.71373661  0.14364997  0.49632030
   0.71380227  0.28646395  0.49560426
   0.71362216  0.42853752  0.48955132
   0.71882927  0.57369042  0.46913411
   0.72143338  0.71739850  0.46537330
   0.71246496  0.85775570  0.48407201
   0.85633767  0.00056865  0.48989895
   0.85617412  0.14337264  0.49394955
   0.85631910  0.28619608  0.49536452
   0.85687498  0.42918701  0.49378041
   0.85785272  0.57258083  0.48978191
   0.85955076  0.71601610  0.48412499
   0.85697434  0.85756310  0.48535616
   0.04665677  0.09570665  0.49746890
   0.04590491  0.23808168  0.49863336
   0.04607332  0.38122988  0.49983502
   0.04718413  0.52445829  0.50034335
   0.04769698  0.66756836  0.49986258
   0.04774929  0.81061963  0.49806119
   0.04728196  0.95327866  0.49725465
   0.18968653  0.09590534  0.50298842
   0.18898750  0.23857519  0.50383841
   0.18760984  0.38052888  0.50518165
   0.18936091  0.52401862  0.50537524
   0.18994774  0.66750166  0.50521746
   0.19027239  0.81060660  0.50405655
   0.19018364  0.95339058  0.50296224
   0.33280418  0.09619836  0.50491090
   0.33317932  0.23871723  0.50679909
   0.32884452  0.38017651  0.51260629
   0.32899735  0.52210184  0.51364431
   0.33337785  0.66828712  0.50803306
   0.33279540  0.81049271  0.50598382
   0.33273496  0.95333449  0.50492410
   0.47572070  0.09612347  0.50294527
   0.47499401  0.23880757  0.50364019
   0.47490046  0.81033798  0.50287148
   0.47567197  0.95366248  0.50284474
   0.61836864  0.09622543  0.49876422
   0.61871771  0.23896750  0.49823654
   0.62072701  0.38056710  0.49518819
   0.61957985  0.81413471  0.48999414
   0.61852903  0.95386521  0.49651578
   0.76123744  0.09605612  0.49430005
   0.76134789  0.23865004  0.49565386
   0.76169948  0.38149763  0.49256560
   0.76243785  0.52551924  0.48269456
   0.76526552  0.66767884  0.47155610
   0.76093844  0.80919251  0.47735050
   0.76117475  0.95314064  0.48850970
   0.90364405  0.09543007  0.49318036
   0.90368638  0.23849397  0.49552134
   0.90400448  0.38159921  0.49583819
   0.90479762  0.52469625  0.49450507
   0.90583859  0.66774335  0.49028564
   0.90536305  0.81076945  0.48792105
   0.90397130  0.95262862  0.49022980
   0.46210370  0.35585712  0.50705414
   0.40119612  0.41931769  0.51869346
   0.40138411  0.55504847  0.51990436
   0.64726809  0.53891803  0.45729918
   0.58511851  0.41752452  0.49751151
   0.58265986  0.74210840  0.48904804
   0.46225430  0.68047113  0.50543600
   0.57231973  0.58181395  0.54715657
   0.55546265  0.53527828  0.63898790
   0.63043254  0.66566999  0.44915498
   0.52885464  0.52965961  0.58058523
Direct configuration=     8
   0.99916188  0.00041431  0.49498582
   0.99880102  0.14314880  0.49612813
   0.99876937  0.28605583  0.49772307
   0.99914216  0.42913610  0.49855071
   0.99980798  0.57222662  0.49841454
   0.00076921  0.71547280  0.49656015
   0.00037029  0.85839959  0.49480136
   0.14245290  0.00108825  0.50133121
   0.14175978  0.14349859  0.50138158
   0.14102981  0.28571779  0.50249537
   0.14120921  0.42885565  0.50344745
   0.14223268  0.57192818  0.50365099
   0.14277006  0.71513091  0.50342139
   0.14281752  0.85827114  0.50207264
   0.28516760  0.00080468  0.50453402
   0.28496256  0.14347399  0.50514337
   0.28470858  0.28750881  0.50796967
   0.28269595  0.42804372  0.51083266
   0.28512555  0.57092255  0.50935314
   0.28511323  0.71529490  0.50685322
   0.28521516  0.85827095  0.50534501
   0.42815846  0.00112124  0.50401634
   0.42795101  0.14364013  0.50413375
   0.42619028  0.28331154  0.50605968
   0.42626454  0.71700539  0.50584798
   0.42786798  0.85836579  0.50431442
   0.57078379  0.00132673  0.49976189
   0.57086127  0.14369285  0.50031339
   0.57182043  0.28721760  0.49943394
   0.57148867  0.85902231  0.49701167
   0.71359463  0.00070794  0.49294334
   0.71373455  0.14364760  0.49631090
   0.71380183  0.28646304  0.49560048
   0.71362041  0.42853984  0.48955214
   0.71882953  0.57368924  0.46914218
   0.72142759  0.71739424  0.46537997
   0.71246459  0.85775567  0.48406719
   0.85633932  0.00057071  0.48989313
   0.85617330  0.14337137  0.49393770
   0.85631861  0.28619504  0.49535454
   0.85687574  0.42918567  0.49377924
   0.85785440  0.57258227  0.48977735
   0.85955140  0.71601504  0.48411898
   0.85697543  0.85756422  0.48534467
   0.04665743  0.09570686  0.49746474
   0.04590687  0.23808372  0.49863316
   0.04607586  0.38122976  0.49983409
   0.04718616  0.52445972  0.50033773
   0.04769844  0.66756865  0.49985473
   0.04775038  0.81062102  0.49805348
   0.04728222  0.95327867  0.49724558
   0.18968616  0.09590616  0.50298715
   0.18898930  0.23857760  0.50384552
   0.18761272  0.38053109  0.50519555
   0.18936464  0.52402013  0.50537871
   0.18994805  0.66750407  0.50521620
   0.19027199  0.81060696  0.50405042
   0.19018307  0.95339113  0.50295392
   0.33280395  0.09620012  0.50490852
   0.33317915  0.23871729  0.50680687
   0.32884448  0.38017824  0.51263805
   0.32899948  0.52210350  0.51367115
   0.33337886  0.66828998  0.50804390
   0.33279657  0.81049273  0.50598304
   0.33273387  0.95333356  0.50491994
   0.47571995  0.09612421  0.50294298
   0.47499441  0.23880904  0.50364239
   0.47489906  0.81033977  0.50287301
   0.47567003  0.95366210  0.50284121
   0.61836687  0.09622433  0.49875609
   0.61871748  0.23896751  0.49823695
   0.62072797  0.38056761  0.49518592
   0.61957709  0.81413432  0.48998761
   0.61852679  0.95386494  0.49650570
   0.76123576  0.09605565  0.49428589
   0.76134985  0.23864723  0.49564408
   0.76170158  0.38149730  0.49256500
   0.76243980  0.52551804  0.48269584
   0.76526392  0.66767795  0.47155681
   0.76093820  0.80919257  0.47734662
   0.76117335  0.95313973  0.48850033
   0.90364250  0.09543090  0.49317044
   0.90368643  0.23849377  0.49551127
   0.90400533  0.38159958  0.49583430