  99  99   0   0
  0.3914025E+02  0.1727104E-08  0.1727104E-08  0.1500000E-08  0.0000000E+00
  1.000000000000000E-004
  CAR 
 unknown system                          
      4.56154236    -31.20956172  301     -2.40573019      1.00000000
    -31.210  0.0000E+00  0.0000E+00  0.0000E+00  0.0000E+00
    -31.090  0.0000E+00  0.0000E+00  0.0000E+00  0.0000E+00
    -30.971  0.0000E+00  0.0000E+00  0.0000E+00  0.0000E+00
    -30.852  0.0000E+00  0.0000E+00  0.0000E+00  0.0000E+00
    -30.733  0.0000E+00  0.0000E+00  0.0000E+00  0.0000E+00
    -30.613  0.0000E+00  0.0000E+00  0.0000E+00  0.0000E+00
    -30.494  0.0000E+00  0.0000E+00  0.0000E+00  0.0000E+00
    -30.375  0.0000E+00  0.0000E+00  0.0000E+00  0.0000E+00
    -30.256  0.0000E+00  0.0000E+00  0.0000E+00  0.0000E+00
    -30.136  0.0000E+00  0.0000E+00  0.0000E+00  0.0000E+00
    -30.017  0.0000E+00  0.0000E+00  0.0000E+00  0.0000E+00
    -29.898  0.0000E+00  0.0000E+00  0.0000E+00  0.0000E+00
    -29.779  0.1426E-09  0.1426E-09  0.1701E-10  0.1701E-10
    -29.659  0.1334E-03  0.1334E-03  0.1590E-04  0.1590E-04
    -29.540  0.7398E-02  0.7398E-02  0.8980E-03  0.8980E-03
    -29.421  0.7855E-02  0.7855E-02  0.1835E-02  0.1835E-02
    -29.302  0.1387E-02  0.1387E-02  0.2000E-02  0.2000E-02
    -29.183  0.5841E-07  0.5841E-07  0.2000E-02  0.2000E-02
    -29.063  0.5005E-16  0.5005E-16  0.2000E-02  0.2000E-02
    -28.944  0.0000E+00  0.0000E+00  0.2000E-02  0.2000E-02
    -28.825  0.0000E+00  0.0000E+00  0.2000E-02  0.2000E-02
    -28.706  0.0000E+00  0.0000E+00  0.2000E-02  0.2000E-02
    -28.586  0.0000E+00  0.0000E+00  0.2000E-02  0.2000E-02
    -28.467  0.0000E+00  0.0000E+00  0.2000E-02  0.2000E-02
    -28.348  0.0000E+00  0.0000E+00  0.2000E-02  0.2000E-02
    -28.229  0.0000E+00  0.0000E+00  0.2000E-02  0.2000E-02
    -28.109  0.0000E+00  0.0000E+00  0.2000E-02  0.2000E-02
    -27.990  0.0000E+00  0.0000E+00  0.2000E-02  0.2000E-02
    -27.871  0.0000E+00  0.0000E+00  0.2000E-02  0.2000E-02
    -27.752  0.0000E+00  0.0000E+00  0.2000E-02  0.2000E-02
    -27.632  0.0000E+00  0.0000E+00  0.2000E-02  0.2000E-02
    -27.513  0.0000E+00  0.0000E+00  0.2000E-02  0.2000E-02
    -27.394  0.0000E+00  0.0000E+00  0.2000E-02  0.2000E-02
    -27.275  0.0000E+00  0.0000E+00  0.2000E-02  0.2000E-02
    -27.156  0.0000E+00  0.0000E+00  0.2000E-02  0.2000E-02
    -27.036  0.0000E+00  0.0000E+00  0.2000E-02  0.2000E-02
    -26.917  0.0000E+00  0.0000E+00  0.2000E-02  0.2000E-02
    -26.798  0.0000E+00  0.0000E+00  0.2000E-02  0.2000E-02
    -26.679  0.0000E+00  0.0000E+00  0.2000E-02  0.2000E-02
    -26.559  0.0000E+00  0.0000E+00  0.2000E-02  0.2000E-02
    -26.440  0.0000E+00  0.0000E+00  0.2000E-02  0.2000E-02
    -26.321  0.0000E+00  0.0000E+00  0.2000E-02  0.2000E-02
    -26.202  0.0000E+00  0.0000E+00  0.2000E-02  0.2000E-02
    -26.082  0.0000E+00  0.0000E+00  0.2000E-02  0.2000E-02
    -25.963  0.0000E+00  0.0000E+00  0.2000E-02  0.2000E-02
    -25.844  0.0000E+00  0.0000E+00  0.2000E-02  0.2000E-02
    -25.725  0.0000E+00  0.0000E+00  0.2000E-02  0.2000E-02
    -25.605  0.0000E+00  0.0000E+00  0.2000E-02  0.2000E-02
    -25.486  0.0000E+00  0.0000E+00  0.2000E-02  0.2000E-02
    -25.367  0.0000E+00  0.0000E+00  0.2000E-02  0.2000E-02
    -25.248  0.0000E+00  0.0000E+00  0.2000E-02  0.2000E-02
    -25.128  0.0000E+00  0.0000E+00  0.2000E-02  0.2000E-02
    -25.009  0.0000E+00  0.0000E+00  0.2000E-02  0.2000E-02
    -24.890  0.0000E+00  0.0000E+00  0.2000E-02  0.2000E-02
    -24.771  0.0000E+00  0.0000E+00  0.2000E-02  0.2000E-02
    -24.652  0.0000E+00  0.0000E+00  0.2000E-02  0.2000E-02
    -24.532  0.0000E+00  0.0000E+00  0.2000E-02  0.2000E-02
    -24.413  0.0000E+00  0.0000E+00  0.2000E-02  0.2000E-02
    -24.294  0.0000E+00  0.0000E+00  0.2000E-02  0.2000E-02
    -24.175  0.0000E+00  0.0000E+00  0.2000E-02  0.2000E-02
    -24.055  0.0000E+00  0.0000E+00  0.2000E-02  0.2000E-02
    -23.936  0.8004E-15  0.8004E-15  0.2000E-02  0.2000E-02
    -23.817  0.2859E-06  0.2859E-06  0.2000E-02  0.2000E-02
    -23.698  0.2272E-02  0.2272E-02  0.2271E-02  0.2271E-02
    -23.578  0.6090E-02  0.6090E-02  0.2997E-02  0.2997E-02
    -23.459  0.2405E-04  0.2405E-04  0.3000E-02  0.3000E-02
    -23.340  0.3569E-11  0.3569E-11  0.3000E-02  0.3000E-02
    -23.221  0.0000E+00  0.0000E+00  0.3000E-02  0.3000E-02
    -23.101  0.0000E+00  0.0000E+00  0.3000E-02  0.3000E-02
    -22.982  0.0000E+00  0.0000E+00  0.3000E-02  0.3000E-02
    -22.863  0.0000E+00  0.0000E+00  0.3000E-02  0.3000E-02
    -22.744  0.0000E+00  0.0000E+00  0.3000E-02  0.3000E-02
    -22.624  0.0000E+00  0.0000E+00  0.3000E-02  0.3000E-02
    -22.505  0.0000E+00  0.0000E+00  0.3000E-02  0.3000E-02
    -22.386  0.0000E+00  0.0000E+00  0.3000E-02  0.3000E-02
    -22.267  0.0000E+00  0.0000E+00  0.3000E-02  0.3000E-02
    -22.148  0.0000E+00  0.0000E+00  0.3000E-02  0.3000E-02
    -22.028  0.1382E-11  0.1382E-11  0.3000E-02  0.3000E-02
    -21.909  0.7482E-05  0.7482E-05  0.3001E-02  0.3001E-02
    -21.790  0.2346E-02  0.2346E-02  0.3281E-02  0.3281E-02
    -21.671  0.8693E-02  0.8693E-02  0.4317E-02  0.4317E-02
    -21.551  0.3637E-02  0.3637E-02  0.4751E-02  0.4751E-02
    -21.432  0.6324E-02  0.6324E-02  0.5505E-02  0.5505E-02
    -21.313  0.1012E-01  0.1012E-01  0.6712E-02  0.6712E-02
    -21.194  0.4791E-02  0.4791E-02  0.7283E-02  0.7283E-02
    -21.074  0.2211E-02  0.2211E-02  0.7547E-02  0.7547E-02
    -20.955  0.1100E-01  0.1100E-01  0.8859E-02  0.8859E-02
    -20.836  0.9622E-02  0.9622E-02  0.1001E-01  0.1001E-01
    -20.717  0.6143E-02  0.6143E-02  0.1074E-01  0.1074E-01
    -20.597  0.8985E-03  0.8985E-03  0.1085E-01  0.1085E-01
    -20.478  0.6216E-02  0.6216E-02  0.1159E-01  0.1159E-01
    -20.359  0.9601E-02  0.9601E-02  0.1273E-01  0.1273E-01
    -20.240  0.1190E-01  0.1190E-01  0.1415E-01  0.1415E-01
    -20.121  0.7743E-02  0.7743E-02  0.1507E-01  0.1507E-01
    -20.001  0.1808E-02  0.1808E-02  0.1529E-01  0.1529E-01
    -19.882  0.5854E-02  0.5854E-02  0.1599E-01  0.1599E-01
    -19.763  0.6940E-02  0.6940E-02  0.1682E-01  0.1682E-01
    -19.644  0.2738E-02  0.2738E-02  0.1714E-01  0.1714E-01
    -19.524  0.1248E-01  0.1248E-01  0.1863E-01  0.1863E-01
    -19.405  0.1384E-01  0.1384E-01  0.2028E-01  0.2028E-01
    -19.286  0.3873E-02  0.3873E-02  0.2074E-01  0.2074E-01
    -19.167  0.4955E-02  0.4955E-02  0.2133E-01  0.2133E-01
    -19.047  0.7812E-02  0.7812E-02  0.2226E-01  0.2226E-01
    -18.928  0.4281E-02  0.4281E-02  0.2277E-01  0.2277E-01
    -18.809  0.3954E-02  0.3954E-02  0.2325E-01  0.2325E-01
    -18.690  0.6303E-02  0.6303E-02  0.2400E-01  0.2400E-01
    -18.570  0.1213E-01  0.1213E-01  0.2544E-01  0.2544E-01
    -18.451  0.1304E-01  0.1304E-01  0.2700E-01  0.2700E-01
    -18.332  0.4043E-02  0.4043E-02  0.2748E-01  0.2748E-01
    -18.213  0.8281E-02  0.8281E-02  0.2847E-01  0.2847E-01
    -18.093  0.6998E-02  0.6998E-02  0.2930E-01  0.2930E-01
    -17.974  0.7683E-02  0.7683E-02  0.3022E-01  0.3022E-01
    -17.855  0.3843E-02  0.3843E-02  0.3068E-01  0.3068E-01
    -17.736  0.5139E-02  0.5139E-02  0.3129E-01  0.3129E-01
    -17.617  0.3279E-02  0.3279E-02  0.3168E-01  0.3168E-01
    -17.497  0.1138E-01  0.1138E-01  0.3304E-01  0.3304E-01
    -17.378  0.1585E-01  0.1585E-01  0.3493E-01  0.3493E-01
    -17.259  0.8854E-02  0.8854E-02  0.3598E-01  0.3598E-01
    -17.140  0.1040E-01  0.1040E-01  0.3722E-01  0.3722E-01
    -17.020  0.3071E-02  0.3071E-02  0.3759E-01  0.3759E-01
    -16.901  0.8355E-02  0.8355E-02  0.3859E-01  0.3859E-01
    -16.782  0.9426E-02  0.9426E-02  0.3971E-01  0.3971E-01
    -16.663  0.3929E-02  0.3929E-02  0.4018E-01  0.4018E-01
    -16.543  0.6755E-02  0.6755E-02  0.4098E-01  0.4098E-01
    -16.424  0.5359E-02  0.5359E-02  0.4162E-01  0.4162E-01
    -16.305  0.1658E-01  0.1658E-01  0.4360E-01  0.4360E-01
    -16.186  0.9375E-02  0.9375E-02  0.4472E-01  0.4472E-01
    -16.066  0.2359E-02  0.2359E-02  0.4500E-01  0.4500E-01
    -15.947  0.4846E-02  0.4846E-02  0.4558E-01  0.4558E-01
    -15.828  0.1454E-02  0.1454E-02  0.4575E-01  0.4575E-01
    -15.709  0.2131E-02  0.2131E-02  0.4600E-01  0.4600E-01
    -15.590  0.2081E-02  0.2081E-02  0.4625E-01  0.4625E-01
    -15.470  0.5171E-02  0.5171E-02  0.4687E-01  0.4687E-01
    -15.351  0.6591E-02  0.6591E-02  0.4765E-01  0.4765E-01
    -15.232  0.1111E-01  0.1111E-01  0.4898E-01  0.4898E-01
    -15.113  0.5243E-02  0.5243E-02  0.4960E-01  0.4960E-01
    -14.993  0.9228E-02  0.9228E-02  0.5070E-01  0.5070E-01
    -14.874  0.1528E-01  0.1528E-01  0.5253E-01  0.5253E-01
    -14.755  0.4106E-02  0.4106E-02  0.5302E-01  0.5302E-01
    -14.636  0.4377E-02  0.4377E-02  0.5354E-01  0.5354E-01
    -14.516  0.1351E-01  0.1351E-01  0.5515E-01  0.5515E-01
    -14.397  0.8790E-02  0.8790E-02  0.5620E-01  0.5620E-01
    -14.278  0.9096E-02  0.9096E-02  0.5728E-01  0.5728E-01
    -14.159  0.1149E-01  0.1149E-01  0.5865E-01  0.5865E-01
    -14.039  0.9077E-02  0.9077E-02  0.5973E-01  0.5973E-01
    -13.920  0.4737E-02  0.4737E-02  0.6030E-01  0.6030E-01
    -13.801  0.4932E-02  0.4932E-02  0.6089E-01  0.6089E-01
    -13.682  0.5397E-02  0.5397E-02  0.6153E-01  0.6153E-01
    -13.562  0.1043E-01  0.1043E-01  0.6277E-01  0.6277E-01
    -13.443  0.7125E-02  0.7125E-02  0.6362E-01  0.6362E-01
    -13.324  0.6712E-02  0.6712E-02  0.6442E-01  0.6442E-01
    -13.205  0.7839E-02  0.7839E-02  0.6536E-01  0.6536E-01
    -13.086  0.6474E-02  0.6474E-02  0.6613E-01  0.6613E-01
    -12.966  0.5458E-02  0.5458E-02  0.6678E-01  0.6678E-01
    -12.847  0.5499E-02  0.5499E-02  0.6744E-01  0.6744E-01
    -12.728  0.8524E-02  0.8524E-02  0.6845E-01  0.6845E-01
    -12.609  0.5584E-02  0.5584E-02  0.6912E-01  0.6912E-01
    -12.489  0.1741E-01  0.1741E-01  0.7119E-01  0.7119E-01
    -12.370  0.9853E-02  0.9853E-02  0.7237E-01  0.7237E-01
    -12.251  0.1194E-01  0.1194E-01  0.7379E-01  0.7379E-01
    -12.132  0.4659E-02  0.4659E-02  0.7435E-01  0.7435E-01
    -12.012  0.5540E-02  0.5540E-02  0.7501E-01  0.7501E-01
    -11.893  0.8947E-02  0.8947E-02  0.7608E-01  0.7608E-01
    -11.774  0.6896E-02  0.6896E-02  0.7690E-01  0.7690E-01
    -11.655  0.9152E-02  0.9152E-02  0.7799E-01  0.7799E-01
    -11.535  0.1059E-01  0.1059E-01  0.7925E-01  0.7925E-01
    -11.416  0.1375E-01  0.1375E-01  0.8089E-01  0.8089E-01
    -11.297  0.1264E-01  0.1264E-01  0.8240E-01  0.8240E-01
    -11.178  0.1307E-01  0.1307E-01  0.8396E-01  0.8396E-01
    -11.059  0.1131E-01  0.1131E-01  0.8531E-01  0.8531E-01
    -10.939  0.1005E-01  0.1005E-01  0.8651E-01  0.8651E-01
    -10.820  0.1125E-01  0.1125E-01  0.8785E-01  0.8785E-01
    -10.701  0.6215E-02  0.6215E-02  0.8859E-01  0.8859E-01
    -10.582  0.7052E-02  0.7052E-02  0.8943E-01  0.8943E-01
    -10.462  0.7672E-02  0.7672E-02  0.9034E-01  0.9034E-01
    -10.343  0.6801E-02  0.6801E-02  0.9115E-01  0.9115E-01
    -10.224  0.1452E-01  0.1452E-01  0.9289E-01  0.9289E-01
    -10.105  0.2137E-01  0.2137E-01  0.9543E-01  0.9543E-01
     -9.985  0.1695E-01  0.1695E-01  0.9745E-01  0.9745E-01
     -9.866  0.1842E-01  0.1842E-01  0.9965E-01  0.9965E-01
     -9.747  0.1499E-01  0.1499E-01  0.1014E+00  0.1014E+00
     -9.628  0.2134E-01  0.2134E-01  0.1040E+00  0.1040E+00
     -9.508  0.7721E-02  0.7721E-02  0.1049E+00  0.1049E+00
     -9.389  0.1949E-01  0.1949E-01  0.1072E+00  0.1072E+00
     -9.270  0.1560E-01  0.1560E-01  0.1091E+00  0.1091E+00
     -9.151  0.2064E-01  0.2064E-01  0.1115E+00  0.1115E+00
     -9.031  0.2151E-01  0.2151E-01  0.1141E+00  0.1141E+00
     -8.912  0.1878E-01  0.1878E-01  0.1164E+00  0.1164E+00
     -8.793  0.2862E-01  0.2862E-01  0.1198E+00  0.1198E+00
     -8.674  0.3229E-01  0.3229E-01  0.1236E+00  0.1236E+00
     -8.555  0.1464E-01  0.1464E-01  0.1254E+00  0.1254E+00
     -8.435  0.1929E-01  0.1929E-01  0.1277E+00  0.1277E+00
     -8.316  0.1671E-01  0.1671E-01  0.1297E+00  0.1297E+00
     -8.197  0.1694E-01  0.1694E-01  0.1317E+00  0.1317E+00
     -8.078  0.2291E-01  0.2291E-01  0.1344E+00  0.1344E+00
     -7.958  0.2076E-01  0.2076E-01  0.1369E+00  0.1369E+00
     -7.839  0.2033E-01  0.2033E-01  0.1393E+00  0.1393E+00
     -7.720  0.1464E-01  0.1464E-01  0.1411E+00  0.1411E+00
     -7.601  0.1925E-01  0.1925E-01  0.1433E+00  0.1433E+00
     -7.481  0.1640E-01  0.1640E-01  0.1453E+00  0.1453E+00
     -7.362  0.5914E-02  0.5914E-02  0.1460E+00  0.1460E+00
     -7.243  0.1598E-01  0.1598E-01  0.1479E+00  0.1479E+00
     -7.124  0.2124E-01  0.2124E-01  0.1504E+00  0.1504E+00
     -7.004  0.2112E-01  0.2112E-01  0.1530E+00  0.1530E+00
     -6.885  0.1603E-01  0.1603E-01  0.1549E+00  0.1549E+00
     -6.766  0.9738E-02  0.9738E-02  0.1560E+00  0.1560E+00
     -6.647  0.1085E-01  0.1085E-01  0.1573E+00  0.1573E+00
     -6.527  0.1403E-01  0.1403E-01  0.1590E+00  0.1590E+00
     -6.408  0.9143E-02  0.9143E-02  0.1601E+00  0.1601E+00
     -6.289  0.1110E-01  0.1110E-01  0.1614E+00  0.1614E+00
     -6.170  0.1792E-01  0.1792E-01  0.1636E+00  0.1636E+00
     -6.051  0.1842E-01  0.1842E-01  0.1657E+00  0.1657E+00
     -5.931  0.9512E-02  0.9512E-02  0.1669E+00  0.1669E+00
     -5.812  0.1578E-01  0.1578E-01  0.1688E+00  0.1688E+00
     -5.693  0.1501E-01  0.1501E-01  0.1706E+00  0.1706E+00
     -5.574  0.1948E-01  0.1948E-01  0.1729E+00  0.1729E+00
     -5.454  0.8534E-02  0.8534E-02  0.1739E+00  0.1739E+00
     -5.335  0.5461E-02  0.5461E-02  0.1745E+00  0.1745E+00
     -5.216  0.2952E-02  0.2952E-02  0.1749E+00  0.1749E+00
     -5.097  0.3051E-02  0.3051E-02  0.1753E+00  0.1753E+00
     -4.977  0.1972E-01  0.1972E-01  0.1776E+00  0.1776E+00
     -4.858  0.1946E-01  0.1946E-01  0.1799E+00  0.1799E+00
     -4.739  0.1213E-01  0.1213E-01  0.1814E+00  0.1814E+00
     -4.620  0.4391E-02  0.4391E-02  0.1819E+00  0.1819E+00
     -4.500  0.9842E-02  0.9842E-02  0.1831E+00  0.1831E+00
     -4.381  0.1489E-02  0.1489E-02  0.1833E+00  0.1833E+00
     -4.262  0.3404E-02  0.3404E-02  0.1837E+00  0.1837E+00
     -4.143  0.8093E-02  0.8093E-02  0.1846E+00  0.1846E+00
     -4.024  0.7256E-02  0.7256E-02  0.1855E+00  0.1855E+00
     -3.904  0.6630E-02  0.6630E-02  0.1863E+00  0.1863E+00
     -3.785  0.7670E-02  0.7670E-02  0.1872E+00  0.1872E+00
     -3.666  0.6412E-02  0.6412E-02  0.1880E+00  0.1880E+00
     -3.547  0.3383E-03  0.3383E-03  0.1880E+00  0.1880E+00
     -3.427  0.1416E-04  0.1416E-04  0.1880E+00  0.1880E+00
     -3.308  0.2096E-02  0.2096E-02  0.1883E+00  0.1883E+00
     -3.189  0.6365E-02  0.6365E-02  0.1890E+00  0.1890E+00
     -3.070  0.2018E-02  0.2018E-02  0.1893E+00  0.1893E+00
     -2.950  0.1675E-02  0.1675E-02  0.1895E+00  0.1895E+00
     -2.831  0.4113E-03  0.4113E-03  0.1895E+00  0.1895E+00
     -2.712  0.6841E-05  0.6841E-05  0.1895E+00  0.1895E+00
     -2.593  0.2787E-02  0.2787E-02  0.1898E+00  0.1898E+00
     -2.473  0.1399E-02  0.1399E-02  0.1900E+00  0.1900E+00
     -2.354  0.3441E-06  0.3441E-06  0.1900E+00  0.1900E+00
     -2.235  0.7883E-03  0.7883E-03  0.1901E+00  0.1901E+00
     -2.116  0.3378E-02  0.3378E-02  0.1905E+00  0.1905E+00
     -1.996  0.2700E-04  0.2700E-04  0.1905E+00  0.1905E+00
     -1.877  0.2672E-05  0.2672E-05  0.1905E+00  0.1905E+00
     -1.758  0.1408E-02  0.1408E-02  0.1907E+00  0.1907E+00
     -1.639  0.2809E-02  0.2809E-02  0.1910E+00  0.1910E+00
     -1.520  0.6843E-02  0.6843E-02  0.1918E+00  0.1918E+00
     -1.400  0.1517E-02  0.1517E-02  0.1920E+00  0.1920E+00
     -1.281  0.4300E-04  0.4300E-04  0.1920E+00  0.1920E+00
     -1.162  0.5063E-02  0.5063E-02  0.1926E+00  0.1926E+00
     -1.043  0.6802E-02  0.6802E-02  0.1934E+00  0.1934E+00
     -0.923  0.3642E-02  0.3642E-02  0.1939E+00  0.1939E+00
     -0.804  0.1291E-01  0.1291E-01  0.1954E+00  0.1954E+00
     -0.685  0.1235E-01  0.1235E-01  0.1969E+00  0.1969E+00
     -0.566  0.4640E-02  0.4640E-02  0.1974E+00  0.1974E+00
     -0.446  0.1279E-01  0.1279E-01  0.1989E+00  0.1989E+00
     -0.327  0.6836E-02  0.6836E-02  0.1998E+00  0.1998E+00
     -0.208  0.5221E-02  0.5221E-02  0.2004E+00  0.2004E+00
     -0.089  0.6835E-02  0.6835E-02  0.2012E+00  0.2012E+00
      0.031  0.8730E-02  0.8730E-02  0.2022E+00  0.2022E+00
      0.150  0.1004E-01  0.1004E-01  0.2034E+00  0.2034E+00
      0.269  0.1252E-01  0.1252E-01  0.2049E+00  0.2049E+00
      0.388  0.6778E-02  0.6778E-02  0.2057E+00  0.2057E+00
      0.507  0.2170E-02  0.2170E-02  0.2060E+00  0.2060E+00
      0.627  0.2395E-02  0.2395E-02  0.2063E+00  0.2063E+00
      0.746  0.1007E-01  0.1007E-01  0.2075E+00  0.2075E+00
      0.865  0.1346E-01  0.1346E-01  0.2091E+00  0.2091E+00
      0.984  0.5984E-02  0.5984E-02  0.2098E+00  0.2098E+00
      1.104  0.9569E-02  0.9569E-02  0.2109E+00  0.2109E+00
      1.223  0.6057E-02  0.6057E-02  0.2117E+00  0.2117E+00
      1.342  0.9999E-02  0.9999E-02  0.2129E+00  0.2129E+00
      1.461  0.1013E-01  0.1013E-01  0.2141E+00  0.2141E+00
      1.581  0.1799E-01  0.1799E-01  0.2162E+00  0.2162E+00
      1.700  0.1254E-01  0.1254E-01  0.2177E+00  0.2177E+00
      1.819  0.1387E-01  0.1387E-01  0.2194E+00  0.2194E+00
      1.938  0.1184E-01  0.1184E-01  0.2208E+00  0.2208E+00
      2.058  0.1849E-01  0.1849E-01  0.2230E+00  0.2230E+00
      2.177  0.1381E-01  0.1381E-01  0.2246E+00  0.2246E+00
      2.296  0.2031E-01  0.2031E-01  0.2270E+00  0.2270E+00
      2.415  0.2209E-01  0.2209E-01  0.2297E+00  0.2297E+00
      2.535  0.2005E-01  0.2005E-01  0.2321E+00  0.2321E+00
      2.654  0.6625E-02  0.6625E-02  0.2329E+00  0.2329E+00
      2.773  0.1661E-01  0.1661E-01  0.2348E+00  0.2348E+00
      2.892  0.2939E-01  0.2939E-01  0.2383E+00  0.2383E+00
      3.011  0.1384E-01  0.1384E-01  0.2400E+00  0.2400E+00
      3.131  0.7222E-04  0.7221E-04  0.2400E+00  0.2400E+00
      3.250  0.4729E-10  0.4729E-10  0.2400E+00  0.2400E+00
      3.369  0.0000E+00  0.0000E+00  0.2400E+00  0.2400E+00
      3.488  0.0000E+00  0.0000E+00  0.2400E+00  0.2400E+00
      3.608  0.0000E+00  0.0000E+00  0.2400E+00  0.2400E+00
      3.727  0.0000E+00  0.0000E+00  0.2400E+00  0.2400E+00
      3.846  0.0000E+00  0.0000E+00  0.2400E+00  0.2400E+00
      3.965  0.0000E+00  0.0000E+00  0.2400E+00  0.2400E+00
      4.085  0.0000E+00  0.0000E+00  0.2400E+00  0.2400E+00
      4.204  0.0000E+00  0.0000E+00  0.2400E+00  0.2400E+00
      4.323  0.0000E+00  0.0000E+00  0.2400E+00  0.2400E+00
      4.442  0.0000E+00  0.0000E+00  0.2400E+00  0.2400E+00
      4.562  0.0000E+00  0.0000E+00  0.2400E+00  0.2400E+00
