unknown system                          
           1
    17.271038    0.000000    0.000000
    -8.635519   14.957158    0.000000
     0.000000    0.000000   15.000000
   C    H    F    O 
    88     8     2     1
Direct configuration=     1
   0.99954605  0.00028183  0.50254683
   0.99921280  0.14303760  0.50377923
   0.99933023  0.28613646  0.50400680
   0.99993452  0.42931947  0.50398892
   0.00071264  0.57240322  0.50287801
   0.00152772  0.71557221  0.50095987
   0.00093115  0.85842881  0.50088055
   0.14301163  0.00104074  0.50297348
   0.14211977  0.14321363  0.50088557
   0.14129231  0.28535071  0.49818731
   0.14188196  0.42889694  0.49853984
   0.14337209  0.57211284  0.50194161
   0.14366541  0.71526884  0.50367840
   0.14348267  0.85832966  0.50408478
   0.28577501  0.00098820  0.50357018
   0.28537389  0.14341461  0.49843832
   0.28462355  0.28669796  0.48921183
   0.28198867  0.42634724  0.48193096
   0.28636297  0.57191677  0.49059263
   0.28604938  0.71559603  0.50066814
   0.28586761  0.85848757  0.50453954
   0.42873659  0.00160425  0.50442470
   0.42845875  0.14393093  0.50055751
   0.42656099  0.28347632  0.49481899
   0.42758720  0.71823225  0.50115182
   0.42850381  0.85910528  0.50417641
   0.57141748  0.00184914  0.50502010
   0.57146031  0.14411586  0.50301507
   0.57239972  0.28746990  0.49739237
   0.57214983  0.85970869  0.50333494
   0.71424489  0.00105552  0.50338218
   0.71438269  0.14402705  0.50515212
   0.71446404  0.28679418  0.50105305
   0.71438751  0.42874043  0.49160288
   0.71979084  0.57417375  0.47356466
   0.72155639  0.71739829  0.47567429
   0.71297297  0.85789732  0.49520653
   0.85677131  0.00055614  0.50116205
   0.85674681  0.14352537  0.50509557
   0.85696538  0.28646270  0.50475179
   0.85764085  0.42946385  0.50022631
   0.85862664  0.57278184  0.49446557
   0.86019969  0.71616440  0.49068939
   0.85733467  0.85749368  0.49515827
   0.04702797  0.09554826  0.50303338
   0.04628124  0.23797984  0.50283003
   0.04680801  0.38135215  0.50297263
   0.04816501  0.52462062  0.50364917
   0.04854860  0.66771653  0.50300931
   0.04841384  0.81069271  0.50225143
   0.04778837  0.95324624  0.50264685
   0.19016600  0.09579113  0.50071986
   0.18924235  0.23818397  0.49681918
   0.18769788  0.38005462  0.49401341
   0.19039114  0.52409710  0.49776717
   0.19098236  0.66772082  0.50196186
   0.19098674  0.81071458  0.50427879
   0.19080163  0.95343463  0.50378082
   0.33332172  0.09634288  0.50111829
   0.33348846  0.23848897  0.49360316
   0.32827537  0.37878734  0.47734479
   0.32635808  0.52017155  0.47744648
   0.33473022  0.66891322  0.49679268
   0.33346672  0.81078098  0.50355812
   0.33334718  0.95360151  0.50447546
   0.47628749  0.09654900  0.50288792
   0.47544977  0.23904093  0.49778619
   0.47557052  0.81143091  0.50383956
   0.47629241  0.95430078  0.50484400
   0.61899100  0.09670046  0.50468758
   0.61934834  0.23933276  0.50043797
   0.62132844  0.38077862  0.49342191
   0.62008586  0.81450968  0.49904303
   0.61920767  0.95441841  0.50415087
   0.76184728  0.09636245  0.50509850
   0.76199141  0.23900178  0.50424165
   0.76243900  0.38180022  0.49750920
   0.76332342  0.52580620  0.48620369
   0.76593249  0.66797390  0.47861353
   0.76126262  0.80915716  0.48834437
   0.76168555  0.95328337  0.49988255
   0.90407106  0.09542695  0.50391422
   0.90426112  0.23866712  0.50537932
   0.90472936  0.38183822  0.50358960
   0.90563859  0.52493231  0.49985705
   0.90657873  0.66788739  0.49540398
   0.90587645  0.81083519  0.49566279
   0.90432907  0.95252908  0.50023272
   0.46258191  0.35603831  0.49540602
   0.39979761  0.41607232  0.46517255
   0.64832745  0.53960012  0.46143691
   0.58558028  0.41757271  0.49409794
   0.58318089  0.74253859  0.49775832
   0.46425061  0.68288360  0.50170278
   0.56500053  0.56325687  0.55041633
   0.46885575  0.49585876  0.57695009
   0.41646938  0.55951583  0.46082288
   0.63059714  0.66575407  0.46166038
   0.52743808  0.50163511  0.56981150
Direct configuration=     2
   0.99954721  0.00028282  0.50254215
   0.99921288  0.14303781  0.50377794
   0.99932973  0.28613777  0.50400755
   0.99993328  0.42932025  0.50398939
   0.00071192  0.57240156  0.50287618
   0.00152815  0.71556842  0.50095263
   0.00093072  0.85842642  0.50087498
   0.14301180  0.00103922  0.50297372
   0.14212016  0.14321367  0.50088708
   0.14129232  0.28535093  0.49819043
   0.14188096  0.42889766  0.49854463
   0.14337273  0.57211506  0.50194636
   0.14366599  0.71526806  0.50367995
   0.14348423  0.85832843  0.50408340
   0.28577518  0.00098630  0.50357203
   0.28537344  0.14341495  0.49844324
   0.28462468  0.28670065  0.48922044
   0.28198785  0.42634726  0.48193834
   0.28636326  0.57191867  0.49060185
   0.28605026  0.71559799  0.50066998
   0.28586913  0.85848584  0.50454075
   0.42873657  0.00160286  0.50442651
   0.42845765  0.14392939  0.50056093
   0.42656156  0.28347627  0.49482343
   0.42758594  0.71823249  0.50115423
   0.42850330  0.85910528  0.50417643
   0.57141580  0.00184645  0.50502055
   0.57146071  0.14411544  0.50301562
   0.57240027  0.28746899  0.49739211
   0.57214712  0.85970959  0.50333220
   0.71424297  0.00105431  0.50337919
   0.71438051  0.14402549  0.50515077
   0.71446618  0.28679667  0.50105206
   0.71439264  0.42874153  0.49159643
   0.71979643  0.57417203  0.47354929
   0.72155302  0.71739476  0.47565669
   0.71296737  0.85789799  0.49519811
   0.85677113  0.00055586  0.50115728
   0.85674475  0.14352450  0.50509531
   0.85696350  0.28646303  0.50474872
   0.85764083  0.42946421  0.50022071
   0.85862917  0.57278041  0.49445496
   0.86020005  0.71616162  0.49067833
   0.85733428  0.85749258  0.49515180
   0.04702690  0.09554841  0.50303374
   0.04628038  0.23797927  0.50283106
   0.04680730  0.38134957  0.50297388
   0.04816573  0.52461806  0.50365130
   0.04854531  0.66771485  0.50300792
   0.04841177  0.81069387  0.50224481
   0.04778889  0.95324672  0.50264160
   0.19016508  0.09579080  0.50072251
   0.18924052  0.23818357  0.49682067
   0.18769448  0.38005160  0.49401920
   0.19039217  0.52409712  0.49777091
   0.19098281  0.66772106  0.50196493
   0.19098518  0.81071663  0.50427941
   0.19080059  0.95343552  0.50378213
   0.33331898  0.09634270  0.50112371
   0.33348642  0.23848778  0.49360924
   0.32827169  0.37878530  0.47735314
   0.32635857  0.52017128  0.47746144
   0.33472923  0.66891261  0.49679666
   0.33346509  0.81078186  0.50355955
   0.33334489  0.95360313  0.50447583
   0.47628692  0.09654980  0.50289054
   0.47544816  0.23904133  0.49778936
   0.47557035  0.81142889  0.50384061
   0.47629294  0.95430311  0.50484422
   0.61899069  0.09670057  0.50468740
   0.61934629  0.23933208  0.50043738
   0.62132590  0.38077820  0.49341658
   0.62008922  0.81451055  0.49903337
   0.61920969  0.95441816  0.50414860
   0.76184788  0.09636171  0.50509888
   0.76199093  0.23900110  0.50423907
   0.76243781  0.38179965  0.49750520
   0.76332086  0.52580759  0.48619009
   0.76592871  0.66797460  0.47859918
   0.76125965  0.80915585  0.48833504
   0.76168580  0.95328191  0.49987783
   0.90407054  0.09542696  0.50390991
   0.90426169  0.23866706  0.50537881
   0.90473007  0.38183581  0.50358710
   0.90563836  0.52493181  0.49985054
   0.90657846  0.66788985  0.49539366
   0.90587252  0.81083667  0.49565460
   0.90432630  0.95252670  0.50022606
   0.46258208  0.35603921  0.49540958
   0.39979799  0.41607381  0.46518986
   0.64832618  0.53959767  0.46141843
   0.58558031  0.41757181  0.49408918
   0.58318089  0.74253931  0.49774409
   0.46425062  0.68288453  0.50170528
   0.56502826  0.56324894  0.55041986
   0.46886748  0.49587422  0.57694367
   0.41647237  0.55951549  0.46085123
   0.63059505  0.66575333  0.46164156
   0.52744701  0.50165583  0.56988284
Direct configuration=     3
   0.99954634  0.00028253  0.50253514
   0.99921229  0.14303814  0.50377606
   0.99932906  0.28613701  0.50400868
   0.99993316  0.42931809  0.50399014
   0.00071167  0.57239892  0.50287355
   0.00152744  0.71556798  0.50094176
   0.00092802  0.85842579  0.50086612
   0.14301187  0.00103926  0.50297372
   0.14211952  0.14321350  0.50088940
   0.14129003  0.28534917  0.49819519
   0.14187932  0.42889644  0.49855175
   0.14337183  0.57211368  0.50195214
   0.14366491  0.71526805  0.50368233
   0.14348313  0.85832955  0.50408123
   0.28577310  0.00098624  0.50357506
   0.28537129  0.14341487  0.49845089
   0.28462318  0.28670017  0.48923319
   0.28198446  0.42634618  0.48195024
   0.28636470  0.57191983  0.49061462
   0.28605058  0.71559916  0.50067302
   0.28586830  0.85848662  0.50454260
   0.42873546  0.00160402  0.50442919
   0.42845485  0.14392848  0.50056638
   0.42656044  0.28347638  0.49483022
   0.42758464  0.71823102  0.50115797
   0.42850306  0.85910576  0.50417677
   0.57141621  0.00184588  0.50502120
   0.57146005  0.14411479  0.50301658
   0.57239910  0.28746831  0.49739169
   0.57214705  0.85970872  0.50332778
   0.71424430  0.00105331  0.50337488
   0.71437932  0.14402395  0.50514899
   0.71446539  0.28679630  0.50105042
   0.71439179  0.42874158  0.49158619
   0.71979535  0.57417174  0.47352415
   0.72154682  0.71739322  0.47563275
   0.71296635  0.85789892  0.49518508
   0.85677063  0.00055473  0.50114997
   0.85674436  0.14352409  0.50509477
   0.85696261  0.28646122  0.50474444
   0.85763934  0.42946296  0.50021339
   0.85862981  0.57278106  0.49443858
   0.86019709  0.71616231  0.49066128
   0.85732960  0.85749075  0.49514162
   0.04702667  0.09554876  0.50303391
   0.04628113  0.23798026  0.50283301
   0.04680613  0.38134972  0.50297606
   0.04816484  0.52461741  0.50365362
   0.04854408  0.66771137  0.50300575
   0.04841110  0.81069152  0.50223520
   0.04778967  0.95324611  0.50263402
   0.19016453  0.09579045  0.50072655
   0.18923989  0.23818366  0.49682349
   0.18769229  0.38005095  0.49402753
   0.19039433  0.52409984  0.49777661
   0.19098421  0.66772288  0.50196974
   0.19098564  0.81071602  0.50428039
   0.19080063  0.95343436  0.50378404
   0.33331723  0.09634158  0.50113169
   0.33348574  0.23848828  0.49361865
   0.32827051  0.37878621  0.47736578
   0.32636000  0.52017195  0.47748344
   0.33472809  0.66891358  0.49680307
   0.33346541  0.81078262  0.50356163
   0.33334537  0.95360131  0.50447691
   0.47628623  0.09654878  0.50289456
   0.47544731  0.23904057  0.49779422
   0.47556951  0.81142968  0.50384081
   0.47629254  0.95430240  0.50484477
   0.61898909  0.09669824  0.50468728
   0.61934738  0.23933504  0.50043748
   0.62132854  0.38077795  0.49340864
   0.62008564  0.81451098  0.49901932
   0.61920843  0.95441689  0.50414547
   0.76184584  0.09636002  0.50509920
   0.76198945  0.23900067  0.50423535
   0.76243981  0.38180077  0.49749926
   0.76332615  0.52580670  0.48617141
   0.76592778  0.66797298  0.47857768
   0.76125533  0.80915220  0.48832046
   0.76168453  0.95328196  0.49987084
   0.90406843  0.09542589  0.50390416
   0.90426023  0.23866725  0.50537809
   0.90472914  0.38183547  0.50358315
   0.90563854  0.52493034  0.49984075
   0.90657932  0.66788806  0.49537818
   0.90586966  0.81083297  0.49564258
   0.90432561  0.95252583  0.50021640
   0.46258222  0.35604015  0.49541503
   0.39979717  0.41607516  0.46521548
   0.64832830  0.53959552  0.46139190
   0.58557940  0.41757142  0.49407653
   0.58318136  0.74254056  0.49772312
   0.46425037  0.68288608  0.50170911
   0.56506830  0.56323847  0.55042476
   0.46887433  0.49589696  0.57693601
   0.41647358  0.55951532  0.46088994
   0.63059133  0.66575133  0.46161308
   0.52747140  0.50168514  0.56998856
Direct configuration=     4
   0.99954496  0.00028070  0.50252704
   0.99921068  0.14303824  0.50377361
   0.99932803  0.28613472  0.50401019
   0.99993320  0.42931421  0.50399107
   0.00071096  0.57239762  0.50286923
   0.00152592  0.71556947  0.50092729
   0.00092384  0.85842579  0.50085346
   0.14301184  0.00104036  0.50297338
   0.14211789  0.14321317  0.50089243
   0.14128672  0.28534664  0.49820137
   0.14187817  0.42889512  0.49856093
   0.14337050  0.57211056  0.50195872
   0.14366256  0.71526828  0.50368551
   0.14347963  0.85833106  0.50407814
   0.28577013  0.00098703  0.50357956
   0.28536844  0.14341450  0.49846143
   0.28462186  0.28669918  0.48924788
   0.28198068  0.42634606  0.48196551
   0.28636571  0.57191959  0.49062970
   0.28605019  0.71559977  0.50067752
   0.28586568  0.85848888  0.50454503
   0.42873387  0.00160606  0.50443269
   0.42845151  0.14392828  0.50057417
   0.42655801  0.28347678  0.49483942
   0.42758357  0.71822988  0.50116301
   0.42850302  0.85910662  0.50417756
   0.57141759  0.00184652  0.50502198
   0.57145868  0.14411455  0.50301817
   0.57239699  0.28746858  0.49739118
   0.57214790  0.85970662  0.50332152
   0.71424673  0.00105259  0.50336956
   0.71437889  0.14402271  0.50514700
   0.71446264  0.28679423  0.50104793
   0.71438753  0.42874089  0.49157208
   0.71979171  0.57417177  0.47349103
   0.72153963  0.71739237  0.47560403
   0.71296867  0.85789911  0.49516750
   0.85676958  0.00055327  0.50114002
   0.85674464  0.14352400  0.50509380
   0.85696222  0.28645847  0.50473912
   0.85763777  0.42946091  0.50020432
   0.85862974  0.57278269  0.49441642
   0.86019206  0.71616380  0.49063820
   0.85732176  0.85748751  0.49512733
   0.04702667  0.09554892  0.50303335
   0.04628009  0.23798046  0.50283547
   0.04680477  0.38135153  0.50297936
   0.04816292  0.52461757  0.50365617
   0.04854649  0.66770928  0.50300183
   0.04841137  0.81068741  0.50222270
   0.04778928  0.95324440  0.50262424
   0.19016382  0.09579011  0.50073192
   0.18923977  0.23818349  0.49682822
   0.18769086  0.38005211  0.49403821
   0.19039583  0.52410280  0.49778467
   0.19098521  0.66772492  0.50197629
   0.19098682  0.81071354  0.50428171
   0.19080099  0.95343211  0.50378630
   0.33331602  0.09634008  0.50114194
   0.33348602  0.23849019  0.49363164
   0.32827059  0.37878916  0.47738367
   0.32636073  0.52017258  0.47751261
   0.33472762  0.66891579  0.49681208
   0.33346733  0.81078332  0.50356430
   0.33334894  0.95359961  0.50447808
   0.47628525  0.09654718  0.50289990
   0.47544672  0.23903886  0.49780070
   0.47556783  0.81143207  0.50384003
   0.47629128  0.95429966  0.50484583
   0.61898675  0.09669470  0.50468730
   0.61935145  0.23933678  0.50043788
   0.62133383  0.38077812  0.49339818
   0.62007732  0.81451086  0.49900078
   0.61920541  0.95441516  0.50414167
   0.76184245  0.09635806  0.50509917
   0.76198697  0.23899955  0.50423067
   0.76244281  0.38180216  0.49749135
   0.76333521  0.52580453  0.48614702
   0.76592762  0.66796982  0.47854845
   0.76124937  0.80914754  0.48830043
   0.76168288  0.95328288  0.49986144
   0.90406590  0.09542411  0.50389731
   0.90425748  0.23866673  0.50537710
   0.90472700  0.38183630  0.50357912
   0.90563899  0.52492819  0.49982767
   0.90657991  0.66788410  0.49535702
   0.90586775  0.81082661  0.49562661
   0.90432633  0.95252596  0.50020380
   0.46258218  0.35604086  0.49542239
   0.39979586  0.41607675  0.46524842
   0.64833250  0.53959314  0.46135764
   0.58557832  0.41757107  0.49406052
   0.58318178  0.74254193  0.49769582
   0.46425013  0.68288787  0.50171424
   0.56511969  0.56322792  0.55043014
   0.46887780  0.49592685  0.57692892
   0.41647437  0.55951536  0.46094009
   0.63058527  0.66574758  0.46157470
   0.52750873  0.50171946  0.57013067
Direct configuration=     5
   0.99954446  0.00027842  0.50251767
   0.99920802  0.14303707  0.50377045
   0.99932619  0.28613330  0.50401183
   0.99993126  0.42931237  0.50399193
   0.00070968  0.57239759  0.50286307
   0.00152510  0.71556828  0.50090947
   0.00092079  0.85842342  0.50083678
   0.14301159  0.00104041  0.50297238
   0.14211606  0.14321275  0.50089574
   0.14128888  0.28534780  0.49820877
   0.14187817  0.42889666  0.49857149
   0.14337161  0.57211137  0.50196562
   0.14366152  0.71526783  0.50368907
   0.14347680  0.85832909  0.50407389
   0.28576976  0.00098607  0.50358545
   0.28536717  0.14341454  0.49847444
   0.28462243  0.28670069  0.48926288
   0.28197763  0.42634679  0.48198253
   0.28636579  0.57192003  0.49064702
   0.28604949  0.71560086  0.50068348
   0.28586453  0.85848956  0.50454762
   0.42873423  0.00160581  0.50443674
   0.42844978  0.14392783  0.50058426
   0.42655577  0.28347586  0.49484962
   0.42758335  0.71823234  0.50116891
   0.42850268  0.85910741  0.50417866
   0.57141676  0.00184531  0.50502275
   0.57145783  0.14411446  0.50302049
   0.57239661  0.28746901  0.49739070
   0.57214519  0.85970575  0.50331340
   0.71424525  0.00105162  0.50336363
   0.71437744  0.14402143  0.50514497
   0.71446216  0.28679382  0.50104438
   0.71438848  0.42874082  0.49155450
   0.71979428  0.57417039  0.47345419
   0.72153276  0.71738811  0.47557073
   0.71296676  0.85789672  0.49514759
   0.85676826  0.00055230  0.50112754
   0.85674289  0.14352307  0.50509214
   0.85696053  0.28645729  0.50473305
   0.85763755  0.42946011  0.50019361
   0.85863201  0.57278221  0.49438921
   0.86018847  0.71616004  0.49060974
   0.85731540  0.85748279  0.49510889
   0.04702529  0.09554807  0.50303143
   0.04627641  0.23797847  0.50283808
   0.04680381  0.38135100  0.50298362
   0.04816089  0.52461588  0.50365869
   0.04854867  0.66771023  0.50299575
   0.04841000  0.81068595  0.50220747
   0.04778674  0.95324442  0.50261516
   0.19016219  0.09578999  0.50073816
   0.18923866  0.23818256  0.49683485
   0.18768800  0.38005167  0.49404907
   0.19039569  0.52410322  0.49779350
   0.19098380  0.66772449  0.50198416
   0.19098538  0.81071265  0.50428312
   0.19079985  0.95343124  0.50378833
   0.33331362  0.09633949  0.50115370
   0.33348548  0.23849161  0.49364775
   0.32827015  0.37879144  0.47740601
   0.32635936  0.52017180  0.47754829
   0.33472790  0.66891721  0.49682318
   0.33346799  0.81078436  0.50356730
   0.33334967  0.95360192  0.50447923
   0.47628383  0.09654790  0.50290620
   0.47544566  0.23903878  0.49780694
   0.47556563  0.81143191  0.50383956
   0.47629033  0.95429897  0.50484738
   0.61898518  0.09669315  0.50468746
   0.61934941  0.23933485  0.50043817
   0.62133418  0.38077791  0.49338567
   0.62007395  0.81451074  0.49897788
   0.61920485  0.95441419  0.50413739
   0.76184110  0.09635699  0.50509842
   0.76198480  0.23899717  0.50422529
   0.76244182  0.38180124  0.49748149
   0.76333603  0.52580365  0.48611562
   0.76592447  0.66796849  0.47851329
   0.76124319  0.80914436  0.48827743
   0.76168273  0.95328213  0.49984954
   0.90406424  0.09542226  0.50388970
   0.90425578  0.23866467  0.50537567
   0.90472502  0.38183511  0.50357492
   0.90563905  0.52492683  0.49981145
   0.90658091  0.66788344  0.49533207
   0.90586478  0.81082537  0.49560643
   0.90432521  0.95252411  0.50018845
   0.46258196  0.35604126  0.49543135
   0.39979581  0.41607947  0.46528655
   0.64833506  0.53958885  0.46131627
   0.58557850  0.41756979  0.49404202
   0.58318124  0.74254250  0.49766292
   0.46425031  0.68288956  0.50172031
   0.56517905  0.56321673  0.55043659
   0.46888892  0.49596357  0.57692584
   0.41647698  0.55951592  0.46100385
   0.63057681  0.66574198  0.46152603
   0.52754991  0.50175631  0.57031104
Direct configuration=     6
   0.99954363  0.00027693  0.50250676
   0.99920504  0.14303443  0.50376641
   0.99932398  0.28613319  0.50401344
   0.99992793  0.42931310  0.50399263
   0.00070983  0.57239640  0.50285587
   0.00152612  0.71556524  0.50088833
   0.00091920  0.85841926  0.50081741
   0.14300767  0.00103618  0.50297131
   0.14211403  0.14321205  0.50089901
   0.14128800  0.28534819  0.49821633
   0.14187797  0.42889984  0.49858272
   0.14337296  0.57211482  0.50197260
   0.14366283  0.71526723  0.50369257
   0.14347583  0.85832489  0.50406822
   0.28577121  0.00098441  0.50359246
   0.28536736  0.14341550  0.49848963
   0.28462097  0.28670208  0.48927698
   0.28197599  0.42634760  0.48200176
   0.28636473  0.57192210  0.49066684
   0.28604874  0.71560216  0.50069099
   0.28586559  0.85848911  0.50455004
   0.42873552  0.00160338  0.50443961
   0.42845153  0.14392807  0.50059563
   0.42655524  0.28347492  0.49486066
   0.42758405  0.71823673  0.50117527
   0.42850173  0.85910786  0.50418003
   0.57141399  0.00184266  0.50502347
   0.57145695  0.14411380  0.50302371
   0.57239756  0.28746910  0.49739022
   0.57213917  0.85970502  0.50330465
   0.71424091  0.00105028  0.50335724
   0.71437473  0.14401972  0.50514302
   0.71446293  0.28679423  0.50103969
   0.71439360  0.42874108  0.49153339
   0.71980150  0.57416766  0.47341351
   0.72152579  0.71738090  0.47553301
   0.71295996  0.85789348  0.49512555
   0.85676735  0.00055148  0.50111262
   0.85673949  0.14352072  0.50508956
   0.85695755  0.28645713  0.50472662
   0.85763809  0.42946024  0.50018118
   0.85863534  0.57277931  0.49435701
   0.86018769  0.71615333  0.49057617
   0.85731212  0.85747853  0.49508624
   0.04702226  0.09554611  0.50302761
   0.04627531  0.23797711  0.50284085
   0.04680327  0.38134832  0.50298873
   0.04816007  0.52461361  0.50366090
   0.04854671  0.66771099  0.50298802
   0.04840580  0.81068871  0.50218984
   0.04778365  0.95324434  0.50260624
   0.19016019  0.09579022  0.50074486
   0.18923772  0.23818217  0.49684305
   0.18768490  0.38005032  0.49405945
   0.19039436  0.52410184  0.49780306
   0.19098131  0.66772246  0.50199293
   0.19098197  0.81071403  0.50428436
   0.19079725  0.95343145  0.50378959
   0.33331081  0.09634012  0.50116667
   0.33348370  0.23849177  0.49366630
   0.32826672  0.37879452  0.47743144
   0.32635640  0.52017019  0.47758945
   0.33472816  0.66891755  0.49683606
   0.33346626  0.81078588  0.50357050
   0.33334549  0.95360424  0.50448167
   0.47628350  0.09655050  0.50291203
   0.47544427  0.23904045  0.49781313
   0.47556406  0.81143080  0.50383919
   0.47629041  0.95430091  0.50484943
   0.61898456  0.09669391  0.50468786
   0.61934510  0.23933400  0.50043955
   0.62133054  0.38077731  0.49337141
   0.62007637  0.81451082  0.49895101
   0.61920614  0.95441404  0.50413282
   0.76184156  0.09635672  0.50509666
   0.76198380  0.23899486  0.50421945
   0.76243788  0.38179847  0.49746965
   0.76333220  0.52580329  0.48607983
   0.76591795  0.66796848  0.47847407
   0.76123673  0.80914091  0.48825122
   0.76168282  0.95327893  0.49983523
   0.90406302  0.09542091  0.50388156
   0.90425507  0.23866216  0.50537361
   0.90472355  0.38183172  0.50357022
   0.90563877  0.52492681  0.49979211
   0.90658084  0.66788540  0.49530255
   0.90585979  0.81082689  0.49558150
   0.90432110  0.95251938  0.50017039
   0.46258152  0.35604102  0.49544156
   0.39979819  0.41608398  0.46532759
   0.64833607  0.53958278  0.46126945
   0.58557980  0.41756816  0.49402221
   0.58317947  0.74254199  0.49762540
   0.46425080  0.68289192  0.50172693
   0.56523862  0.56319859  0.55044554
   0.46891386  0.49600509  0.57693116
   0.41648570  0.55951709  0.46108133
   0.63056693  0.66573461  0.46146756
   0.52759189  0.50180412  0.57053158
Direct configuration=     7
   0.99953897  0.00027524  0.50249245
   0.99920407  0.14303288  0.50376252
   0.99932257  0.28613259  0.50401515
   0.99992569  0.42931310  0.50399326
   0.00071158  0.57239497  0.50284619
   0.00152719  0.71556569  0.50086071
   0.00091547  0.85841785  0.50079235
   0.14300401  0.00103473  0.50296920
   0.14211142  0.14321085  0.50090254
   0.14128247  0.28534641  0.49822458
   0.14187795  0.42889716  0.49859538
   0.14336917  0.57211376  0.50198048
   0.14366362  0.71526753  0.50369600
   0.14347415  0.85832376  0.50406003
   0.28576967  0.00098553  0.50360132
   0.28536645  0.14341691  0.49850903
   0.28461745  0.28670307  0.48929240
   0.28197338  0.42634789  0.48202737
   0.28636374  0.57192563  0.49069041
   0.28604681  0.71560140  0.50069947
   0.28586491  0.85848956  0.50455057
   0.42873472  0.00160332  0.50444161
   0.42845224  0.14393012  0.50060749
   0.42655506  0.28347521  0.49487410
   0.42758464  0.71823864  0.50118264
   0.42849979  0.85910833  0.50418196
   0.57141270  0.00184234  0.50502424
   0.57145567  0.14411401  0.50302842
   0.57239700  0.28747014  0.49738944
   0.57213607  0.85970372  0.50329323
   0.71423926  0.00104855  0.50334928
   0.71437245  0.14401803  0.50514094
   0.71446062  0.28679221  0.50103314
   0.71439352  0.42873949  0.49150515
   0.71980308  0.57416648  0.47336279
   0.72151718  0.71737473  0.47548687
   0.71295386  0.85789002  0.49509886
   0.85676620  0.00054873  0.50109310
   0.85673709  0.14351765  0.50508527
   0.85695492  0.28645481  0.50471949
   0.85763725  0.42945894  0.50016505
   0.85863131  0.57277733  0.49431557
   0.86018630  0.71615104  0.49053238
   0.85730791  0.85747516  0.49505557
   0.04701788  0.09554307  0.50302079
   0.04627601  0.23797648  0.50284388
   0.04680158  0.38134732  0.50299541
   0.04816121  0.52461369  0.50366274
   0.04854312  0.66770929  0.50297715
   0.04840154  0.81068926  0.50216916
   0.04778009  0.95324075  0.50259555
   0.19015756  0.09578903  0.50075277
   0.18923639  0.23818263  0.49685167
   0.18768273  0.38005051  0.49406833
   0.19039223  0.52410290  0.49781493
   0.19098081  0.66772216  0.50200342
   0.19098034  0.81071471  0.50428530
   0.19079440  0.95342964  0.50378981
   0.33331139  0.09634177  0.50118269
   0.33348175  0.23849231  0.49368899
   0.32826456  0.37879889  0.47746121
   0.32635504  0.52017083  0.47764088
   0.33472786  0.66891915  0.49685270
   0.33346352  0.81078730  0.50357435
   0.33334529  0.95360444  0.50448522
   0.47628432  0.09655063  0.50291829
   0.47544422  0.23904242  0.49782068
   0.47556286  0.81143271  0.50383870
   0.47629062  0.95430214  0.50485208
   0.61898313  0.09669426  0.50468875
   0.61934514  0.23933213  0.50044140
   0.62133081  0.38077673  0.49335337
   0.62007487  0.81450981  0.49891733
   0.61920393  0.95441294  0.50412763
   0.76183991  0.09635556  0.50509319
   0.76198292  0.23899387  0.50421257
   0.76243656  0.38179637  0.49745387
   0.76333385  0.52579933  0.48603853
   0.76591352  0.66796763  0.47842738
   0.76122879  0.80913361  0.48821716
   0.76167985  0.95327510  0.49981665
   0.90406086  0.09541975  0.50387185
   0.90425291  0.23866064  0.50537043
   0.90472276  0.38183150  0.50356458
   0.90564098  0.52492613  0.49976821
   0.90657694  0.66788329  0.49526622
   0.90585476  0.81081959  0.49554941
   0.90431353  0.95251348  0.50015056
   0.46258079  0.35604001  0.49545427
   0.39980188  0.41609028  0.46537561
   0.64833909  0.53957566  0.46121282
   0.58558068  0.41756791  0.49399954
   0.58317668  0.74254067  0.49757890
   0.46425133  0.68289647  0.50173476
   0.56529773  0.56316426  0.55046090
   0.46895112  0.49605565  0.57695114
   0.41650120  0.55951777  0.46118793
   0.63055582  0.66572147  0.46139398
   0.52764832  0.50187587  0.57081710
Direct configuration=     8
   0.99952890  0.00026970  0.50247631
   0.99920357  0.14303280  0.50375836
   0.99932160  0.28613042  0.50401740
   0.99992657  0.42931147  0.50399417
   0.00071218  0.57239408  0.50283272
   0.00152132  0.71556851  0.50082732
   0.00090732  0.85841750  0.50076045
   0.14300110  0.00103566  0.50296641
   0.14210815  0.14320916  0.50090659
   0.14128377  0.28534772  0.49823411
   0.14187399  0.42889620  0.49860954
   0.14336662  0.57211129  0.50198994
   0.14366026  0.71526811  0.50369905
   0.14346935  0.85832662  0.50404909
   0.28576508  0.00098874  0.50361260
   0.28536347  0.14341762  0.49853411
   0.28461329  0.28670297  0.48930983
   0.28197050  0.42635000  0.48206309
   0.28636236  0.57192898  0.49072079
   0.28604465  0.71560043  0.50071059
   0.28586070  0.85849185  0.50454982
   0.42873215  0.00160697  0.50444352
   0.42845154  0.14393300  0.50062045
   0.42655267  0.28347599  0.49489161
   0.42758349  0.71823861  0.50119176
   0.42849676  0.85910983  0.50418498
   0.57141393  0.00184567  0.50502522
   0.57145482  0.14411440  0.50303500
   0.57239591  0.28747117  0.49738787
   0.57213969  0.85970207  0.50327925
   0.71424059  0.00104575  0.50333863
   0.71437178  0.14401745  0.50513842
   0.71445666  0.28678812  0.50102416
   0.71438743  0.42873489  0.49146751
   0.71979927  0.57416603  0.47329832
   0.72150413  0.71736815  0.47542849
   0.71295286  0.85788705  0.49506385
   0.85676111  0.00054367  0.50106821
   0.85673930  0.14351894  0.50507734
   0.85695468  0.28645177  0.50471170
   0.85763381  0.42945441  0.50014612
   0.85862523  0.57277629  0.49426349
   0.86018076  0.71615173  0.49048112
   0.85729885  0.85746725  0.49501446
   0.04701344  0.09553947  0.50301062
   0.04627143  0.23797305  0.50284562
   0.04679867  0.38134844  0.50300415
   0.04816130  0.52461461  0.50366419
   0.04854304  0.66770690  0.50296205
   0.04840059  0.81068587  0.50214382
   0.04777483  0.95323603  0.50258115
   0.19015404  0.09578557  0.50076043
   0.18923113  0.23818223  0.49686149
   0.18767985  0.38004883  0.49407735
   0.19038863  0.52410472  0.49783036
   0.19098157  0.66772371  0.50201592
   0.19098129  0.81071321  0.50428547
   0.19079579  0.95342955  0.50378620
   0.33331503  0.09634461  0.50120302
   0.33348224  0.23849358  0.49371288
   0.32826359  0.37880128  0.47749789
   0.32635854  0.52017494  0.47770072
   0.33472773  0.66892328  0.49687459
   0.33346079  0.81078656  0.50357903
   0.33334863  0.95360313  0.50449018
   0.47628432  0.09654840  0.50292307
   0.47544613  0.23904399  0.49783087
   0.47556119  0.81143696  0.50383767
   0.47628910  0.95430083  0.50485504
   0.61898057  0.09669280  0.50469047
   0.61934808  0.23933151  0.50044329
   0.62133566  0.38077583  0.49332978
   0.62006347  0.81450572  0.49887535
   0.61919809  0.95441050  0.50412161
   0.76183487  0.09635189  0.50508716
   0.76198061  0.23899326  0.50420457
   0.76243840  0.38179543  0.49743193
   0.76333801  0.52579309  0.48598737
   0.76591314  0.66796084  0.47837043
   0.76121779  0.80912033  0.48817352
   0.76167380  0.95327233  0.49979254
   0.90405840  0.09541709  0.50385989
   0.90424936  0.23865959  0.50536574
   0.90472148  0.38183326  0.50355707