  93  93   0   0
  0.4166543E+02  0.1727104E-08  0.1727104E-08  0.1500000E-08  0.0000000E+00
  1.000000000000000E-004
  CAR 
 unknown system                          
      5.76295362    -30.94097464  301     -2.86398961      1.00000000
    -30.941  0.0000E+00  0.0000E+00  0.0000E+00  0.0000E+00
    -30.819  0.0000E+00  0.0000E+00  0.0000E+00  0.0000E+00
    -30.696  0.0000E+00  0.0000E+00  0.0000E+00  0.0000E+00
    -30.574  0.0000E+00  0.0000E+00  0.0000E+00  0.0000E+00
    -30.452  0.0000E+00  0.0000E+00  0.0000E+00  0.0000E+00
    -30.329  0.0000E+00  0.0000E+00  0.0000E+00  0.0000E+00
    -30.207  0.0000E+00  0.0000E+00  0.0000E+00  0.0000E+00
    -30.085  0.0000E+00  0.0000E+00  0.0000E+00  0.0000E+00
    -29.962  0.0000E+00  0.0000E+00  0.0000E+00  0.0000E+00
    -29.840  0.0000E+00  0.0000E+00  0.0000E+00  0.0000E+00
    -29.718  0.0000E+00  0.0000E+00  0.0000E+00  0.0000E+00
    -29.595  0.0000E+00  0.0000E+00  0.0000E+00  0.0000E+00
    -29.473  0.8691E-10  0.8691E-10  0.1063E-10  0.1063E-10
    -29.350  0.1906E-03  0.1906E-03  0.2332E-04  0.2332E-04
    -29.228  0.1422E-01  0.1422E-01  0.1763E-02  0.1763E-02
    -29.106  0.1934E-02  0.1934E-02  0.2000E-02  0.2000E-02
    -28.983  0.2910E-07  0.2910E-07  0.2000E-02  0.2000E-02
    -28.861  0.0000E+00  0.0000E+00  0.2000E-02  0.2000E-02
    -28.739  0.0000E+00  0.0000E+00  0.2000E-02  0.2000E-02
    -28.616  0.0000E+00  0.0000E+00  0.2000E-02  0.2000E-02
    -28.494  0.0000E+00  0.0000E+00  0.2000E-02  0.2000E-02
    -28.372  0.0000E+00  0.0000E+00  0.2000E-02  0.2000E-02
    -28.249  0.0000E+00  0.0000E+00  0.2000E-02  0.2000E-02
    -28.127  0.0000E+00  0.0000E+00  0.2000E-02  0.2000E-02
    -28.005  0.0000E+00  0.0000E+00  0.2000E-02  0.2000E-02
    -27.882  0.0000E+00  0.0000E+00  0.2000E-02  0.2000E-02
    -27.760  0.0000E+00  0.0000E+00  0.2000E-02  0.2000E-02
    -27.638  0.0000E+00  0.0000E+00  0.2000E-02  0.2000E-02
    -27.515  0.0000E+00  0.0000E+00  0.2000E-02  0.2000E-02
    -27.393  0.0000E+00  0.0000E+00  0.2000E-02  0.2000E-02
    -27.271  0.0000E+00  0.0000E+00  0.2000E-02  0.2000E-02
    -27.148  0.0000E+00  0.0000E+00  0.2000E-02  0.2000E-02
    -27.026  0.0000E+00  0.0000E+00  0.2000E-02  0.2000E-02
    -26.904  0.0000E+00  0.0000E+00  0.2000E-02  0.2000E-02
    -26.781  0.0000E+00  0.0000E+00  0.2000E-02  0.2000E-02
    -26.659  0.0000E+00  0.0000E+00  0.2000E-02  0.2000E-02
    -26.537  0.0000E+00  0.0000E+00  0.2000E-02  0.2000E-02
    -26.414  0.0000E+00  0.0000E+00  0.2000E-02  0.2000E-02
    -26.292  0.0000E+00  0.0000E+00  0.2000E-02  0.2000E-02
    -26.169  0.0000E+00  0.0000E+00  0.2000E-02  0.2000E-02
    -26.047  0.0000E+00  0.0000E+00  0.2000E-02  0.2000E-02
    -25.925  0.0000E+00  0.0000E+00  0.2000E-02  0.2000E-02
    -25.802  0.0000E+00  0.0000E+00  0.2000E-02  0.2000E-02
    -25.680  0.0000E+00  0.0000E+00  0.2000E-02  0.2000E-02
    -25.558  0.0000E+00  0.0000E+00  0.2000E-02  0.2000E-02
    -25.435  0.0000E+00  0.0000E+00  0.2000E-02  0.2000E-02
    -25.313  0.0000E+00  0.0000E+00  0.2000E-02  0.2000E-02
    -25.191  0.0000E+00  0.0000E+00  0.2000E-02  0.2000E-02
    -25.068  0.0000E+00  0.0000E+00  0.2000E-02  0.2000E-02
    -24.946  0.0000E+00  0.0000E+00  0.2000E-02  0.2000E-02
    -24.824  0.0000E+00  0.0000E+00  0.2000E-02  0.2000E-02
    -24.701  0.0000E+00  0.0000E+00  0.2000E-02  0.2000E-02
    -24.579  0.0000E+00  0.0000E+00  0.2000E-02  0.2000E-02
    -24.457  0.0000E+00  0.0000E+00  0.2000E-02  0.2000E-02
    -24.334  0.0000E+00  0.0000E+00  0.2000E-02  0.2000E-02
    -24.212  0.0000E+00  0.0000E+00  0.2000E-02  0.2000E-02
    -24.090  0.0000E+00  0.0000E+00  0.2000E-02  0.2000E-02
    -23.967  0.0000E+00  0.0000E+00  0.2000E-02  0.2000E-02
    -23.845  0.0000E+00  0.0000E+00  0.2000E-02  0.2000E-02
    -23.723  0.0000E+00  0.0000E+00  0.2000E-02  0.2000E-02
    -23.600  0.0000E+00  0.0000E+00  0.2000E-02  0.2000E-02
    -23.478  0.0000E+00  0.0000E+00  0.2000E-02  0.2000E-02
    -23.355  0.0000E+00  0.0000E+00  0.2000E-02  0.2000E-02
    -23.233  0.0000E+00  0.0000E+00  0.2000E-02  0.2000E-02
    -23.111  0.0000E+00  0.0000E+00  0.2000E-02  0.2000E-02
    -22.988  0.0000E+00  0.0000E+00  0.2000E-02  0.2000E-02
    -22.866  0.1690E-12  0.1690E-12  0.2000E-02  0.2000E-02
    -22.744  0.4761E-05  0.4761E-05  0.2001E-02  0.2001E-02
    -22.621  0.5361E-02  0.5361E-02  0.2657E-02  0.2657E-02
    -22.499  0.1090E-01  0.1090E-01  0.3990E-02  0.3990E-02
    -22.377  0.6353E-02  0.6353E-02  0.4767E-02  0.4767E-02
    -22.254  0.9887E-02  0.9887E-02  0.5977E-02  0.5977E-02
    -22.132  0.4603E-03  0.4603E-03  0.6033E-02  0.6033E-02
    -22.010  0.4928E-02  0.4928E-02  0.6636E-02  0.6636E-02
    -21.887  0.1016E-01  0.1016E-01  0.7880E-02  0.7880E-02
    -21.765  0.5782E-02  0.5782E-02  0.8587E-02  0.8587E-02
    -21.643  0.7824E-02  0.7824E-02  0.9544E-02  0.9544E-02
    -21.520  0.1164E-01  0.1164E-01  0.1097E-01  0.1097E-01
    -21.398  0.7472E-02  0.7472E-02  0.1188E-01  0.1188E-01
    -21.276  0.4980E-02  0.4980E-02  0.1249E-01  0.1249E-01
    -21.153  0.4136E-02  0.4136E-02  0.1300E-01  0.1300E-01
    -21.031  0.4662E-02  0.4662E-02  0.1357E-01  0.1357E-01
    -20.909  0.6946E-02  0.6946E-02  0.1442E-01  0.1442E-01
    -20.786  0.6234E-02  0.6234E-02  0.1518E-01  0.1518E-01
    -20.664  0.4981E-02  0.4981E-02  0.1579E-01  0.1579E-01
    -20.542  0.7534E-02  0.7534E-02  0.1671E-01  0.1671E-01
    -20.419  0.7692E-02  0.7692E-02  0.1765E-01  0.1765E-01
    -20.297  0.5291E-02  0.5291E-02  0.1830E-01  0.1830E-01
    -20.174  0.5808E-02  0.5808E-02  0.1901E-01  0.1901E-01
    -20.052  0.6064E-02  0.6064E-02  0.1975E-01  0.1975E-01
    -19.930  0.4247E-02  0.4247E-02  0.2027E-01  0.2027E-01
    -19.807  0.7236E-02  0.7236E-02  0.2116E-01  0.2116E-01
    -19.685  0.9226E-02  0.9226E-02  0.2229E-01  0.2229E-01
    -19.563  0.1062E-01  0.1062E-01  0.2359E-01  0.2359E-01
    -19.440  0.3026E-02  0.3026E-02  0.2396E-01  0.2396E-01
    -19.318  0.5475E-02  0.5475E-02  0.2463E-01  0.2463E-01
    -19.196  0.5891E-02  0.5891E-02  0.2535E-01  0.2535E-01
    -19.073  0.3519E-02  0.3519E-02  0.2578E-01  0.2578E-01
    -18.951  0.5412E-02  0.5412E-02  0.2644E-01  0.2644E-01
    -18.829  0.1132E-01  0.1132E-01  0.2783E-01  0.2783E-01
    -18.706  0.1170E-01  0.1170E-01  0.2926E-01  0.2926E-01
    -18.584  0.5569E-02  0.5569E-02  0.2994E-01  0.2994E-01
    -18.462  0.5680E-02  0.5680E-02  0.3063E-01  0.3063E-01
    -18.339  0.7403E-02  0.7403E-02  0.3154E-01  0.3154E-01
    -18.217  0.5529E-02  0.5529E-02  0.3222E-01  0.3222E-01
    -18.095  0.6740E-02  0.6740E-02  0.3304E-01  0.3304E-01
    -17.972  0.4998E-02  0.4998E-02  0.3365E-01  0.3365E-01
    -17.850  0.7395E-02  0.7395E-02  0.3456E-01  0.3456E-01
    -17.728  0.1196E-01  0.1196E-01  0.3602E-01  0.3602E-01
    -17.605  0.1467E-01  0.1467E-01  0.3781E-01  0.3781E-01
    -17.483  0.3547E-02  0.3547E-02  0.3825E-01  0.3825E-01
    -17.361  0.6192E-02  0.6192E-02  0.3901E-01  0.3901E-01
    -17.238  0.8749E-02  0.8749E-02  0.4008E-01  0.4008E-01
    -17.116  0.7771E-02  0.7771E-02  0.4103E-01  0.4103E-01
    -16.993  0.4694E-02  0.4694E-02  0.4160E-01  0.4160E-01
    -16.871  0.5323E-02  0.5323E-02  0.4225E-01  0.4225E-01
    -16.749  0.1017E-01  0.1017E-01  0.4350E-01  0.4350E-01
    -16.626  0.1468E-01  0.1468E-01  0.4529E-01  0.4529E-01
    -16.504  0.5134E-02  0.5134E-02  0.4592E-01  0.4592E-01
    -16.382  0.2313E-02  0.2313E-02  0.4621E-01  0.4621E-01
    -16.259  0.3840E-03  0.3840E-03  0.4625E-01  0.4625E-01
    -16.137  0.1730E-02  0.1730E-02  0.4646E-01  0.4646E-01
    -16.015  0.2946E-02  0.2946E-02  0.4682E-01  0.4682E-01
    -15.892  0.6457E-02  0.6457E-02  0.4761E-01  0.4761E-01
    -15.770  0.7954E-02  0.7954E-02  0.4859E-01  0.4859E-01
    -15.648  0.3447E-02  0.3447E-02  0.4901E-01  0.4901E-01
    -15.525  0.5700E-02  0.5700E-02  0.4971E-01  0.4971E-01
    -15.403  0.1074E-01  0.1074E-01  0.5102E-01  0.5102E-01
    -15.281  0.1220E-01  0.1220E-01  0.5251E-01  0.5251E-01
    -15.158  0.7284E-02  0.7284E-02  0.5340E-01  0.5340E-01
    -15.036  0.6569E-02  0.6569E-02  0.5421E-01  0.5421E-01
    -14.914  0.8702E-02  0.8702E-02  0.5527E-01  0.5527E-01
    -14.791  0.9309E-02  0.9309E-02  0.5641E-01  0.5641E-01
    -14.669  0.9976E-02  0.9976E-02  0.5763E-01  0.5763E-01
    -14.547  0.1274E-01  0.1274E-01  0.5919E-01  0.5919E-01
    -14.424  0.5518E-02  0.5518E-02  0.5987E-01  0.5987E-01
    -14.302  0.6326E-02  0.6326E-02  0.6064E-01  0.6064E-01
    -14.180  0.1608E-02  0.1608E-02  0.6084E-01  0.6084E-01
    -14.057  0.5853E-02  0.5853E-02  0.6155E-01  0.6155E-01
    -13.935  0.8580E-02  0.8580E-02  0.6260E-01  0.6260E-01
    -13.812  0.1057E-01  0.1057E-01  0.6389E-01  0.6389E-01
    -13.690  0.1059E-01  0.1059E-01  0.6519E-01  0.6519E-01
    -13.568  0.7296E-02  0.7296E-02  0.6608E-01  0.6608E-01
    -13.445  0.3064E-02  0.3064E-02  0.6646E-01  0.6646E-01
    -13.323  0.1169E-02  0.1169E-02  0.6660E-01  0.6660E-01
    -13.201  0.6631E-02  0.6631E-02  0.6741E-01  0.6741E-01
    -13.078  0.5678E-02  0.5678E-02  0.6811E-01  0.6811E-01
    -12.956  0.7334E-02  0.7334E-02  0.6900E-01  0.6900E-01
    -12.834  0.1769E-01  0.1769E-01  0.7117E-01  0.7117E-01
    -12.711  0.8768E-02  0.8768E-02  0.7224E-01  0.7224E-01
    -12.589  0.7581E-02  0.7581E-02  0.7317E-01  0.7317E-01
    -12.467  0.9058E-02  0.9058E-02  0.7428E-01  0.7428E-01
    -12.344  0.8367E-02  0.8367E-02  0.7530E-01  0.7530E-01
    -12.222  0.2815E-02  0.2815E-02  0.7564E-01  0.7564E-01
    -12.100  0.7268E-02  0.7268E-02  0.7653E-01  0.7653E-01
    -11.977  0.5934E-02  0.5934E-02  0.7726E-01  0.7726E-01
    -11.855  0.1447E-01  0.1447E-01  0.7903E-01  0.7903E-01
    -11.733  0.1018E-01  0.1018E-01  0.8027E-01  0.8027E-01
    -11.610  0.1241E-01  0.1241E-01  0.8179E-01  0.8179E-01
    -11.488  0.1013E-01  0.1013E-01  0.8303E-01  0.8303E-01
    -11.366  0.1055E-01  0.1055E-01  0.8432E-01  0.8432E-01
    -11.243  0.1358E-01  0.1358E-01  0.8599E-01  0.8599E-01
    -11.121  0.8999E-02  0.8999E-02  0.8709E-01  0.8709E-01
    -10.999  0.7405E-02  0.7405E-02  0.8799E-01  0.8799E-01
    -10.876  0.2339E-02  0.2339E-02  0.8828E-01  0.8828E-01
    -10.754  0.3990E-02  0.3990E-02  0.8877E-01  0.8877E-01
    -10.631  0.1545E-01  0.1545E-01  0.9066E-01  0.9066E-01
    -10.509  0.1553E-01  0.1553E-01  0.9256E-01  0.9256E-01
    -10.387  0.1011E-01  0.1011E-01  0.9379E-01  0.9379E-01
    -10.264  0.1682E-01  0.1682E-01  0.9585E-01  0.9585E-01
    -10.142  0.1639E-01  0.1639E-01  0.9786E-01  0.9786E-01
    -10.020  0.1644E-01  0.1644E-01  0.9987E-01  0.9987E-01
     -9.897  0.1868E-01  0.1868E-01  0.1022E+00  0.1022E+00
     -9.775  0.2047E-01  0.2047E-01  0.1047E+00  0.1047E+00
     -9.653  0.1671E-01  0.1671E-01  0.1067E+00  0.1067E+00
     -9.530  0.2550E-01  0.2550E-01  0.1098E+00  0.1098E+00
     -9.408  0.2369E-01  0.2369E-01  0.1127E+00  0.1127E+00
     -9.286  0.1607E-01  0.1607E-01  0.1147E+00  0.1147E+00
     -9.163  0.2799E-01  0.2799E-01  0.1181E+00  0.1181E+00
     -9.041  0.2133E-01  0.2133E-01  0.1207E+00  0.1207E+00
     -8.919  0.2136E-01  0.2136E-01  0.1233E+00  0.1233E+00
     -8.796  0.1695E-01  0.1695E-01  0.1254E+00  0.1254E+00
     -8.674  0.9461E-02  0.9461E-02  0.1266E+00  0.1266E+00
     -8.552  0.2133E-01  0.2133E-01  0.1292E+00  0.1292E+00
     -8.429  0.2605E-01  0.2605E-01  0.1324E+00  0.1324E+00
     -8.307  0.2031E-01  0.2031E-01  0.1348E+00  0.1348E+00
     -8.185  0.1223E-01  0.1223E-01  0.1363E+00  0.1363E+00
     -8.062  0.9820E-02  0.9820E-02  0.1375E+00  0.1375E+00
     -7.940  0.1150E-01  0.1150E-01  0.1390E+00  0.1390E+00
     -7.817  0.8943E-02  0.8943E-02  0.1400E+00  0.1400E+00
     -7.695  0.1309E-01  0.1309E-01  0.1416E+00  0.1416E+00
     -7.573  0.1859E-01  0.1859E-01  0.1439E+00  0.1439E+00
     -7.450  0.2260E-01  0.2260E-01  0.1467E+00  0.1467E+00
     -7.328  0.1685E-01  0.1685E-01  0.1487E+00  0.1487E+00
     -7.206  0.1411E-01  0.1411E-01  0.1505E+00  0.1505E+00
     -7.083  0.1390E-01  0.1390E-01  0.1522E+00  0.1522E+00
     -6.961  0.8140E-02  0.8140E-02  0.1532E+00  0.1532E+00
     -6.839  0.8873E-02  0.8873E-02  0.1543E+00  0.1543E+00
     -6.716  0.1411E-01  0.1411E-01  0.1560E+00  0.1560E+00
     -6.594  0.1168E-01  0.1168E-01  0.1574E+00  0.1574E+00
     -6.472  0.1900E-01  0.1900E-01  0.1597E+00  0.1597E+00
     -6.349  0.1328E-01  0.1328E-01  0.1614E+00  0.1614E+00
     -6.227  0.1040E-01  0.1040E-01  0.1626E+00  0.1626E+00
     -6.105  0.1425E-01  0.1425E-01  0.1644E+00  0.1644E+00
     -5.982  0.4494E-02  0.4494E-02  0.1649E+00  0.1649E+00
     -5.860  0.8285E-02  0.8285E-02  0.1659E+00  0.1659E+00
     -5.738  0.1322E-01  0.1322E-01  0.1676E+00  0.1676E+00
     -5.615  0.5091E-02  0.5091E-02  0.1682E+00  0.1682E+00
     -5.493  0.6702E-02  0.6702E-02  0.1690E+00  0.1690E+00
     -5.371  0.6695E-02  0.6695E-02  0.1698E+00  0.1698E+00
     -5.248  0.2015E-01  0.2015E-01  0.1723E+00  0.1723E+00
     -5.126  0.1814E-01  0.1814E-01  0.1745E+00  0.1745E+00
     -5.004  0.1342E-01  0.1342E-01  0.1761E+00  0.1761E+00
     -4.881  0.8533E-03  0.8533E-03  0.1763E+00  0.1763E+00
     -4.759  0.2520E-02  0.2520E-02  0.1766E+00  0.1766E+00
     -4.636  0.1270E-01  0.1270E-01  0.1781E+00  0.1781E+00
     -4.514  0.1368E-01  0.1368E-01  0.1798E+00  0.1798E+00
     -4.392  0.1746E-01  0.1746E-01  0.1819E+00  0.1819E+00
     -4.269  0.2026E-01  0.2026E-01  0.1844E+00  0.1844E+00
     -4.147  0.1549E-01  0.1549E-01  0.1863E+00  0.1863E+00
     -4.025  0.5734E-02  0.5734E-02  0.1870E+00  0.1870E+00
     -3.902  0.1232E-02  0.1232E-02  0.1871E+00  0.1871E+00
     -3.780  0.1656E-02  0.1656E-02  0.1874E+00  0.1874E+00
     -3.658  0.4197E-02  0.4197E-02  0.1879E+00  0.1879E+00
     -3.535  0.8524E-02  0.8524E-02  0.1889E+00  0.1889E+00
     -3.413  0.4486E-02  0.4486E-02  0.1895E+00  0.1895E+00
     -3.291  0.3463E-03  0.3463E-03  0.1895E+00  0.1895E+00
     -3.168  0.3292E-05  0.3292E-05  0.1895E+00  0.1895E+00
     -3.046  0.2042E-02  0.2042E-02  0.1898E+00  0.1898E+00
     -2.924  0.2038E-02  0.2038E-02  0.1900E+00  0.1900E+00
     -2.801  0.7475E-05  0.7475E-05  0.1900E+00  0.1900E+00
     -2.679  0.1978E-02  0.1978E-02  0.1902E+00  0.1902E+00
     -2.557  0.2099E-02  0.2099E-02  0.1905E+00  0.1905E+00
     -2.434  0.5664E-05  0.5664E-05  0.1905E+00  0.1905E+00
     -2.312  0.4415E-03  0.4415E-03  0.1906E+00  0.1906E+00
     -2.190  0.3406E-02  0.3406E-02  0.1910E+00  0.1910E+00
     -2.067  0.1706E-02  0.1706E-02  0.1912E+00  0.1912E+00
     -1.945  0.6525E-02  0.6525E-02  0.1920E+00  0.1920E+00
     -1.823  0.2057E-03  0.2057E-03  0.1920E+00  0.1920E+00
     -1.700  0.3962E-02  0.3962E-02  0.1925E+00  0.1925E+00
     -1.578  0.6997E-02  0.6997E-02  0.1933E+00  0.1933E+00
     -1.455  0.1278E-02  0.1278E-02  0.1935E+00  0.1935E+00
     -1.333  0.7718E-03  0.7718E-03  0.1936E+00  0.1936E+00
     -1.211  0.1078E-01  0.1078E-01  0.1949E+00  0.1949E+00
     -1.088  0.1514E-01  0.1514E-01  0.1968E+00  0.1968E+00
     -0.966  0.7361E-02  0.7361E-02  0.1977E+00  0.1977E+00
     -0.844  0.7937E-02  0.7937E-02  0.1986E+00  0.1986E+00
     -0.721  0.1020E-01  0.1020E-01  0.1999E+00  0.1999E+00
     -0.599  0.3421E-02  0.3421E-02  0.2003E+00  0.2003E+00
     -0.477  0.7594E-02  0.7594E-02  0.2012E+00  0.2012E+00
     -0.354  0.9010E-02  0.9010E-02  0.2023E+00  0.2023E+00
     -0.232  0.1069E-01  0.1069E-01  0.2036E+00  0.2036E+00
     -0.110  0.1277E-01  0.1277E-01  0.2052E+00  0.2052E+00
      0.013  0.6224E-02  0.6224E-02  0.2060E+00  0.2060E+00
      0.135  0.8383E-03  0.8383E-03  0.2061E+00  0.2061E+00
      0.257  0.5613E-02  0.5613E-02  0.2068E+00  0.2068E+00
      0.380  0.5352E-02  0.5352E-02  0.2074E+00  0.2074E+00
      0.502  0.8621E-02  0.8621E-02  0.2085E+00  0.2085E+00
      0.624  0.5016E-02  0.5016E-02  0.2091E+00  0.2091E+00
      0.747  0.3694E-02  0.3694E-02  0.2095E+00  0.2095E+00
      0.869  0.8358E-02  0.8358E-02  0.2106E+00  0.2106E+00
      0.991  0.8632E-02  0.8632E-02  0.2116E+00  0.2116E+00
      1.114  0.9764E-02  0.9764E-02  0.2128E+00  0.2128E+00
      1.236  0.1282E-01  0.1282E-01  0.2144E+00  0.2144E+00
      1.358  0.1718E-01  0.1718E-01  0.2165E+00  0.2165E+00
      1.481  0.1102E-01  0.1102E-01  0.2178E+00  0.2178E+00
      1.603  0.6592E-02  0.6592E-02  0.2186E+00  0.2186E+00
      1.726  0.5242E-02  0.5242E-02  0.2193E+00  0.2193E+00
      1.848  0.1536E-01  0.1536E-01  0.2212E+00  0.2212E+00
      1.970  0.2404E-01  0.2404E-01  0.2241E+00  0.2241E+00
      2.093  0.1295E-01  0.1295E-01  0.2257E+00  0.2257E+00
      2.215  0.7042E-02  0.7042E-02  0.2265E+00  0.2265E+00
      2.337  0.1947E-01  0.1947E-01  0.2289E+00  0.2289E+00
      2.460  0.2360E-01  0.2360E-01  0.2318E+00  0.2318E+00
      2.582  0.1375E-01  0.1375E-01  0.2335E+00  0.2335E+00
      2.704  0.1136E-01  0.1136E-01  0.2349E+00  0.2349E+00
      2.827  0.3567E-01  0.3567E-01  0.2392E+00  0.2392E+00
      2.949  0.4211E-01  0.4211E-01  0.2444E+00  0.2444E+00
      3.071  0.1485E-01  0.1485E-01  0.2462E+00  0.2462E+00
      3.194  0.8376E-02  0.8376E-02  0.2472E+00  0.2472E+00
      3.316  0.1814E-01  0.1814E-01  0.2495E+00  0.2495E+00
      3.438  0.2351E-01  0.2351E-01  0.2523E+00  0.2523E+00
      3.561  0.1165E-01  0.1165E-01  0.2538E+00  0.2538E+00
      3.683  0.1398E-01  0.1398E-01  0.2555E+00  0.2555E+00
      3.805  0.3015E-01  0.3015E-01  0.2592E+00  0.2592E+00
      3.928  0.3069E-01  0.3069E-01  0.2629E+00  0.2629E+00
      4.050  0.1366E-01  0.1366E-01  0.2646E+00  0.2646E+00
      4.172  0.3357E-02  0.3357E-02  0.2650E+00  0.2650E+00
      4.295  0.2865E-04  0.2865E-04  0.2650E+00  0.2650E+00
      4.417  0.1523E-10  0.1523E-10  0.2650E+00  0.2650E+00
      4.539  0.0000E+00  0.0000E+00  0.2650E+00  0.2650E+00
      4.662  0.0000E+00  0.0000E+00  0.2650E+00  0.2650E+00
      4.784  0.0000E+00  0.0000E+00  0.2650E+00  0.2650E+00
      4.907  0.0000E+00  0.0000E+00  0.2650E+00  0.2650E+00
      5.029  0.0000E+00  0.0000E+00  0.2650E+00  0.2650E+00
      5.151  0.0000E+00  0.0000E+00  0.2650E+00  0.2650E+00
      5.274  0.0000E+00  0.0000E+00  0.2650E+00  0.2650E+00
      5.396  0.0000E+00  0.0000E+00  0.2650E+00  0.2650E+00
      5.518  0.0000E+00  0.0000E+00  0.2650E+00  0.2650E+00
      5.641  0.0000E+00  0.0000E+00  0.2650E+00  0.2650E+00
      5.763  0.0000E+00  0.0000E+00  0.2650E+00  0.2650E+00
