       N       E                     dE             d eps       ncg     rms          rms(c)
DAV:   1     0.348135109850E+04    0.34814E+04   -0.14373E+05  4600   0.109E+03
DAV:   2    -0.186630699874E+03   -0.36680E+04   -0.34586E+04  6380   0.267E+02
DAV:   3    -0.840254592917E+03   -0.65362E+03   -0.65052E+03  5270   0.118E+02
DAV:   4    -0.862733241060E+03   -0.22479E+02   -0.22371E+02  5180   0.275E+01
DAV:   5    -0.863449094406E+03   -0.71585E+00   -0.71484E+00  5980   0.416E+00    0.512E+01
DAV:   6    -0.715522453378E+03    0.14793E+03   -0.16670E+02  4865   0.207E+01    0.281E+01
DAV:   7    -0.751641711241E+03   -0.36119E+02   -0.52816E+01  4790   0.117E+01    0.139E+01
DAV:   8    -0.784239703527E+03   -0.32598E+02   -0.22132E+01  4840   0.722E+00    0.686E+00
DAV:   9    -0.799973976654E+03   -0.15734E+02   -0.61686E+00  4670   0.362E+00    0.392E+00
DAV:  10    -0.811827760702E+03   -0.11854E+02   -0.43751E+00  4580   0.268E+00    0.223E+00
DAV:  11    -0.818491957423E+03   -0.66642E+01   -0.24729E+00  4610   0.184E+00    0.126E+00
DAV:  12    -0.821018171381E+03   -0.25262E+01   -0.79635E-01  4630   0.105E+00    0.733E-01
DAV:  13    -0.822336961570E+03   -0.13188E+01   -0.40076E-01  4700   0.725E-01    0.233E-01
DAV:  14    -0.822563281284E+03   -0.22632E+00   -0.46060E-02  4750   0.292E-01    0.115E-01
DAV:  15    -0.822583062429E+03   -0.19781E-01   -0.89122E-03  4740   0.136E-01    0.848E-02
DAV:  16    -0.822590560145E+03   -0.74977E-02   -0.22416E-03  4510   0.875E-02    0.558E-02
DAV:  17    -0.822606574841E+03   -0.16015E-01   -0.22434E-03  4685   0.725E-02    0.472E-02
DAV:  18    -0.822621399366E+03   -0.14825E-01   -0.10206E-03  4820   0.512E-02    0.306E-02
DAV:  19    -0.822627611812E+03   -0.62124E-02   -0.71349E-04  4660   0.339E-02    0.187E-02
DAV:  20    -0.822629058762E+03   -0.14470E-02   -0.78770E-05  4740   0.195E-02    0.109E-02
DAV:  21    -0.822630667258E+03   -0.16085E-02   -0.68425E-05  4600   0.140E-02    0.625E-03
DAV:  22    -0.822631039945E+03   -0.37269E-03   -0.99824E-06  4360   0.712E-03    0.350E-03
DAV:  23    -0.822631248871E+03   -0.20893E-03   -0.38282E-06  3960   0.455E-03    0.248E-03
DAV:  24    -0.822631340534E+03   -0.91663E-04   -0.22337E-06  3720   0.373E-03    0.131E-03
DAV:  25    -0.822631371246E+03   -0.30712E-04   -0.15264E-06  3450   0.286E-03    0.120E-03
DAV:  26    -0.822631380521E+03   -0.92748E-05   -0.44248E-07  3330   0.158E-03    0.890E-04
DAV:  27    -0.822631390045E+03   -0.95242E-05   -0.31600E-07  3180   0.122E-03    0.584E-04
DAV:  28    -0.822631394944E+03   -0.48990E-05   -0.12917E-07  2930   0.741E-04    0.531E-04
DAV:  29    -0.822631397339E+03   -0.23947E-05   -0.69831E-08  2850   0.508E-04    0.480E-04
DAV:  30    -0.822631398185E+03   -0.84641E-06   -0.27908E-08  2910   0.295E-04
   1 F= -.83013969E+03 E0= -.83013969E+03  d E =-.830140E+03  mag=    -0.0000
       N       E                     dE             d eps       ncg     rms          rms(c)
DAV:   1    -0.822631392889E+03    0.44500E-05   -0.83690E-05  4500   0.183E-02    0.207E-03
DAV:   2    -0.822631393121E+03   -0.23255E-06   -0.18929E-06  3710   0.268E-03
   2 F= -.83013968E+03 E0= -.83013968E+03  d E =0.482898E-05  mag=    -0.0000
       N       E                     dE             d eps       ncg     rms          rms(c)
DAV:   1    -0.822631380459E+03    0.12430E-04   -0.16022E-04  4600   0.225E-02    0.292E-03
DAV:   2    -0.822631380777E+03   -0.31781E-06   -0.33571E-06  3640   0.309E-03
   3 F= -.83013967E+03 E0= -.83013967E+03  d E =0.112048E-04  mag=    -0.0000
       N       E                     dE             d eps       ncg     rms          rms(c)
DAV:   1    -0.822631366311E+03    0.14148E-04   -0.33072E-04  4580   0.305E-02    0.390E-03
DAV:   2    -0.822631366898E+03   -0.58787E-06   -0.65394E-06  4150   0.412E-03
   4 F= -.83013966E+03 E0= -.83013966E+03  d E =0.119533E-04  mag=    -0.0000
       N       E                     dE             d eps       ncg     rms          rms(c)
DAV:   1    -0.822631354189E+03    0.12122E-04   -0.56935E-04  4510   0.398E-02    0.534E-03
DAV:   2    -0.822631355162E+03   -0.97345E-06   -0.11661E-05  4530   0.545E-03    0.350E-03
DAV:   3    -0.822631355086E+03    0.76790E-07   -0.33711E-07  3000   0.122E-03
   5 F= -.83013965E+03 E0= -.83013965E+03  d E =0.102141E-04  mag=    -0.0000
       N       E                     dE             d eps       ncg     rms          rms(c)
DAV:   1    -0.822631349192E+03    0.59707E-05   -0.71051E-04  4430   0.455E-02    0.527E-03
DAV:   2    -0.822631350536E+03   -0.13439E-05   -0.15135E-05  4660   0.622E-03    0.322E-03
DAV:   3    -0.822631350465E+03    0.70140E-07   -0.31040E-07  3020   0.118E-03
   6 F= -.83013964E+03 E0= -.83013964E+03  d E =0.286487E-05  mag=    -0.0000
       N       E                     dE             d eps       ncg     rms          rms(c)
DAV:   1    -0.822631355308E+03   -0.47722E-05   -0.85577E-04  4440   0.524E-02    0.589E-03
DAV:   2    -0.822631356969E+03   -0.16612E-05   -0.18848E-05  4600   0.723E-03    0.359E-03
DAV:   3    -0.822631356897E+03    0.72177E-07   -0.38637E-07  3180   0.135E-03
   7 F= -.83013965E+03 E0= -.83013965E+03  d E =-.919274E-05  mag=    -0.0000
       N       E                     dE             d eps       ncg     rms          rms(c)
DAV:   1    -0.822631380752E+03   -0.23783E-04   -0.12502E-03  4360   0.629E-02    0.728E-03
DAV:   2    -0.822631383218E+03   -0.24660E-05   -0.28008E-05  4680   0.873E-03    0.440E-03
DAV:   3    -0.822631383122E+03    0.96072E-07   -0.55583E-07  3120   0.160E-03
   8 F= -.83013968E+03 E0= -.83013968E+03  d E =-.295687E-04  mag=    -0.0000
       N       E                     dE             d eps       ncg     rms          rms(c)
DAV:   1    -0.822631438941E+03   -0.55723E-04   -0.21896E-03  4360   0.820E-02    0.971E-03
DAV:   2    -0.822631443315E+03   -0.43741E-05   -0.50595E-05  4580   0.116E-02    0.585E-03
DAV:   3    -0.822631443105E+03    0.20971E-06   -0.10133E-06  3220   0.206E-03
   9 F= -.83013975E+03 E0= -.83013975E+03  d E =-.621476E-04  mag=    -0.0000
       N       E                     dE             d eps       ncg     rms          rms(c)
DAV:   1    -0.822631542630E+03   -0.99315E-04   -0.35076E-03  4350   0.104E-01    0.122E-02
DAV:   2    -0.822631549779E+03   -0.71487E-05   -0.81544E-05  4500   0.147E-02    0.744E-03
DAV:   3    -0.822631549465E+03    0.31380E-06   -0.15803E-06  3260   0.257E-03
  10 F= -.83013986E+03 E0= -.83013986E+03  d E =-.109958E-03  mag=    -0.0000
       N       E                     dE             d eps       ncg     rms          rms(c)
DAV:   1    -0.822631712758E+03   -0.16298E-03   -0.50626E-03  4330   0.132E-01    0.151E-02
DAV:   2    -0.822631723125E+03   -0.10368E-04   -0.12026E-04  4400   0.187E-02    0.912E-03
DAV:   3    -0.822631722693E+03    0.43205E-06   -0.26160E-06  3880   0.338E-03
  11 F= -.83014003E+03 E0= -.83014003E+03  d E =-.177342E-03  mag=    -0.0000
       N       E                     dE             d eps       ncg     rms          rms(c)
DAV:   1    -0.822631972932E+03   -0.24981E-03   -0.86207E-03  4320   0.173E-01    0.194E-02
DAV:   2    -0.822631991218E+03   -0.18286E-04   -0.21189E-04  4440   0.247E-02    0.115E-02
DAV:   3    -0.822631990494E+03    0.72418E-06   -0.43335E-06  4220   0.426E-03
  12 F= -.83014030E+03 E0= -.83014030E+03  d E =-.267878E-03  mag=    -0.0000
       N       E                     dE             d eps       ncg     rms          rms(c)
DAV:   1    -0.822632016372E+03   -0.25153E-04   -0.17229E-04  4580   0.273E-02    0.346E-03
DAV:   2    -0.822632016625E+03   -0.25323E-06   -0.46879E-06  4060   0.431E-03
  13 F= -.83014033E+03 E0= -.83014033E+03  d E =-.261319E-04  mag=    -0.0000
       N       E                     dE             d eps       ncg     rms          rms(c)
DAV:   1    -0.822632086427E+03   -0.70055E-04   -0.47549E-04  4420   0.431E-02    0.549E-03
DAV:   2    -0.822632087230E+03   -0.80290E-06   -0.12453E-05  4680   0.641E-03    0.347E-03
DAV:   3    -0.822632087139E+03    0.90768E-07   -0.47881E-07  3060   0.152E-03
  14 F= -.83014040E+03 E0= -.83014040E+03  d E =-.688459E-04  mag=    -0.0000
       N       E                     dE             d eps       ncg     rms          rms(c)
DAV:   1    -0.822632233890E+03   -0.14666E-03   -0.95558E-04  4320   0.521E-02    0.661E-03
DAV:   2    -0.822632235821E+03   -0.19310E-05   -0.23591E-05  4660   0.741E-03    0.350E-03
DAV:   3    -0.822632235788E+03    0.32982E-07   -0.40404E-07  3160   0.122E-03
  15 F= -.83014054E+03 E0= -.83014054E+03  d E =-.144161E-03  mag=    -0.0000
       N       E                     dE             d eps       ncg     rms          rms(c)
DAV:   1    -0.822632449067E+03   -0.21325E-03   -0.18173E-03  4320   0.729E-02    0.878E-03
DAV:   2    -0.822632452743E+03   -0.36754E-05   -0.43852E-05  4580   0.103E-02    0.474E-03
DAV:   3    -0.822632452654E+03    0.88869E-07   -0.75015E-07  3380   0.164E-03
  16 F= -.83014075E+03 E0= -.83014075E+03  d E =-.210209E-03  mag=    -0.0000
       N       E                     dE             d eps       ncg     rms          rms(c)
DAV:   1    -0.822632712263E+03   -0.25952E-03   -0.26733E-03  4320   0.899E-02    0.106E-02
DAV:   2    -0.822632717755E+03   -0.54917E-05   -0.64321E-05  4640   0.127E-02    0.594E-03
DAV:   3    -0.822632717576E+03    0.17803E-06   -0.11565E-06  3460   0.208E-03
  17 F= -.83014101E+03 E0= -.83014101E+03  d E =-.257316E-03  mag=    -0.0000
       N       E                     dE             d eps       ncg     rms          rms(c)
DAV:   1    -0.822633004082E+03   -0.28633E-03   -0.30767E-03  4310   0.951E-02    0.112E-02
DAV:   2    -0.822633010443E+03   -0.63605E-05   -0.72138E-05  4560   0.132E-02    0.628E-03
DAV:   3    -0.822633010272E+03    0.17069E-06   -0.11639E-06  3600   0.204E-03
  18 F= -.83014129E+03 E0= -.83014129E+03  d E =-.286120E-03  mag=    -0.0000
       N       E                     dE             d eps       ncg     rms          rms(c)
DAV:   1    -0.822633329230E+03   -0.31879E-03   -0.40398E-03  4310   0.112E-01    0.127E-02
DAV:   2    -0.822633337927E+03   -0.86963E-05   -0.98166E-05  4440   0.157E-02    0.724E-03
DAV:   3    -0.822633337679E+03    0.24779E-06   -0.16113E-06  3940   0.245E-03
  19 F= -.83014162E+03 E0= -.83014162E+03  d E =-.322046E-03  mag=    -0.0000
       N       E                     dE             d eps       ncg     rms          rms(c)
DAV:   1    -0.822633653666E+03   -0.31574E-03   -0.43256E-03  4310   0.116E-01    0.138E-02
DAV:   2    -0.822633662882E+03   -0.92165E-05   -0.10754E-04  4400   0.166E-02    0.774E-03
DAV:   3    -0.822633662630E+03    0.25189E-06   -0.19140E-06  3960   0.272E-03
  20 F= -.83014193E+03 E0= -.83014193E+03  d E =-.318830E-03  mag=    -0.0000
       N       E                     dE             d eps       ncg     rms          rms(c)
DAV:   1    -0.822633657415E+03    0.54674E-05   -0.15579E-05  4380   0.800E-03    0.138E-03
DAV:   2    -0.822633657481E+03   -0.65782E-07   -0.75155E-07  3060   0.173E-03
  21 F= -.83014193E+03 E0= -.83014193E+03  d E =0.542484E-05  mag=    -0.0000
       N       E                     dE             d eps       ncg     rms          rms(c)
DAV:   1    -0.822633645177E+03    0.12238E-04   -0.39948E-05  4540   0.126E-02    0.158E-03
DAV:   2    -0.822633645254E+03   -0.77147E-07   -0.92733E-07  3100   0.190E-03
  22 F= -.83014192E+03 E0= -.83014192E+03  d E =0.127168E-04  mag=     0.0000
       N       E                     dE             d eps       ncg     rms          rms(c)
DAV:   1    -0.822633624311E+03    0.20866E-04   -0.62277E-05  4530   0.151E-02    0.206E-03
DAV:   2    -0.822633624419E+03   -0.10819E-06   -0.14254E-06  3230   0.223E-03
  23 F= -.83014189E+03 E0= -.83014189E+03  d E =0.213158E-04  mag=     0.0000
       N       E                     dE             d eps       ncg     rms          rms(c)
DAV:   1    -0.822633596207E+03    0.28105E-04   -0.71889E-05  4500   0.148E-02    0.217E-03
DAV:   2    -0.822633596336E+03   -0.12962E-06   -0.15374E-06  3240   0.213E-03
  24 F= -.83014187E+03 E0= -.83014187E+03  d E =0.284253E-04  mag=     0.0000
       N       E                     dE             d eps       ncg     rms          rms(c)
DAV:   1    -0.822633563544E+03    0.32662E-04   -0.85323E-05  4500   0.147E-02    0.220E-03
DAV:   2    -0.822633563703E+03   -0.15869E-06   -0.17037E-06  3420   0.204E-03
  25 F= -.83014183E+03 E0= -.83014183E+03  d E =0.325605E-04  mag=     0.0000
       N       E                     dE             d eps       ncg     rms          rms(c)
DAV:   1    -0.822633527921E+03    0.35624E-04   -0.11215E-04  4460   0.169E-02    0.244E-03
DAV:   2    -0.822633528128E+03   -0.20716E-06   -0.22444E-06  3580   0.236E-03
  26 F= -.83014180E+03 E0= -.83014180E+03  d E =0.349580E-04  mag=     0.0000
       N       E                     dE             d eps       ncg     rms          rms(c)
DAV:   1    -0.822633485311E+03    0.42610E-04   -0.18043E-04  4480   0.217E-02    0.309E-03
DAV:   2    -0.822633485622E+03   -0.31096E-06   -0.37005E-06  3720   0.305E-03
  27 F= -.83014176E+03 E0= -.83014176E+03  d E =0.410807E-04  mag=    -0.0000
       N       E                     dE             d eps       ncg     rms          rms(c)
DAV:   1    -0.822633435105E+03    0.50206E-04   -0.26070E-04  4530   0.252E-02    0.374E-03
DAV:   2    -0.822633435518E+03   -0.41303E-06   -0.51714E-06  3740   0.352E-03
  28 F= -.83014171E+03 E0= -.83014171E+03  d E =0.478707E-04  mag=    -0.0000
       N       E                     dE             d eps       ncg     rms          rms(c)
DAV:   1    -0.822633379857E+03    0.55248E-04   -0.31142E-04  4520   0.261E-02    0.406E-03
DAV:   2    -0.822633380329E+03   -0.47188E-06   -0.58353E-06  3780   0.357E-03
  29 F= -.83014166E+03 E0= -.83014166E+03  d E =0.523874E-04  mag=    -0.0000
       N       E                     dE             d eps       ncg     rms          rms(c)
DAV:   1    -0.822633323532E+03    0.56325E-04   -0.37293E-04  4590   0.297E-02    0.441E-03
DAV:   2    -0.822633324079E+03   -0.54721E-06   -0.68720E-06  3840   0.401E-03
  30 F= -.83014160E+03 E0= -.83014160E+03  d E =0.534749E-04  mag=    -0.0000
       N       E                     dE             d eps       ncg     rms          rms(c)
DAV:   1    -0.822633269054E+03    0.54478E-04   -0.45472E-04  4500   0.337E-02    0.493E-03
DAV:   2    -0.822633269754E+03   -0.70000E-06   -0.86776E-06  4360   0.453E-03
  31 F= -.83014155E+03 E0= -.83014155E+03  d E =0.523758E-04  mag=    -0.0000
       N       E                     dE             d eps       ncg     rms          rms(c)
DAV:   1    -0.822633221012E+03    0.48041E-04   -0.56782E-04  4390   0.374E-02    0.548E-03
DAV:   2    -0.822633221899E+03   -0.88666E-06   -0.10708E-05  4400   0.497E-03    0.345E-03
DAV:   3    -0.822633221836E+03    0.63425E-07   -0.27993E-07  2920   0.113E-03
  32 F= -.83014151E+03 E0= -.83014150E+03  d E =0.467623E-04  mag=    -0.0000
       N       E                     dE             d eps       ncg     rms          rms(c)
DAV:   1    -0.822633183920E+03    0.37979E-04   -0.85326E-04  4380   0.461E-02    0.556E-03
DAV:   2    -0.822633185421E+03   -0.15009E-05   -0.16804E-05  4520   0.619E-03    0.331E-03
DAV:   3    -0.822633185359E+03    0.61846E-07   -0.31808E-07  2940   0.115E-03
  33 F= -.83014147E+03 E0= -.83014147E+03  d E =0.344888E-04  mag=    -0.0000
       N       E                     dE             d eps       ncg     rms          rms(c)
DAV:   1    -0.822633160189E+03    0.25232E-04   -0.13590E-03  4300   0.591E-02    0.709E-03
DAV:   2    -0.822633162739E+03   -0.25499E-05   -0.28846E-05  4480   0.816E-03    0.433E-03
DAV:   3    -0.822633162612E+03    0.12646E-06   -0.60114E-07  3060   0.151E-03
  34 F= -.83014145E+03 E0= -.83014145E+03  d E =0.190131E-04  mag=     0.0000
       N       E                     dE             d eps       ncg     rms          rms(c)
DAV:   1    -0.822633169082E+03   -0.63433E-05   -0.88482E-06  4250   0.620E-03    0.875E-04
DAV:   2    -0.822633169112E+03   -0.30421E-07   -0.34244E-07  2900   0.113E-03
  35 F= -.83014146E+03 E0= -.83014146E+03  d E =-.616753E-05  mag=     0.0000
       N       E                     dE             d eps       ncg     rms          rms(c)
DAV:   1    -0.822633183757E+03   -0.14675E-04   -0.27093E-05  4530   0.108E-02    0.133E-03
DAV:   2    -0.822633183802E+03   -0.44638E-07   -0.64229E-07  3030   0.161E-03
  36 F= -.83014147E+03 E0= -.83014147E+03  d E =-.143231E-04  mag=    -0.0000
       N       E                     dE             d eps       ncg     rms          rms(c)
DAV:   1    -0.822633209384E+03   -0.25627E-04   -0.50742E-05  4420   0.142E-02    0.172E-03
DAV:   2    -0.822633209485E+03   -0.10039E-06   -0.12372E-06  3470   0.206E-03
  37 F= -.83014150E+03 E0= -.83014150E+03  d E =-.252675E-04  mag=    -0.0000
       N       E                     dE             d eps       ncg     rms          rms(c)
DAV:   1    -0.822633248509E+03   -0.39124E-04   -0.83593E-05  4390   0.168E-02    0.208E-03
DAV:   2    -0.822633248687E+03   -0.17837E-06   -0.20259E-06  3730   0.238E-03
  38 F= -.83014154E+03 E0= -.83014154E+03  d E =-.388491E-04  mag=    -0.0000
       N       E                     dE             d eps       ncg     rms          rms(c)
DAV:   1    -0.822633303366E+03   -0.54857E-04   -0.14676E-04  4320   0.213E-02    0.266E-03
DAV:   2    -0.822633303672E+03   -0.30630E-06   -0.34601E-06  3900   0.297E-03
  39 F= -.83014159E+03 E0= -.83014159E+03  d E =-.545629E-04  mag=    -0.0000
       N       E                     dE             d eps       ncg     rms          rms(c)
DAV:   1    -0.822633375717E+03   -0.72351E-04   -0.25152E-04  4320   0.278E-02    0.355E-03
DAV:   2    -0.822633376224E+03   -0.50753E-06   -0.59807E-06  4140   0.389E-03
  40 F= -.83014166E+03 E0= -.83014166E+03  d E =-.718935E-04  mag=    -0.0000
       N       E                     dE             d eps       ncg     rms          rms(c)
DAV:   1    -0.822633477925E+03   -0.10221E-03   -0.49443E-04  4300   0.384E-02    0.496E-03
DAV:   2    -0.822633478907E+03   -0.98201E-06   -0.11758E-05  4500   0.538E-03    0.306E-03
DAV:   3    -0.822633478889E+03    0.17688E-07   -0.21221E-07  3060   0.939E-04
  41 F= -.83014176E+03 E0= -.83014176E+03  d E =-.101389E-03  mag=    -0.0000
       N       E                     dE             d eps       ncg     rms          rms(c)
DAV:   1    -0.822633618216E+03   -0.13931E-03   -0.89632E-04  4340   0.509E-02    0.596E-03
DAV:   2    -0.822633620062E+03   -0.18462E-05   -0.21423E-05  4600   0.711E-03    0.316E-03
DAV:   3    -0.822633620028E+03    0.34262E-07   -0.30715E-07  3200   0.104E-03
  42 F= -.83014190E+03 E0= -.83014190E+03  d E =-.139384E-03  mag=    -0.0000
       N       E                     dE             d eps       ncg     rms          rms(c)
DAV:   1    -0.822633805401E+03   -0.18534E-03   -0.15509E-03  4320   0.676E-02    0.765E-03
DAV:   2    -0.822633808627E+03   -0.32261E-05   -0.36944E-05  4540   0.940E-03    0.412E-03
DAV:   3    -0.822633808566E+03    0.61227E-07   -0.51006E-07  3260   0.135E-03
  43 F= -.83014209E+03 E0= -.83014209E+03  d E =-.185832E-03  mag=    -0.0000
       N       E                     dE             d eps       ncg     rms          rms(c)
DAV:   1    -0.822634044809E+03   -0.23618E-03   -0.25528E-03  4310   0.878E-02    0.962E-03
DAV:   2    -0.822634050241E+03   -0.54320E-05   -0.60905E-05  4400   0.122E-02    0.531E-03
DAV:   3    -0.822634050118E+03    0.12253E-06   -0.82843E-07  3540   0.173E-03
  44 F= -.83014233E+03 E0= -.83014233E+03  d E =-.238238E-03  mag=    -0.0000
       N       E                     dE             d eps       ncg     rms          rms(c)
DAV:   1    -0.822634345894E+03   -0.29565E-03   -0.38490E-03  4300   0.108E-01    0.119E-02
DAV:   2    -0.822634354033E+03   -0.81395E-05   -0.91270E-05  4400   0.150E-02    0.663E-03
DAV:   3    -0.822634353854E+03    0.17982E-06   -0.12947E-06  3800   0.216E-03
  45 F= -.83014263E+03 E0= -.83014263E+03  d E =-.299505E-03  mag=    -0.0000
       N       E                     dE             d eps       ncg     rms          rms(c)
DAV:   1    -0.822634714555E+03   -0.36052E-03   -0.58501E-03  4300   0.133E-01    0.150E-02
DAV:   2    -0.822634726998E+03   -0.12443E-04   -0.14105E-04  4380   0.188E-02    0.824E-03
DAV:   3    -0.822634726740E+03    0.25771E-06   -0.20541E-06  4060   0.273E-03
  46 F= -.83014300E+03 E0= -.83014300E+03  d E =-.368405E-03  mag=    -0.0000
       N       E                     dE             d eps       ncg     rms          rms(c)
DAV:   1    -0.822635158355E+03   -0.43136E-03   -0.89405E-03  4300   0.166E-01    0.186E-02
DAV:   2    -0.822635177422E+03   -0.19067E-04   -0.21770E-04  4340   0.234E-02    0.101E-02
DAV:   3    -0.822635177075E+03    0.34733E-06   -0.31604E-06  4180   0.339E-03
  47 F= -.83014344E+03 E0= -.83014344E+03  d E =-.443704E-03  mag=    -0.0000
       N       E                     dE             d eps       ncg     rms          rms(c)
DAV:   1    -0.822635696045E+03   -0.51862E-03   -0.12325E-02  4280   0.191E-01    0.228E-02
DAV:   2    -0.822635721242E+03   -0.25197E-04   -0.29650E-04  4360   0.274E-02    0.122E-02
DAV:   3    -0.822635720795E+03    0.44679E-06   -0.48360E-06  4380   0.417E-03
  48 F= -.83014397E+03 E0= -.83014397E+03  d E =-.531754E-03  mag=    -0.0000
       N       E                     dE             d eps       ncg     rms          rms(c)
DAV:   1    -0.822636236688E+03   -0.51545E-03   -0.12059E-02  4260   0.195E-01    0.231E-02
DAV:   2    -0.822636261261E+03   -0.24573E-04   -0.28720E-04  4360   0.282E-02    0.127E-02
DAV:   3    -0.822636260903E+03    0.35767E-06   -0.51817E-06  4600   0.455E-03
  49 F= -.83014450E+03 E0= -.83014450E+03  d E =-.527151E-03  mag=    -0.0000
       N       E                     dE             d eps       ncg     rms          rms(c)
DAV:   1    -0.822636246025E+03    0.15235E-04   -0.61897E-05  4480   0.156E-02    0.219E-03
DAV:   2    -0.822636246275E+03   -0.24944E-06   -0.26500E-06  3700   0.305E-03
  50 F= -.83014448E+03 E0= -.83014448E+03  d E =0.148396E-04  mag=    -0.0000
       N       E                     dE             d eps       ncg     rms          rms(c)
DAV:   1    -0.822636212697E+03    0.33329E-04   -0.17175E-04  4470   0.251E-02    0.250E-03
DAV:   2    -0.822636213132E+03   -0.43588E-06   -0.44722E-06  3980   0.370E-03
  51 F= -.83014445E+03 E0= -.83014445E+03  d E =0.335058E-04  mag=    -0.0000
       N       E                     dE             d eps       ncg     rms          rms(c)
DAV:   1    -0.822636162310E+03    0.50386E-04   -0.29463E-04  4430   0.316E-02    0.340E-03
DAV:   2    -0.822636162980E+03   -0.66995E-06   -0.72033E-06  4260   0.444E-03
  52 F= -.83014440E+03 E0= -.83014440E+03  d E =0.504542E-04  mag=    -0.0000
       N       E                     dE             d eps       ncg     rms          rms(c)
DAV:   1    -0.822636100750E+03    0.61561E-04   -0.41741E-04  4410   0.369E-02    0.393E-03
DAV:   2    -0.822636101668E+03   -0.91853E-06   -0.97353E-06  4500   0.501E-03
  53 F= -.83014434E+03 E0= -.83014434E+03  d E =0.617989E-04  mag=     0.0000
       N       E                     dE             d eps       ncg     rms          rms(c)
DAV:   1    -0.822636030257E+03    0.70493E-04   -0.56585E-04  4350   0.432E-02    0.452E-03
DAV:   2    -0.822636031503E+03   -0.12459E-05   -0.13193E-05  4660   0.585E-03    0.309E-03
DAV:   3    -0.822636031479E+03    0.24098E-07   -0.15004E-07  2960   0.858E-04
  54 F= -.83014427E+03 E0= -.83014427E+03  d E =0.707832E-04  mag=     0.0000
       N       E                     dE             d eps       ncg     rms          rms(c)
DAV:   1    -0.822635950711E+03    0.80792E-04   -0.67988E-04  4440   0.475E-02    0.458E-03
DAV:   2    -0.822635952202E+03   -0.14914E-05   -0.16135E-05  4700   0.655E-03    0.248E-03
DAV:   3    -0.822635952172E+03    0.30064E-07   -0.17706E-07  3020   0.921E-04
  55 F= -.83014419E+03 E0= -.83014419E+03  d E =0.797756E-04  mag=     0.0000
       N       E                     dE             d eps       ncg     rms          rms(c)
DAV:   1    -0.822635849480E+03    0.10272E-03   -0.98101E-04  4330   0.569E-02    0.553E-03
DAV:   2    -0.822635851665E+03   -0.21844E-05   -0.23631E-05  4700   0.798E-03    0.306E-03
DAV:   3    -0.822635851614E+03    0.50597E-07   -0.26508E-07  3100   0.111E-03
  56 F= -.83014409E+03 E0= -.83014409E+03  d E =0.100991E-03  mag=     0.0000
       N       E                     dE             d eps       ncg     rms          rms(c)
DAV:   1    -0.822635849924E+03    0.17406E-05   -0.23308E-06  3840   0.322E-03    0.599E-04
DAV:   2    -0.822635849935E+03   -0.10863E-07   -0.12128E-07  2900   0.727E-04
  57 F= -.83014408E+03 E0= -.83014408E+03  d E =0.146940E-05  mag=     0.0000
       N       E                     dE             d eps       ncg     rms          rms(c)
DAV:   1    -0.822635846524E+03    0.34003E-05   -0.75425E-06  4180   0.551E-03    0.756E-04
DAV:   2    -0.822635846542E+03   -0.18095E-07   -0.20896E-07  2760   0.914E-04
  58 F= -.83014408E+03 E0= -.83014408E+03  d E =0.302238E-05  mag=    -0.0000
       N       E                     dE             d eps       ncg     rms          rms(c)
DAV:   1    -0.822635841558E+03    0.49662E-05   -0.15132E-05  4220   0.770E-03    0.103E-03
DAV:   2    -0.822635841591E+03   -0.32756E-07   -0.40854E-07  2880   0.123E-03
  59 F= -.83014408E+03 E0= -.83014408E+03  d E =0.440222E-05  mag=    -0.0000
       N       E                     dE             d eps       ncg     rms          rms(c)
DAV:   1    -0.822635835029E+03    0.65283E-05   -0.23348E-05  4240   0.939E-03    0.128E-03
DAV:   2    -0.822635835079E+03   -0.49069E-07   -0.61223E-07  3020   0.146E-03
  60 F= -.83014407E+03 E0= -.83014407E+03  d E =0.578785E-05  mag=    -0.0000
       N       E                     dE             d eps       ncg     rms          rms(c)
DAV:   1    -0.822635827224E+03    0.78055E-05   -0.24956E-05  4280   0.946E-03    0.131E-03
DAV:   2    -0.822635827276E+03   -0.51688E-07   -0.62952E-07  3120   0.145E-03
  61 F= -.83014406E+03 E0= -.83014406E+03  d E =0.695848E-05  mag=    -0.0000
       N       E                     dE             d eps       ncg     rms          rms(c)
DAV:   1    -0.822635819257E+03    0.79673E-05   -0.23615E-05  4220   0.900E-03    0.121E-03
DAV:   2    -0.822635819304E+03   -0.47723E-07   -0.56330E-07  3040   0.134E-03
  62 F= -.83014406E+03 E0= -.83014406E+03  d E =0.707789E-05  mag=    -0.0000
       N       E                     dE             d eps       ncg     rms          rms(c)
DAV:   1    -0.822635811384E+03    0.78725E-05   -0.27803E-05  4220   0.969E-03    0.119E-03
DAV:   2    -0.822635811442E+03   -0.57691E-07   -0.63480E-07  3060   0.139E-03
  63 F= -.83014405E+03 E0= -.83014405E+03  d E =0.692783E-05  mag=    -0.0000
       N       E                     dE             d eps       ncg     rms          rms(c)
DAV:   1    -0.822635804846E+03    0.65381E-05   -0.36905E-05  4200   0.113E-02    0.129E-03
DAV:   2    -0.822635804923E+03   -0.76659E-07   -0.84544E-07  3360   0.158E-03
  64 F= -.83014404E+03 E0= -.83014404E+03  d E =0.558752E-05  mag=    -0.0000
       N       E                     dE             d eps       ncg     rms          rms(c)
DAV:   1    -0.822635801500E+03    0.33466E-05   -0.54450E-05  4240   0.138E-02    0.153E-03
DAV:   2    -0.822635801618E+03   -0.11827E-06   -0.12768E-06  3390   0.195E-03
  65 F= -.83014404E+03 E0= -.83014404E+03  d E =0.255682E-05  mag=    -0.0000
       N       E                     dE             d eps       ncg     rms          rms(c)
DAV:   1    -0.822635804246E+03   -0.27467E-05   -0.80313E-05  4240   0.167E-02    0.181E-03
DAV:   2    -0.822635804429E+03   -0.18263E-06   -0.19309E-06  3700   0.237E-03
  66 F= -.83014405E+03 E0= -.83014404E+03  d E =-.307648E-05  mag=    -0.0000
       N       E                     dE             d eps       ncg     rms          rms(c)
DAV:   1    -0.822635816558E+03   -0.12312E-04   -0.10540E-04  4240   0.193E-02    0.215E-03
DAV:   2    -0.822635816798E+03   -0.23980E-06   -0.25690E-06  3940   0.280E-03
  67 F= -.83014406E+03 E0= -.83014406E+03  d E =-.119678E-04  mag=    -0.0000
       N       E                     dE             d eps       ncg     rms          rms(c)
DAV:   1    -0.822635843575E+03   -0.27017E-04   -0.12438E-04  4250   0.211E-02    0.254E-03
DAV:   2    -0.822635843832E+03   -0.25635E-06   -0.28843E-06  3920   0.303E-03
  68 F= -.83014408E+03 E0= -.83014408E+03  d E =-.257902E-04  mag=    -0.0000
       N       E                     dE             d eps       ncg     rms          rms(c)
DAV:   1    -0.822635891259E+03   -0.47683E-04   -0.18481E-04  4290   0.251E-02    0.322E-03
DAV:   2    -0.822635891599E+03   -0.33999E-06   -0.40817E-06  4260   0.354E-03
  69 F= -.83014413E+03 E0= -.83014413E+03  d E =-.457038E-04  mag=    -0.0000
       N       E                     dE             d eps       ncg     rms          rms(c)
DAV:   1    -0.822635969109E+03   -0.77850E-04   -0.29993E-04  4280   0.302E-02    0.418E-03
DAV:   2    -0.822635969615E+03   -0.50579E-06   -0.64130E-06  4400   0.417E-03
  70 F= -.83014420E+03 E0= -.83014420E+03  d E =-.749214E-04  mag=    -0.0000
       N       E                     dE             d eps       ncg     rms          rms(c)
DAV:   1    -0.822636087575E+03   -0.11847E-03   -0.56275E-04  4285   0.398E-02    0.584E-03
DAV:   2    -0.822636088476E+03   -0.90062E-06   -0.12103E-05  4720   0.552E-03    0.352E-03
DAV:   3    -0.822636088497E+03   -0.21915E-07   -0.31174E-07  3060   0.113E-03
  71 F= -.83014432E+03 E0= -.83014432E+03  d E =-.113782E-03  mag=    -0.0000
       N       E                     dE             d eps       ncg     rms          rms(c)
DAV:   1    -0.822636258916E+03   -0.17044E-03   -0.98834E-04  4280   0.486E-02    0.701E-03
DAV:   2    -0.822636260557E+03   -0.16410E-05   -0.21215E-05  4700   0.676E-03    0.385E-03
DAV:   3    -0.822636260530E+03    0.27314E-07   -0.49126E-07  3260   0.130E-03
  72 F= -.83014448E+03 E0= -.83014448E+03  d E =-.166166E-03  mag=    -0.0000
       N       E                     dE             d eps       ncg     rms          rms(c)
DAV:   1    -0.822636494777E+03   -0.23422E-03   -0.18339E-03  4300   0.653E-02    0.961E-03
DAV:   2    -0.822636497868E+03   -0.30908E-05   -0.40158E-05  4600   0.925E-03    0.530E-03
DAV:   3    -0.822636497763E+03    0.10462E-06   -0.97216E-07  3460   0.180E-03
  73 F= -.83014471E+03 E0= -.83014471E+03  d E =-.230198E-03  mag=    -0.0000
       N       E                     dE             d eps       ncg     rms          rms(c)
DAV:   1    -0.822636806686E+03   -0.30882E-03   -0.30447E-03  4280   0.826E-02    0.124E-02
DAV:   2    -0.822636811757E+03   -0.50708E-05   -0.66014E-05  4520   0.118E-02    0.687E-03
DAV:   3    -0.822636811578E+03    0.17900E-06   -0.16053E-06  3540   0.228E-03
  74 F= -.83014502E+03 E0= -.83014502E+03  d E =-.304208E-03  mag=     0.0000
       N       E                     dE             d eps       ncg     rms          rms(c)
DAV:   1    -0.822637194963E+03   -0.38321E-03   -0.45064E-03  4280   0.100E-01    0.151E-02
DAV:   2    -0.822637202572E+03   -0.76089E-05   -0.98586E-05  4480   0.141E-02    0.838E-03
DAV:   3    -0.822637202294E+03    0.27802E-06   -0.24924E-06  3570   0.273E-03
  75 F= -.83014540E+03 E0= -.83014540E+03  d E =-.378087E-03  mag=     0.0000
       N       E                     dE             d eps       ncg     rms          rms(c)
DAV:   1    -0.822637647629E+03   -0.44506E-03   -0.59594E-03  4280   0.113E-01    0.177E-02
DAV:   2    -0.822637657742E+03   -0.10114E-04   -0.13173E-04  4540   0.160E-02    0.984E-03
DAV:   3    -0.822637657323E+03    0.41903E-06   -0.34134E-06  3620   0.318E-03
  76 F= -.83014584E+03 E0= -.83014584E+03  d E =-.441558E-03  mag=     0.0000
       N       E                     dE             d eps       ncg     rms          rms(c)
DAV:   1    -0.822638143595E+03   -0.48585E-03   -0.72994E-03  4280   0.127E-01    0.198E-02
DAV:   2    -0.822638155975E+03   -0.12379E-04   -0.16386E-04  4520   0.179E-02    0.111E-02
DAV:   3    -0.822638155434E+03    0.54039E-06   -0.45006E-06  3780   0.372E-03
  77 F= -.83014632E+03 E0= -.83014632E+03  d E =-.485873E-03  mag=     0.0000
       N       E                     dE             d eps       ncg     rms          rms(c)
DAV:   1    -0.822638669825E+03   -0.51385E-03   -0.87578E-03  4280   0.147E-01    0.223E-02
DAV:   2    -0.822638685480E+03   -0.15654E-04   -0.20821E-04  4440   0.213E-02    0.125E-02
DAV:   3    -0.822638684758E+03    0.72140E-06   -0.59059E-06  4000   0.443E-03
  78 F= -.83014684E+03 E0= -.83014684E+03  d E =-.512424E-03  mag=     0.0000
       N       E                     dE             d eps       ncg     rms          rms(c)
DAV:   1    -0.822638694613E+03   -0.91332E-05   -0.14413E-04  4420   0.253E-02    0.343E-03
DAV:   2    -0.822638694908E+03   -0.29518E-06   -0.47305E-06  4220   0.438E-03
  79 F= -.83014685E+03 E0= -.83014685E+03  d E =-.976576E-05  mag=     0.0000
       N       E                     dE             d eps       ncg     rms          rms(c)
DAV:   1    -0.822638744339E+03   -0.49726E-04   -0.33930E-04  4440   0.366E-02    0.488E-03
DAV:   2    -0.822638744894E+03   -0.55505E-06   -0.89475E-06  4540   0.556E-03
  80 F= -.83014689E+03 E0= -.83014689E+03  d E =-.484668E-04  mag=     0.0000
       N       E                     dE             d eps       ncg     rms          rms(c)
DAV:   1    -0.822638754917E+03   -0.10577E-04   -0.59727E-06  4290   0.490E-03    0.161E-03
DAV:   2    -0.822638754964E+03   -0.47134E-07   -0.23081E-07  2870   0.986E-04
  81 F= -.83014690E+03 E0= -.83014690E+03  d E =-.974652E-05  mag=     0.0000
       N       E                     dE             d eps       ncg     rms          rms(c)
DAV:   1    -0.822638775079E+03   -0.20163E-04   -0.20314E-05  4420   0.858E-03    0.108E-03
DAV:   2    -0.822638775152E+03   -0.72949E-07   -0.49573E-07  3180   0.131E-03
  82 F= -.83014692E+03 E0= -.83014692E+03  d E =-.195242E-04  mag=     0.0000
       N       E                     dE             d eps       ncg     rms          rms(c)
DAV:   1    -0.822638804578E+03   -0.29499E-04   -0.41179E-05  4560   0.119E-02    0.166E-03
DAV:   2    -0.822638804671E+03   -0.92914E-07   -0.95820E-07  3180   0.175E-03
  83 F= -.83014695E+03 E0= -.83014695E+03  d E =-.284764E-04  mag=     0.0000
       N       E                     dE             d eps       ncg     rms          rms(c)
DAV:   1    -0.822638842942E+03   -0.38364E-04   -0.59157E-05  4540   0.134E-02    0.200E-03
DAV:   2    -0.822638843062E+03   -0.11934E-06   -0.14000E-06  3540   0.196E-03
  84 F= -.83014699E+03 E0= -.83014699E+03  d E =-.369729E-04  mag=     0.0000
       N       E                     dE             d eps       ncg     rms          rms(c)
DAV:   1    -0.822638889428E+03   -0.46485E-04   -0.77490E-05  4500   0.145E-02    0.229E-03
DAV:   2    -0.822638889572E+03   -0.14403E-06   -0.17888E-06  3620   0.208E-03
  85 F= -.83014703E+03 E0= -.83014703E+03  d E =-.447705E-04  mag=     0.0000
       N       E                     dE             d eps       ncg     rms          rms(c)
DAV:   1    -0.822638943117E+03   -0.53690E-04   -0.94100E-05  4460   0.154E-02    0.255E-03
DAV:   2    -0.822638943284E+03   -0.16709E-06   -0.21106E-06  3680   0.217E-03
  86 F= -.83014709E+03 E0= -.83014709E+03  d E =-.517440E-04  mag=     0.0000
       N       E                     dE             d eps       ncg     rms          rms(c)
DAV:   1    -0.822639009156E+03   -0.66039E-04   -0.14467E-04  4460   0.196E-02    0.314E-03
DAV:   2    -0.822639009408E+03   -0.25205E-06   -0.32882E-06  3820   0.276E-03
  87 F= -.83014715E+03 E0= -.83014715E+03  d E =-.637607E-04  mag=     0.0000
       N       E                     dE             d eps       ncg     rms          rms(c)
DAV:   1    -0.822639088510E+03   -0.79354E-04   -0.21173E-04  4280   0.240E-02    0.385E-03
DAV:   2    -0.822639088874E+03   -0.36479E-06   -0.48749E-06  3910   0.343E-03
  88 F= -.83014723E+03 E0= -.83014723E+03  d E =-.767914E-04  mag=     0.0000
       N       E                     dE             d eps       ncg     rms          rms(c)
DAV:   1    -0.822639182380E+03   -0.93870E-04   -0.27668E-04  4290   0.270E-02    0.442E-03
DAV:   2    -0.822639182846E+03   -0.46597E-06   -0.62929E-06  3960   0.379E-03
  89 F= -.83014732E+03 E0= -.83014732E+03  d E =-.906315E-04  mag=     0.0000
       N       E                     dE             d eps       ncg     rms          rms(c)
DAV:   1    -0.822639288776E+03   -0.10640E-03   -0.35507E-04  4280   0.309E-02    0.499E-03
DAV:   2    -0.822639289372E+03   -0.59590E-06   -0.80819E-06  4260   0.431E-03
  90 F= -.83014742E+03 E0= -.83014742E+03  d E =-.102552E-03  mag=     0.0000
       N       E                     dE             d eps       ncg     rms          rms(c)
DAV:   1    -0.822639403483E+03   -0.11471E-03   -0.42221E-04  4280   0.342E-02    0.547E-03
DAV:   2    -0.822639404194E+03   -0.71081E-06   -0.95801E-06  4260   0.474E-03
  91 F= -.83014753E+03 E0= -.83014753E+03  d E =-.110447E-03  mag=     0.0000
       N       E                     dE             d eps       ncg     rms          rms(c)
DAV:   1    -0.822639520342E+03   -0.11686E-03   -0.47206E-04  4280   0.366E-02    0.583E-03
DAV:   2    -0.822639521157E+03   -0.81486E-06   -0.10828E-05  4410   0.508E-03    0.358E-03
DAV:   3    -0.822639521218E+03   -0.61191E-07   -0.31724E-07  3120   0.110E-03
  92 F= -.83014764E+03 E0= -.83014764E+03  d E =-.112645E-03  mag=     0.0000
       N       E                     dE             d eps       ncg     rms          rms(c)
DAV:   1    -0.822639520661E+03    0.49599E-06   -0.11241E-06  2990   0.218E-03    0.588E-04
DAV:   2    -0.822639520673E+03   -0.12245E-07   -0.78547E-08  2780   0.628E-04
  93 F= -.83014764E+03 E0= -.83014764E+03  d E =0.516968E-06  mag=    -0.0000
       N       E                     dE             d eps       ncg     rms          rms(c)
DAV:   1    -0.822639519315E+03    0.13458E-05   -0.33726E-06  4020   0.369E-03    0.522E-04
DAV:   2    -0.822639519333E+03   -0.17717E-07   -0.84071E-08  2840   0.612E-04
  94 F= -.83014764E+03 E0= -.83014764E+03  d E =0.134786E-05  mag=     0.0000
       N       E                     dE             d eps       ncg     rms          rms(c)
DAV:   1    -0.822639517248E+03    0.20665E-05   -0.51933E-06  4180   0.436E-03    0.622E-04
DAV:   2    -0.822639517264E+03   -0.15396E-07   -0.11380E-07  2820   0.672E-04
  95 F= -.83014764E+03 E0= -.83014764E+03  d E =0.201416E-05  mag=     0.0000
       N       E                     dE             d eps       ncg     rms          rms(c)
DAV:   1    -0.822639514961E+03    0.22870E-05   -0.64822E-06  4130   0.459E-03    0.653E-04
DAV:   2    -0.822639514977E+03   -0.15541E-07   -0.14675E-07  2960   0.717E-04
  96 F= -.83014764E+03 E0= -.83014764E+03  d E =0.220429E-05  mag=    -0.0000
       N       E                     dE             d eps       ncg     rms          rms(c)
DAV:   1    -0.822639513018E+03    0.19437E-05   -0.78871E-06  4100   0.480E-03    0.696E-04
DAV:   2    -0.822639513034E+03   -0.16124E-07   -0.17404E-07  3000   0.742E-04
  97 F= -.83014763E+03 E0= -.83014763E+03  d E =0.186214E-05  mag=     0.0000
       N       E                     dE             d eps       ncg     rms          rms(c)
DAV:   1    -0.822639511946E+03    0.10713E-05   -0.85856E-06  4040   0.467E-03    0.720E-04
DAV:   2    -0.822639511963E+03   -0.16291E-07   -0.18117E-07  2970   0.716E-04
  98 F= -.83014763E+03 E0= -.83014763E+03  d E =0.989804E-06  mag=     0.0000
       N       E                     dE             d eps       ncg     rms          rms(c)
DAV:   1    -0.822639512540E+03   -0.59316E-06   -0.12604E-05  4260   0.595E-03    0.841E-04
DAV:   2    -0.822639512561E+03   -0.21253E-07   -0.25688E-07  2980   0.855E-04
  99 F= -.83014763E+03 E0= -.83014763E+03  d E =-.603919E-06  mag=     0.0000
       N       E                     dE             d eps       ncg     rms          rms(c)
DAV:   1    -0.822639516062E+03   -0.35224E-05   -0.19643E-05  4260   0.782E-03    0.105E-03
DAV:   2    -0.822639516096E+03   -0.33746E-07   -0.41936E-07  2940   0.114E-03
 100 F= -.83014764E+03 E0= -.83014764E+03  d E =-.339652E-05  mag=     0.0000
       N       E                     dE             d eps       ncg     rms          rms(c)
DAV:   1    -0.822639524790E+03   -0.87279E-05   -0.24327E-05  4180   0.833E-03    0.118E-03
DAV:   2    -0.822639524828E+03   -0.38133E-07   -0.52635E-07  2960   0.119E-03
 101 F= -.83014765E+03 E0= -.83014765E+03  d E =-.823397E-05  mag=     0.0000
       N       E                     dE             d eps       ncg     rms          rms(c)
DAV:   1    -0.822639541613E+03   -0.16823E-04   -0.36454E-05  4160   0.103E-02    0.142E-03
DAV:   2    -0.822639541669E+03   -0.56418E-07   -0.80336E-07  2980   0.146E-03
 102 F= -.83014766E+03 E0= -.83014766E+03  d E =-.161136E-04  mag=     0.0000
       N       E                     dE             d eps       ncg     rms          rms(c)
DAV:   1    -0.822639570177E+03   -0.28564E-04   -0.64949E-05  4260   0.142E-02    0.193E-03
DAV:   2    -0.822639570284E+03   -0.10651E-06   -0.14843E-06  3380   0.203E-03
 103 F= -.83014769E+03 E0= -.83014769E+03  d E =-.276838E-04  mag=     0.0000
       N       E                     dE             d eps       ncg     rms          rms(c)
DAV:   1    -0.822639615502E+03   -0.45325E-04   -0.11113E-04  4290   0.182E-02    0.256E-03
DAV:   2    -0.822639615693E+03   -0.19096E-06   -0.25618E-06  3700   0.255E-03
 104 F= -.83014773E+03 E0= -.83014773E+03  d E =-.443126E-04  mag=     0.0000
       N       E                     dE             d eps       ncg     rms          rms(c)
DAV:   1    -0.822639684160E+03   -0.68658E-04   -0.21437E-04  4280   0.253E-02    0.356E-03
DAV:   2    -0.822639684555E+03   -0.39537E-06   -0.50714E-06  3940   0.359E-03
 105 F= -.83014780E+03 E0= -.83014780E+03  d E =-.671607E-04  mag=     0.0000
       N       E                     dE             d eps       ncg     rms          rms(c)
DAV:   1    -0.822639783562E+03   -0.99402E-04   -0.41303E-04  4280   0.348E-02    0.498E-03
DAV:   2    -0.822639784332E+03   -0.76971E-06   -0.98755E-06  4560   0.497E-03
 106 F= -.83014790E+03 E0= -.83014790E+03  d E =-.971713E-04  mag=     0.0000
       N       E                     dE             d eps       ncg     rms          rms(c)
DAV:   1    -0.822639922495E+03   -0.13893E-03   -0.74172E-04  4280   0.460E-02    0.663E-03
DAV:   2    -0.822639923863E+03   -0.13672E-05   -0.17542E-05  4620   0.643E-03    0.402E-03
DAV:   3    -0.822639923887E+03   -0.24884E-07   -0.37513E-07  3080   0.118E-03
 107 F= -.83014803E+03 E0= -.83014803E+03  d E =-.135306E-03  mag=     0.0000
       N       E                     dE             d eps       ncg     rms          rms(c)
DAV:   1    -0.822640106011E+03   -0.18215E-03   -0.13148E-03  4280   0.614E-02    0.778E-03
DAV:   2    -0.822640108673E+03   -0.26626E-05   -0.32352E-05  4480   0.874E-03    0.422E-03
DAV:   3    -0.822640108615E+03    0.58812E-07   -0.56853E-07  3320   0.142E-03
 108 F= -.83014821E+03 E0= -.83014821E+03  d E =-.179080E-03  mag=     0.0000
       N       E                     dE             d eps       ncg     rms          rms(c)
DAV:   1    -0.822640334520E+03   -0.22585E-03   -0.20517E-03  4280   0.771E-02    0.962E-03
DAV:   2    -0.822640338694E+03   -0.41733E-05   -0.50455E-05  4420   0.109E-02    0.526E-03
DAV:   3    -0.822640338597E+03    0.97134E-07   -0.89300E-07  3320   0.178E-03
 109 F= -.83014844E+03 E0= -.83014844E+03  d E =-.225126E-03  mag=     0.0000
       N       E                     dE             d eps       ncg     rms          rms(c)
DAV:   1    -0.822640605258E+03   -0.26656E-03   -0.30528E-03  4280   0.955E-02    0.117E-02
DAV:   2    -0.822640611688E+03   -0.64301E-05   -0.76305E-05  4540   0.136E-02    0.638E-03
DAV:   3    -0.822640611566E+03    0.12158E-06   -0.12835E-06  3620   0.216E-03
 110 F= -.83014871E+03 E0= -.83014871E+03  d E =-.267911E-03  mag=     0.0000
       N       E                     dE             d eps       ncg     rms          rms(c)
DAV:   1    -0.822640908819E+03   -0.29713E-03   -0.38371E-03  4280   0.108E-01    0.131E-02
DAV:   2    -0.822640916881E+03   -0.80618E-05   -0.95858E-05  4480   0.154E-02    0.719E-03
DAV:   3    -0.822640916708E+03    0.17315E-06   -0.16751E-06  3720   0.249E-03
 111 F= -.83014900E+03 E0= -.83014900E+03  d E =-.297176E-03  mag=     0.0000
       N       E                     dE             d eps       ncg     rms          rms(c)
DAV:   1    -0.822641227884E+03   -0.31100E-03   -0.44814E-03  4280   0.118E-01    0.145E-02
DAV:   2    -0.822641237032E+03   -0.91480E-05   -0.11158E-04  4480   0.168E-02    0.805E-03
DAV:   3    -0.822641236772E+03    0.25984E-06   -0.22148E-06  3860   0.295E-03
 112 F= -.83014931E+03 E0= -.83014931E+03  d E =-.311484E-03  mag=     0.0000
       N       E                     dE             d eps       ncg     rms          rms(c)
DAV:   1    -0.822641239517E+03   -0.24855E-05   -0.37667E-05  4520   0.130E-02    0.183E-03
DAV:   2    -0.822641239590E+03   -0.72687E-07   -0.12266E-06  3120   0.234E-03
 113 F= -.83014932E+03 E0= -.83014932E+03  d E =-.349899E-05  mag=    -0.0000
       N       E                     dE             d eps       ncg     rms          rms(c)
DAV:   1    -0.822641241908E+03   -0.23909E-05   -0.97501E-05  4440   0.207E-02    0.249E-03
DAV:   2    -0.822641242057E+03   -0.14898E-06   -0.23421E-06  3750   0.311E-03
 114 F= -.83014932E+03 E0= -.83014932E+03  d E =-.358083E-05  mag=     0.0000
       N       E                     dE             d eps       ncg     rms          rms(c)
DAV:   1    -0.822641243015E+03   -0.11066E-05   -0.92361E-07  2880   0.212E-03    0.810E-04
DAV:   2    -0.822641243039E+03   -0.24142E-07   -0.97457E-08  2880   0.709E-04
 115 F= -.83014932E+03 E0= -.83014932E+03  d E =-.977551E-06  mag=     0.0000
       N       E                     dE             d eps       ncg     rms          rms(c)
DAV:   1    -0.822641244950E+03   -0.19357E-05   -0.26205E-06  3960   0.337E-03    0.464E-04
DAV:   2    -0.822641244966E+03   -0.15170E-07   -0.72341E-08  2880   0.591E-04
 116 F= -.83014932E+03 E0= -.83014932E+03  d E =-.195218E-05  mag=     0.0000
       N       E                     dE             d eps       ncg     rms          rms(c)
DAV:   1    -0.822641247701E+03   -0.27508E-05   -0.41823E-06  4160   0.429E-03    0.599E-04
DAV:   2    -0.822641247712E+03   -0.10747E-07   -0.10656E-07  2880   0.701E-04
 117 F= -.83014933E+03 E0= -.83014933E+03  d E =-.271185E-05  mag=    -0.0000
       N       E                     dE             d eps       ncg     rms          rms(c)
DAV:   1    -0.822641251431E+03   -0.37300E-05   -0.53028E-06  4240   0.477E-03    0.668E-04
DAV:   2    -0.822641251442E+03   -0.10463E-07   -0.13238E-07  2870   0.766E-04
 118 F= -.83014933E+03 E0= -.83014933E+03  d E =-.366363E-05  mag=    -0.0000
       N       E                     dE             d eps       ncg     rms          rms(c)
DAV:   1    -0.822641256134E+03   -0.47030E-05   -0.57472E-06  4170   0.484E-03    0.690E-04
DAV:   2    -0.822641256143E+03   -0.91532E-08   -0.14392E-07  2880   0.780E-04
 119 F= -.83014933E+03 E0= -.83014933E+03  d E =-.461141E-05  mag=    -0.0000
       N       E                     dE             d eps       ncg     rms          rms(c)
DAV:   1    -0.822641261797E+03   -0.56629E-05   -0.66235E-06  4220   0.509E-03    0.718E-04
DAV:   2    -0.822641261806E+03   -0.84110E-08   -0.15656E-07  2850   0.798E-04
 120 F= -.83014934E+03 E0= -.83014934E+03  d E =-.552731E-05  mag=     0.0000
       N       E                     dE             d eps       ncg     rms          rms(c)
DAV:   1    -0.822641268819E+03   -0.70222E-05   -0.10014E-05  4280   0.624E-03    0.821E-04
DAV:   2    -0.822641268832E+03   -0.12406E-07   -0.22806E-07  2910   0.943E-04
 121 F= -.83014935E+03 E0= -.83014935E+03  d E =-.682823E-05  mag=     0.0000
       N       E                     dE             d eps       ncg     rms          rms(c)
DAV:   1    -0.822641277368E+03   -0.85482E-05   -0.14807E-05  4300   0.764E-03    0.952E-04
DAV:   2    -0.822641277386E+03   -0.18525E-07   -0.31540E-07  2900   0.110E-03
 122 F= -.83014936E+03 E0= -.83014936E+03  d E =-.831403E-05  mag=    -0.0000
       N       E                     dE             d eps       ncg     rms          rms(c)
DAV:   1    -0.822641287594E+03   -0.10227E-04   -0.20081E-05  4340   0.878E-03    0.109E-03
DAV:   2    -0.822641287619E+03   -0.24746E-07   -0.41305E-07  2800   0.123E-03
 123 F= -.83014937E+03 E0= -.83014937E+03  d E =-.995428E-05  mag=    -0.0000
       N       E                     dE             d eps       ncg     rms          rms(c)
DAV:   1    -0.822641299942E+03   -0.12348E-04   -0.27325E-05  4260   0.101E-02    0.125E-03
DAV:   2    -0.822641299978E+03   -0.35790E-07   -0.55699E-07  2940   0.138E-03
 124 F= -.83014938E+03 E0= -.83014938E+03  d E =-.120221E-04  mag=    -0.0000
       N       E                     dE             d eps       ncg     rms          rms(c)
DAV:   1    -0.822641314172E+03   -0.14229E-04   -0.43082E-05  4260   0.129E-02    0.155E-03
DAV:   2    -0.822641314228E+03   -0.56651E-07   -0.91256E-07  3040   0.181E-03
 125 F= -.83014939E+03 E0= -.83014939E+03  d E =-.140253E-04  mag=    -0.0000
       N       E                     dE             d eps       ncg     rms          rms(c)
DAV:   1    -0.822641330662E+03   -0.16491E-04   -0.58934E-05  4240   0.148E-02    0.181E-03
DAV:   2    -0.822641330746E+03   -0.83441E-07   -0.12742E-06  3360   0.207E-03
 126 F= -.83014941E+03 E0= -.83014941E+03  d E =-.163315E-04  mag=    -0.0000
       N       E                     dE             d eps       ncg     rms          rms(c)
DAV:   1    -0.822641349122E+03   -0.18460E-04   -0.89127E-05  4250   0.183E-02    0.219E-03
DAV:   2    -0.822641349248E+03   -0.12662E-06   -0.19061E-06  3580   0.252E-03
 127 F= -.83014943E+03 E0= -.83014943E+03  d E =-.185540E-04  mag=    -0.0000
       N       E                     dE             d eps       ncg     rms          rms(c)
DAV:   1    -0.822641370188E+03   -0.21066E-04   -0.10386E-04  4240   0.196E-02    0.246E-03
DAV:   2    -0.822641370323E+03   -0.13495E-06   -0.20810E-06  3480   0.264E-03
 128 F= -.83014945E+03 E0= -.83014945E+03  d E =-.206750E-04  mag=    -0.0000
       N       E                     dE             d eps       ncg     rms          rms(c)
DAV:   1    -0.822641393722E+03   -0.23534E-04   -0.13934E-04  4280   0.226E-02    0.279E-03
DAV:   2    -0.822641393897E+03   -0.17543E-06   -0.27160E-06  3760   0.303E-03
 129 F= -.83014947E+03 E0= -.83014947E+03  d E =-.229652E-04  mag=    -0.0000
       N       E                     dE             d eps       ncg     rms          rms(c)
DAV:   1    -0.822641419138E+03   -0.25416E-04   -0.20119E-04  4280   0.269E-02    0.333E-03
DAV:   2    -0.822641419397E+03   -0.25838E-06   -0.39809E-06  4180   0.363E-03
 130 F= -.83014949E+03 E0= -.83014949E+03  d E =-.248467E-04  mag=    -0.0000
       N       E                     dE             d eps       ncg     rms          rms(c)
DAV:   1    -0.822641445652E+03   -0.26514E-04   -0.28262E-04  4280   0.314E-02    0.389E-03
DAV:   2    -0.822641445988E+03   -0.33581E-06   -0.53845E-06  4420   0.412E-03
 131 F= -.83014952E+03 E0= -.83014952E+03  d E =-.265188E-04  mag=     0.0000
       N       E                     dE             d eps       ncg     rms          rms(c)
DAV:   1    -0.822641473811E+03   -0.28158E-04   -0.41200E-04  4280   0.376E-02    0.466E-03
DAV:   2    -0.822641474322E+03   -0.51173E-06   -0.80765E-06  4560   0.504E-03
 132 F= -.83014955E+03 E0= -.83014955E+03  d E =-.287232E-04  mag=    -0.0000
       N       E                     dE             d eps       ncg     rms          rms(c)
DAV:   1    -0.822641504194E+03   -0.30384E-04   -0.64481E-04  4280   0.480E-02    0.590E-03
DAV:   2    -0.822641505112E+03   -0.91723E-06   -0.13277E-05  4660   0.661E-03    0.379E-03
DAV:   3    -0.822641505035E+03    0.76550E-07   -0.44752E-07  3000   0.156E-03
 133 F= -.83014958E+03 E0= -.83014958E+03  d E =-.301544E-04  mag=    -0.0000
       N       E                     dE             d eps       ncg     rms          rms(c)
DAV:   1    -0.822641506888E+03   -0.17766E-05   -0.13545E-05  4400   0.772E-03    0.101E-03
DAV:   2    -0.822641506908E+03   -0.19914E-07   -0.38876E-07  2800   0.134E-03
 134 F= -.83014958E+03 E0= -.83014958E+03  d E =-.172047E-05  mag=    -0.0000
       N       E                     dE             d eps       ncg     rms          rms(c)
DAV:   1    -0.822641511301E+03   -0.44132E-05   -0.33776E-05  4580   0.121E-02    0.154E-03
DAV:   2    -0.822641511338E+03   -0.36991E-07   -0.79476E-07  2920   0.189E-03
 135 F= -.83014959E+03 E0= -.83014959E+03  d E =-.402499E-05  mag=    -0.0000
       N       E                     dE             d eps       ncg     rms          rms(c)
DAV:   1    -0.822641512819E+03   -0.15177E-05   -0.40278E-07  2840   0.140E-03    0.506E-04
DAV:   2    -0.822641512827E+03   -0.83091E-08   -0.39331E-08  2800   0.469E-04
 136 F= -.83014959E+03 E0= -.83014959E+03  d E =-.142378E-05  mag=    -0.0000
       N       E                     dE             d eps       ncg     rms          rms(c)
DAV:   1    -0.822641516601E+03   -0.37817E-05   -0.11808E-06  3110   0.218E-03    0.375E-04
DAV:   2    -0.822641516606E+03   -0.50059E-08   -0.50189E-08  2740   0.515E-04
 137 F= -.83014959E+03 E0= -.83014959E+03  d E =-.362959E-05  mag=    -0.0000
       N       E                     dE             d eps       ncg     rms          rms(c)
DAV:   1    -0.822641523555E+03   -0.69542E-05   -0.30662E-06  3830   0.336E-03    0.505E-04
DAV:   2    -0.822641523559E+03   -0.38417E-08   -0.80348E-08  2650   0.575E-04
 138 F= -.83014960E+03 E0= -.83014960E+03  d E =-.669795E-05  mag=    -0.0000
       N       E                     dE             d eps       ncg     rms          rms(c)
DAV:   1    -0.822641534553E+03   -0.10998E-04   -0.61224E-06  4060   0.450E-03    0.650E-04
DAV:   2    -0.822641534560E+03   -0.67957E-08   -0.14782E-07  2720   0.714E-04
 139 F= -.83014961E+03 E0= -.83014961E+03  d E =-.106671E-04  mag=    -0.0000
       N       E                     dE             d eps       ncg     rms          rms(c)
DAV:   1    -0.822641550406E+03   -0.15853E-04   -0.11243E-05  4060   0.581E-03    0.841E-04
DAV:   2    -0.822641550424E+03   -0.17324E-07   -0.27140E-07  2720   0.900E-04
 140 F= -.83014962E+03 E0= -.83014962E+03  d E =-.154804E-04  mag=    -0.0000
       N       E                     dE             d eps       ncg     rms          rms(c)
DAV:   1    -0.822641572022E+03   -0.21615E-04   -0.19171E-05  4040   0.730E-03    0.108E-03
DAV:   2    -0.822641572054E+03   -0.32669E-07   -0.45157E-07  2770   0.110E-03
 141 F= -.83014965E+03 E0= -.83014964E+03  d E =-.210916E-04  mag=    -0.0000
       N       E                     dE             d eps       ncg     rms          rms(c)
DAV:   1    -0.822641603554E+03   -0.31533E-04   -0.38927E-05  4100   0.102E-02    0.148E-03
DAV:   2    -0.822641603624E+03   -0.69340E-07   -0.91227E-07  3130   0.147E-03
 142 F= -.83014968E+03 E0= -.83014968E+03  d E =-.307954E-04  mag=    -0.0000
       N       E                     dE             d eps       ncg     rms          rms(c)
DAV:   1    -0.822641648407E+03   -0.44853E-04   -0.77782E-05  4200   0.143E-02    0.208E-03
DAV:   2    -0.822641648546E+03   -0.13897E-06   -0.18039E-06  3510   0.202E-03
 143 F= -.83014972E+03 E0= -.83014972E+03  d E =-.437547E-04  mag=    -0.0000
       N       E                     dE             d eps       ncg     rms          rms(c)
DAV:   1    -0.822641711306E+03   -0.62899E-04   -0.14468E-04  4280   0.190E-02    0.289E-03
DAV:   2    -0.822641711548E+03   -0.24131E-06   -0.32537E-06  3780   0.265E-03
 144 F= -.83014978E+03 E0= -.83014978E+03  d E =-.612499E-04  mag=    -0.0000
       N       E                     dE             d eps       ncg     rms          rms(c)
DAV:   1    -0.822641795812E+03   -0.84505E-04   -0.25031E-04  4280   0.248E-02    0.384E-03
DAV:   2    -0.822641796228E+03   -0.41615E-06   -0.55480E-06  3900   0.344E-03
 145 F= -.83014986E+03 E0= -.83014986E+03  d E =-.824085E-04  mag=    -0.0000
       N       E                     dE             d eps       ncg     rms          rms(c)
DAV:   1    -0.822641905553E+03   -0.10974E-03   -0.40603E-04  4280   0.315E-02    0.491E-03
DAV:   2    -0.822641906228E+03   -0.67453E-06   -0.88920E-06  4220   0.435E-03
 146 F= -.83014997E+03 E0= -.83014997E+03  d E =-.107101E-03  mag=    -0.0000
       N       E                     dE             d eps       ncg     rms          rms(c)
DAV:   1    -0.822642044124E+03   -0.13857E-03   -0.61589E-04  4280   0.394E-02    0.605E-03
DAV:   2    -0.822642045174E+03   -0.10494E-05   -0.13423E-05  4480   0.542E-03    0.367E-03
DAV:   3    -0.822642045177E+03   -0.33542E-08   -0.31502E-07  3090   0.102E-03
 147 F= -.83015011E+03 E0= -.83015011E+03  d E =-.135267E-03  mag=    -0.0000
       N       E                     dE             d eps       ncg     rms          rms(c)
DAV:   1    -0.822642213593E+03   -0.16842E-03   -0.87734E-04  4280   0.476E-02    0.620E-03
DAV:   2    -0.822642215272E+03   -0.16786E-05   -0.19881E-05  4500   0.661E-03    0.341E-03
DAV:   3    -0.822642215217E+03    0.54606E-07   -0.35393E-07  3180   0.106E-03
 148 F= -.83015027E+03 E0= -.83015027E+03  d E =-.165602E-03  mag=     0.0000
       N       E                     dE             d eps       ncg     rms          rms(c)
DAV:   1    -0.822642411590E+03   -0.19632E-03   -0.12014E-03  4280   0.569E-02    0.727E-03
DAV:   2    -0.822642413980E+03   -0.23907E-05   -0.27874E-05  4420   0.800E-03    0.407E-03
DAV:   3    -0.822642413899E+03    0.81258E-07   -0.50587E-07  3280   0.131E-03
 149 F= -.83015046E+03 E0= -.83015046E+03  d E =-.193724E-03  mag=     0.0000
       N       E                     dE             d eps       ncg     rms          rms(c)
DAV:   1    -0.822642633681E+03   -0.21970E-03   -0.15120E-03  4280   0.647E-02    0.819E-03
DAV:   2    -0.822642636710E+03   -0.30286E-05   -0.35444E-05  4340   0.909E-03    0.460E-03
DAV:   3    -0.822642636625E+03    0.85369E-07   -0.65990E-07  3380   0.148E-03
 150 F= -.83015068E+03 E0= -.83015068E+03  d E =-.217737E-03  mag=     0.0000
       N       E                     dE             d eps       ncg     rms          rms(c)
DAV:   1    -0.822642861111E+03   -0.22440E-03   -0.17110E-03  4280   0.714E-02    0.874E-03
DAV:   2    -0.822642864631E+03   -0.35204E-05   -0.41484E-05  4340   0.101E-02    0.491E-03
DAV:   3    -0.822642864542E+03    0.89400E-07   -0.76814E-07  3320   0.166E-03
 151 F= -.83015091E+03 E0= -.83015091E+03  d E =-.223428E-03  mag=    -0.0000
       N       E                     dE             d eps       ncg     rms          rms(c)
DAV:   1    -0.822642862815E+03    0.18168E-05   -0.23371E-06  3420   0.296E-03    0.796E-04
DAV:   2    -0.822642862832E+03   -0.17732E-07   -0.17240E-07  2880   0.842E-04
 152 F= -.83015090E+03 E0= -.83015090E+03  d E =0.148305E-05  mag=    -0.0000
       N       E                     dE             d eps       ncg     rms          rms(c)
DAV:   1    -0.822642859258E+03    0.35563E-05   -0.52169E-06  4200   0.450E-03    0.598E-04
DAV:   2    -0.822642859276E+03   -0.17608E-07   -0.11652E-07  2840   0.700E-04
 153 F= -.83015090E+03 E0= -.83015090E+03  d E =0.317130E-05  mag=    -0.0000
       N       E                     dE             d eps       ncg     rms          rms(c)
DAV:   1    -0.822642854372E+03    0.48862E-05   -0.87131E-06  4320   0.576E-03    0.743E-04
DAV:   2    -0.822642854390E+03   -0.18066E-07   -0.18417E-07  2920   0.856E-04
 154 F= -.83015090E+03 E0= -.83015090E+03  d E =0.441488E-05  mag=    -0.0000
       N       E                     dE             d eps       ncg     rms          rms(c)
DAV:   1    -0.822642848807E+03    0.55652E-05   -0.10673E-05  4300   0.622E-03    0.810E-04
DAV:   2    -0.822642848830E+03   -0.22621E-07   -0.23063E-07  2960   0.921E-04
 155 F= -.83015089E+03 E0= -.83015089E+03  d E =0.502515E-05  mag=    -0.0000
       N       E                     dE             d eps       ncg     rms          rms(c)
DAV:   1    -0.822642843896E+03    0.49109E-05   -0.12211E-05  4280   0.653E-03    0.825E-04
DAV:   2    -0.822642843924E+03   -0.27518E-07   -0.26736E-07  3000   0.963E-04
 156 F= -.83015089E+03 E0= -.83015089E+03  d E =0.430010E-05  mag=    -0.0000
       N       E                     dE             d eps       ncg     rms          rms(c)
DAV:   1    -0.822642840900E+03    0.29962E-05   -0.14544E-05  4300   0.719E-03    0.855E-04
DAV:   2    -0.822642840927E+03   -0.27292E-07   -0.31762E-07  3020   0.104E-03
 157 F= -.83015089E+03 E0= -.83015089E+03  d E =0.221743E-05  mag=    -0.0000
       N       E                     dE             d eps       ncg     rms          rms(c)
DAV:   1    -0.822642841084E+03   -0.18438E-06   -0.22727E-05  4360   0.929E-03    0.101E-03
DAV:   2    -0.822642841125E+03   -0.40331E-07   -0.51539E-07  3100   0.134E-03
 158 F= -.83015089E+03 E0= -.83015089E+03  d E =-.100553E-05  mag=    -0.0000
       N       E                     dE             d eps       ncg     rms          rms(c)
DAV:   1    -0.822642847538E+03   -0.64541E-05   -0.36979E-05  4400   0.120E-02    0.127E-03
DAV:   2    -0.822642847601E+03   -0.62202E-07   -0.86583E-07  3340   0.171E-03
 159 F= -.83015089E+03 E0= -.83015089E+03  d E =-.725824E-05  mag=    -0.0000
       N       E                     dE             d eps       ncg     rms          rms(c)
DAV:   1    -0.822642864228E+03   -0.16690E-04   -0.61949E-05  4260   0.154E-02    0.161E-03
DAV:   2    -0.822642864342E+03   -0.11429E-06   -0.14970E-06  3580   0.218E-03
 160 F= -.83015091E+03 E0= -.83015091E+03  d E =-.174398E-04  mag=    -0.0000
       N       E                     dE             d eps       ncg     rms          rms(c)
DAV:   1    -0.822642896703E+03   -0.32475E-04   -0.11172E-04  4240   0.203E-02    0.211E-03
DAV:   2    -0.822642896938E+03   -0.23495E-06   -0.27833E-06  3830   0.285E-03
 161 F= -.83015094E+03 E0= -.83015094E+03  d E =-.331708E-04  mag=    -0.0000
       N       E                     dE             d eps       ncg     rms          rms(c)
DAV:   1    -0.822642952088E+03   -0.55385E-04   -0.22261E-04  4280   0.282E-02    0.302E-03
DAV:   2    -0.822642952562E+03   -0.47401E-06   -0.55880E-06  4320   0.395E-03
 162 F= -.83015100E+03 E0= -.83015100E+03  d E =-.557732E-04  mag=    -0.0000
       N       E                     dE             d eps       ncg     rms          rms(c)
DAV:   1    -0.822643038306E+03   -0.86218E-04   -0.44334E-04  4280   0.390E-02    0.436E-03
DAV:   2    -0.822643039257E+03   -0.95064E-06   -0.11084E-05  4580   0.545E-03    0.285E-03
DAV:   3    -0.822643039243E+03    0.13730E-07   -0.15106E-07  2700   0.872E-04
 163 F= -.83015109E+03 E0= -.83015109E+03  d E =-.863223E-04  mag=    -0.0000
       N       E                     dE             d eps       ncg     rms          rms(c)
DAV:   1    -0.822643164681E+03   -0.12542E-03   -0.80164E-04  4280   0.513E-02    0.544E-03
DAV:   2    -0.822643166443E+03   -0.17622E-05   -0.20045E-05  4640   0.720E-03    0.300E-03
DAV:   3    -0.822643166409E+03    0.34066E-07   -0.25347E-07  3020   0.103E-03
 164 F= -.83015121E+03 E0= -.83015121E+03  d E =-.126258E-03  mag=    -0.0000
       N       E                     dE             d eps       ncg     rms          rms(c)
DAV:   1    -0.822643332508E+03   -0.16606E-03   -0.13696E-03  4280   0.672E-02    0.715E-03
DAV:   2    -0.822643335538E+03   -0.30295E-05   -0.34382E-05  4580   0.949E-03    0.400E-03
DAV:   3    -0.822643335460E+03    0.77693E-07   -0.47139E-07  3260   0.141E-03
 165 F= -.83015138E+03 E0= -.83015138E+03  d E =-.166669E-03  mag=    -0.0000
       N       E                     dE             d eps       ncg     rms          rms(c)
DAV:   1    -0.822643536279E+03   -0.20074E-03   -0.19739E-03  4280   0.804E-02    0.879E-03
DAV:   2    -0.822643540650E+03   -0.43710E-05   -0.49709E-05  4470   0.115E-02    0.490E-03
DAV:   3    -0.822643540543E+03    0.10677E-06   -0.70206E-07  3450   0.173E-03
 166 F= -.83015158E+03 E0= -.83015158E+03  d E =-.201711E-03  mag=    -0.0000
       N       E                     dE             d eps       ncg     rms          rms(c)
DAV:   1    -0.822643756890E+03   -0.21624E-03   -0.26066E-03  4280   0.945E-02    0.100E-02
DAV:   2    -0.822643762621E+03   -0.57319E-05   -0.65722E-05  4380   0.136E-02    0.565E-03
DAV:   3    -0.822643762499E+03    0.12293E-06   -0.10165E-06  3640   0.211E-03
 167 F= -.83015180E+03 E0= -.83015180E+03  d E =-.218777E-03  mag=     0.0000
       N       E                     dE             d eps       ncg     rms          rms(c)
DAV:   1    -0.822643761055E+03    0.15664E-05   -0.63366E-06  4280   0.523E-03    0.979E-04
DAV:   2    -0.822643761068E+03   -0.13191E-07   -0.25030E-07  2900   0.108E-03
 168 F= -.83015180E+03 E0= -.83015180E+03  d E =0.114786E-05  mag=     0.0000
       N       E                     dE             d eps       ncg     rms          rms(c)
DAV:   1    -0.822643757966E+03    0.30891E-05   -0.18309E-05  4440   0.891E-03    0.108E-03
DAV:   2    -0.822643757993E+03   -0.27416E-07   -0.38740E-07  2800   0.132E-03
 169 F= -.83015180E+03 E0= -.83015180E+03  d E =0.263928E-05  mag=     0.0000
       N       E                     dE             d eps       ncg     rms          rms(c)
DAV:   1    -0.822643752791E+03    0.51751E-05   -0.25707E-05  4450   0.104E-02    0.128E-03
DAV:   2    -0.822643752833E+03   -0.42121E-07   -0.57247E-07  2960   0.154E-03
 170 F= -.83015179E+03 E0= -.83015179E+03  d E =0.445305E-05  mag=     0.0000
       N       E                     dE             d eps       ncg     rms          rms(c)
DAV:   1    -0.822643752602E+03    0.18936E-06   -0.27775E-07  2820   0.117E-03    0.477E-04
DAV:   2    -0.822643752608E+03   -0.60099E-08   -0.24658E-08  2860   0.378E-04
 171 F= -.83015179E+03 E0= -.83015179E+03  d E =0.163699E-06  mag=     0.0000
       N       E                     dE             d eps       ncg     rms          rms(c)
DAV:   1    -0.822643752172E+03    0.42929E-06   -0.80843E-07  2930   0.190E-03    0.355E-04
DAV:   2    -0.822643752179E+03   -0.63519E-08   -0.39874E-08  2860   0.482E-04
 172 F= -.83015179E+03 E0= -.83015179E+03  d E =0.308043E-06  mag=     0.0000
       N       E                     dE             d eps       ncg     rms          rms(c)
DAV:   1    -0.822643751528E+03    0.64448E-06   -0.16512E-06  3480   0.267E-03    0.434E-04
DAV:   2    -0.822643751535E+03   -0.71232E-08   -0.52416E-08  2760   0.515E-04
 173 F= -.83015179E+03 E0= -.83015179E+03  d E =0.468163E-06  mag=     0.0000
       N       E                     dE             d eps       ncg     rms          rms(c)
DAV:   1    -0.822643750707E+03    0.82122E-06   -0.21715E-06  3580   0.305E-03    0.461E-04
DAV:   2    -0.822643750713E+03   -0.60536E-08   -0.63536E-08  2740   0.551E-04
 174 F= -.83015179E+03 E0= -.83015179E+03  d E =0.595029E-06  mag=     0.0000
       N       E                     dE             d eps       ncg     rms          rms(c)
DAV:   1    -0.822643749915E+03    0.79197E-06   -0.28537E-06  3940   0.344E-03    0.481E-04
DAV:   2    -0.822643749920E+03   -0.53915E-08   -0.69941E-08  2620   0.562E-04
 175 F= -.83015179E+03 E0= -.83015179E+03  d E =0.515992E-06  mag=     0.0000
       N       E                     dE             d eps       ncg     rms          rms(c)
DAV:   1    -0.822643749250E+03    0.66431E-06   -0.36702E-06  4040   0.385E-03    0.507E-04
DAV:   2    -0.822643749258E+03   -0.76107E-08   -0.88921E-08  2580   0.615E-04
 176 F= -.83015179E+03 E0= -.83015179E+03  d E =0.387527E-06  mag=     0.0000
       N       E                     dE             d eps       ncg     rms          rms(c)
DAV:   1    -0.822643748909E+03    0.34078E-06   -0.54981E-06  4000   0.460E-03    0.557E-04
DAV:   2    -0.822643748920E+03   -0.10928E-07   -0.13141E-07  2580   0.720E-04
 177 F= -.83015179E+03 E0= -.83015179E+03  d E =0.347693E-07  mag=     0.0000
       N       E                     dE             d eps       ncg     rms          rms(c)
DAV:   1    -0.822643749226E+03   -0.31621E-06   -0.83349E-06  4090   0.564E-03    0.643E-04
DAV:   2    -0.822643749242E+03   -0.16138E-07   -0.19494E-07  2490   0.858E-04
 178 F= -.83015179E+03 E0= -.83015179E+03  d E =-.663809E-06  mag=     0.0000
       N       E                     dE             d eps       ncg     rms          rms(c)
DAV:   1    -0.822643750773E+03   -0.15474E-05   -0.11962E-05  4160   0.683E-03    0.780E-04
DAV:   2    -0.822643750796E+03   -0.23021E-07   -0.28209E-07  2555   0.104E-03
 179 F= -.83015179E+03 E0= -.83015179E+03  d E =-.190761E-05  mag=     0.0000
       N       E                     dE             d eps       ncg     rms          rms(c)
DAV:   1    -0.822643754387E+03   -0.36136E-05   -0.17393E-05  4100   0.823E-03    0.931E-04
DAV:   2    -0.822643754419E+03   -0.32582E-07   -0.39785E-07  2600   0.121E-03
 180 F= -.83015180E+03 E0= -.83015180E+03  d E =-.395789E-05  mag=     0.0000
       N       E                     dE             d eps       ncg     rms          rms(c)
DAV:   1    -0.822643761288E+03   -0.69014E-05   -0.26028E-05  4140   0.995E-03    0.110E-03
DAV:   2    -0.822643761336E+03   -0.47497E-07   -0.59842E-07  2930   0.145E-03
 181 F= -.83015180E+03 E0= -.83015180E+03  d E =-.714545E-05  mag=     0.0000
       N       E                     dE             d eps       ncg     rms          rms(c)
DAV:   1    -0.822643772875E+03   -0.11587E-04   -0.39749E-05  4220   0.122E-02    0.138E-03
DAV:   2    -0.822643772955E+03   -0.79519E-07   -0.93721E-07  2980   0.177E-03
 182 F= -.83015181E+03 E0= -.83015181E+03  d E =-.118110E-04  mag=     0.0000
       N       E                     dE             d eps       ncg     rms          rms(c)
DAV:   1    -0.822643791191E+03   -0.18315E-04   -0.58657E-05  4240   0.148E-02    0.171E-03
DAV:   2    -0.822643791303E+03   -0.11200E-06   -0.13622E-06  3220   0.210E-03
 183 F= -.83015183E+03 E0= -.83015183E+03  d E =-.184995E-04  mag=     0.0000
       N       E                     dE             d eps       ncg     rms          rms(c)
DAV:   1    -0.822643818906E+03   -0.27715E-04   -0.88554E-05  4240   0.179E-02    0.213E-03
DAV:   2    -0.822643819073E+03   -0.16699E-06   -0.20717E-06  3530   0.253E-03
 184 F= -.83015186E+03 E0= -.83015186E+03  d E =-.277787E-04  mag=     0.0000
       N       E                     dE             d eps       ncg     rms          rms(c)
DAV:   1    -0.822643859185E+03   -0.40280E-04   -0.13971E-04  4260   0.222E-02    0.270E-03
DAV:   2    -0.822643859447E+03   -0.26220E-06   -0.32772E-06  3810   0.313E-03
 185 F= -.83015190E+03 E0= -.83015190E+03  d E =-.403095E-04  mag=     0.0000
       N       E                     dE             d eps       ncg     rms          rms(c)
DAV:   1    -0.822643915620E+03   -0.56435E-04   -0.22366E-04  4280   0.279E-02    0.346E-03
DAV:   2    -0.822643916050E+03   -0.43001E-06   -0.53136E-06  4320   0.394E-03
 186 F= -.83015196E+03 E0= -.83015196E+03  d E =-.560307E-04  mag=     0.0000
       N       E                     dE             d eps       ncg     rms          rms(c)
DAV:   1    -0.822643991873E+03   -0.76253E-04   -0.34091E-04  4280   0.336E-02    0.438E-03
DAV:   2    -0.822643992508E+03   -0.63428E-06   -0.79427E-06  4500   0.472E-03
 187 F= -.83015203E+03 E0= -.83015203E+03  d E =-.752704E-04  mag=     0.0000
       N       E                     dE             d eps       ncg     rms          rms(c)
DAV:   1    -0.822644091195E+03   -0.99322E-04   -0.51837E-04  4280   0.404E-02    0.557E-03
DAV:   2    -0.822644092112E+03   -0.91687E-06   -0.11864E-05  4580   0.567E-03    0.348E-03
DAV:   3    -0.822644092115E+03   -0.24302E-08   -0.26590E-07  3040   0.107E-03
 188 F= -.83015213E+03 E0= -.83015213E+03  d E =-.979173E-04  mag=     0.0000
       N       E                     dE             d eps       ncg     rms          rms(c)
DAV:   1    -0.822644209716E+03   -0.11760E-03   -0.69594E-04  4280   0.455E-02    0.575E-03
DAV:   2    -0.822644210996E+03   -0.12793E-05   -0.16091E-05  4640   0.638E-03    0.327E-03
DAV:   3    -0.822644210953E+03    0.42543E-07   -0.33053E-07  3160   0.112E-03
 189 F= -.83015225E+03 E0= -.83015225E+03  d E =-.117235E-03  mag=     0.0000
       N       E                     dE             d eps       ncg     rms          rms(c)
DAV:   1    -0.822644337737E+03   -0.12674E-03   -0.92155E-04  4280   0.531E-02    0.675E-03
DAV:   2    -0.822644339457E+03   -0.17201E-05   -0.21582E-05  4720   0.758E-03    0.391E-03
DAV:   3    -0.822644339383E+03    0.74644E-07   -0.47331E-07  3180   0.140E-03
 190 F= -.83015238E+03 E0= -.83015238E+03  d E =-.127510E-03  mag=     0.0000
       N       E                     dE             d eps       ncg     rms          rms(c)
DAV:   1    -0.822644461126E+03   -0.12167E-03   -0.11583E-03  4300   0.614E-02    0.726E-03
DAV:   2    -0.822644463250E+03   -0.21234E-05   -0.26509E-05  4680   0.860E-03    0.435E-03
DAV:   3    -0.822644463156E+03    0.93707E-07   -0.60292E-07  3300   0.156E-03
 191 F= -.83015250E+03 E0= -.83015250E+03  d E =-.122338E-03  mag=     0.0000
       N       E                     dE             d eps       ncg     rms          rms(c)
DAV:   1    -0.822644553917E+03   -0.90667E-04   -0.14681E-03  4280   0.719E-02    0.792E-03
DAV:   2    -0.822644556821E+03   -0.29044E-05   -0.34754E-05  4470   0.102E-02    0.477E-03
DAV:   3    -0.822644556718E+03    0.10339E-06   -0.67353E-07  3280   0.174E-03
 192 F= -.83015259E+03 E0= -.83015259E+03  d E =-.928702E-04  mag=     0.0000
       N       E                     dE             d eps       ncg     rms          rms(c)
DAV:   1    -0.822644548505E+03    0.83163E-05   -0.15683E-05  4360   0.804E-03    0.998E-04
DAV:   2    -0.822644548539E+03   -0.34437E-07   -0.47370E-07  3040   0.138E-03
 193 F= -.83015258E+03 E0= -.83015258E+03  d E =0.765831E-05  mag=     0.0000
       N       E                     dE             d eps       ncg     rms          rms(c)
DAV:   1    -0.822644531291E+03    0.17214E-04   -0.48138E-05  4420   0.139E-02    0.166E-03
DAV:   2    -0.822644531363E+03   -0.72687E-07   -0.10639E-06  3260   0.203E-03
 194 F= -.83015257E+03 E0= -.83015257E+03  d E =0.162136E-04  mag=     0.0000
       N       E                     dE             d eps       ncg     rms          rms(c)
DAV:   1    -0.822644505091E+03    0.26200E-04   -0.78864E-05  4400   0.169E-02    0.211E-03
DAV:   2    -0.822644505218E+03   -0.12750E-06   -0.16743E-06  3320   0.240E-03
 195 F= -.83015254E+03 E0= -.83015254E+03  d E =0.249251E-04  mag=     0.0000
       N       E                     dE             d eps       ncg     rms          rms(c)
DAV:   1    -0.822644472839E+03    0.32252E-04   -0.10488E-04  4360   0.183E-02    0.230E-03
DAV:   2    -0.822644473013E+03   -0.17344E-06   -0.20889E-06  3640   0.247E-03
 196 F= -.83015251E+03 E0= -.83015251E+03  d E =0.309105E-04  mag=     0.0000
       N       E                     dE             d eps       ncg     rms          rms(c)
DAV:   1    -0.822644436608E+03    0.36232E-04   -0.13544E-04  4400   0.206E-02    0.251E-03
DAV:   2    -0.822644436845E+03   -0.23757E-06   -0.26760E-06  3700   0.276E-03
 197 F= -.83015248E+03 E0= -.83015248E+03  d E =0.345282E-04  mag=     0.0000
       N       E                     dE             d eps       ncg     rms          rms(c)
DAV:   1    -0.822644397653E+03    0.38955E-04   -0.17094E-04  4370   0.235E-02    0.292E-03
DAV:   2    -0.822644397947E+03   -0.29415E-06   -0.34819E-06  3800   0.323E-03
 198 F= -.83015244E+03 E0= -.83015244E+03  d E =0.372471E-04  mag=     0.0000
       N       E                     dE             d eps       ncg     rms          rms(c)
DAV:   1    -0.822644352614E+03    0.45038E-04   -0.21093E-04  4280   0.261E-02    0.329E-03
DAV:   2    -0.822644352971E+03   -0.35699E-06   -0.44116E-06  3900   0.366E-03
 199 F= -.83015240E+03 E0= -.83015240E+03  d E =0.434738E-04  mag=     0.0000
       N       E                     dE             d eps       ncg     rms          rms(c)
DAV:   1    -0.822644352616E+03   -0.14770E-08   -0.87577E-07  2960   0.209E-03    0.119E-03
DAV:   2    -0.822644352624E+03   -0.78289E-08   -0.86836E-08  2760   0.680E-04
 200 F= -.83015240E+03 E0= -.83015240E+03  d E =0.287153E-06  mag=     0.0000
       N       E                     dE             d eps       ncg     rms          rms(c)
DAV:   1    -0.822644352191E+03    0.42447E-06   -0.27338E-06  3750   0.347E-03    0.471E-04
DAV:   2    -0.822644352199E+03   -0.76980E-08   -0.81726E-08  2780   0.632E-04
 201 F= -.83015239E+03 E0= -.83015239E+03  d E =0.422436E-06  mag=     0.0000
       N       E                     dE             d eps       ncg     rms          rms(c)
DAV:   1    -0.822644351810E+03    0.38180E-06   -0.46589E-06  4120   0.452E-03    0.616E-04
DAV:   2    -0.822644351820E+03   -0.10194E-07   -0.12613E-07  2660   0.759E-04
 202 F= -.83015239E+03 E0= -.83015239E+03  d E =0.347128E-06  mag=     0.0000
       N       E                     dE             d eps       ncg     rms          rms(c)
DAV:   1    -0.822644351700E+03    0.10932E-06   -0.57625E-06  4200   0.494E-03    0.663E-04
DAV:   2    -0.822644351712E+03   -0.11700E-07   -0.14917E-07  2590   0.800E-04
 203 F= -.83015239E+03 E0= -.83015239E+03  d E =0.102111E-06  mag=     0.0000
       N       E                     dE             d eps       ncg     rms          rms(c)
DAV:   1    -0.822644352621E+03   -0.92058E-06   -0.64523E-06  4060   0.508E-03    0.663E-04
DAV:   2    -0.822644352633E+03   -0.12398E-07   -0.16407E-07  2520   0.814E-04
 204 F= -.83015240E+03 E0= -.83015240E+03  d E =-.945918E-06  mag=     0.0000
       N       E                     dE             d eps       ncg     rms          rms(c)
DAV:   1    -0.822644354832E+03   -0.22111E-05   -0.73540E-06  4100   0.522E-03    0.670E-04
DAV:   2    -0.822644354847E+03   -0.14945E-07   -0.17491E-07  2440   0.804E-04
 205 F= -.83015240E+03 E0= -.83015240E+03  d E =-.227679E-05  mag=     0.0000
       N       E                     dE             d eps       ncg     rms          rms(c)
DAV:   1    -0.822644359369E+03   -0.45374E-05   -0.10559E-05  4060   0.602E-03    0.742E-04
DAV:   2    -0.822644359390E+03   -0.20256E-07   -0.24887E-07  2560   0.894E-04
 206 F= -.83015240E+03 E0= -.83015240E+03  d E =-.457205E-05  mag=     0.0000
       N       E                     dE             d eps       ncg     rms          rms(c)
DAV:   1    -0.822644367501E+03   -0.81316E-05   -0.15759E-05  4060   0.737E-03    0.923E-04
DAV:   2    -0.822644367529E+03   -0.28020E-07   -0.37131E-07  2650   0.110E-03
 207 F= -.83015241E+03 E0= -.83015241E+03  d E =-.802652E-05  mag=     0.0000
       N       E                     dE             d eps       ncg     rms          rms(c)
DAV:   1    -0.822644380657E+03   -0.13156E-04   -0.26021E-05  4140   0.956E-03    0.122E-03
DAV:   2    -0.822644380700E+03   -0.42666E-07   -0.61634E-07  2860   0.142E-03
 208 F= -.83015242E+03 E0= -.83015242E+03  d E =-.128644E-04  mag=     0.0000
       N       E                     dE             d eps       ncg     rms          rms(c)
DAV:   1    -0.822644400871E+03   -0.20214E-04   -0.41594E-05  4220   0.119E-02    0.156E-03
DAV:   2    -0.822644400936E+03   -0.65003E-07   -0.96798E-07  3240   0.173E-03
 209 F= -.83015244E+03 E0= -.83015244E+03  d E =-.197651E-04  mag=     0.0000
[...]
DAV:   2    -0.822647359318E+03   -0.17774E-06   -0.25342E-06  3640   0.241E-03
 353 F= -.83015536E+03 E0= -.83015536E+03  d E =-.481735E-04  mag=     0.0000
       N       E                     dE             d eps       ncg     rms          rms(c)
DAV:   1    -0.822647427613E+03   -0.68473E-04   -0.19494E-04  4280   0.224E-02    0.337E-03
DAV:   2    -0.822647427934E+03   -0.32143E-06   -0.44583E-06  3810   0.316E-03
 354 F= -.83015542E+03 E0= -.83015542E+03  d E =-.674890E-04  mag=     0.0000
       N       E                     dE             d eps       ncg     rms          rms(c)
DAV:   1    -0.822647521155E+03   -0.93542E-04   -0.34173E-04  4280   0.295E-02    0.446E-03
DAV:   2    -0.822647521732E+03   -0.57738E-06   -0.77545E-06  4080   0.415E-03
 355 F= -.83015552E+03 E0= -.83015552E+03  d E =-.923072E-04  mag=     0.0000
       N       E                     dE             d eps       ncg     rms          rms(c)
DAV:   1    -0.822647645595E+03   -0.12444E-03   -0.57530E-04  4280   0.386E-02    0.578E-03
DAV:   2    -0.822647646583E+03   -0.98820E-06   -0.12994E-05  4440   0.540E-03    0.350E-03
DAV:   3    -0.822647646592E+03   -0.89713E-08   -0.28662E-07  3140   0.992E-04
 356 F= -.83015564E+03 E0= -.83015564E+03  d E =-.122776E-03  mag=     0.0000
       N       E                     dE             d eps       ncg     rms          rms(c)
DAV:   1    -0.822647807794E+03   -0.16121E-03   -0.91749E-04  4300   0.487E-02    0.643E-03
DAV:   2    -0.822647809544E+03   -0.17497E-05   -0.21429E-05  4600   0.688E-03    0.348E-03
DAV:   3    -0.822647809484E+03    0.59801E-07   -0.37414E-07  3240   0.108E-03
 357 F= -.83015580E+03 E0= -.83015580E+03  d E =-.160282E-03  mag=     0.0000
       N       E                     dE             d eps       ncg     rms          rms(c)
DAV:   1    -0.822648013947E+03   -0.20440E-03   -0.14195E-03  4280   0.608E-02    0.798E-03
DAV:   2    -0.822648016699E+03   -0.27517E-05   -0.33384E-05  4480   0.863E-03    0.438E-03
DAV:   3    -0.822648016617E+03    0.81789E-07   -0.59787E-07  3320   0.136E-03
 358 F= -.83015600E+03 E0= -.83015600E+03  d E =-.203450E-03  mag=     0.0000
       N       E                     dE             d eps       ncg     rms          rms(c)
DAV:   1    -0.822648271695E+03   -0.25500E-03   -0.21490E-03  4280   0.748E-02    0.993E-03
DAV:   2    -0.822648275916E+03   -0.42218E-05   -0.51075E-05  4440   0.107E-02    0.545E-03
DAV:   3    -0.822648275788E+03    0.12805E-06   -0.93628E-07  3360   0.172E-03
 359 F= -.83015626E+03 E0= -.83015626E+03  d E =-.253973E-03  mag=     0.0000
       N       E                     dE             d eps       ncg     rms          rms(c)
DAV:   1    -0.822648570669E+03   -0.29475E-03   -0.28347E-03  4280   0.862E-02    0.116E-02
DAV:   2    -0.822648576244E+03   -0.55754E-05   -0.68231E-05  4420   0.122E-02    0.630E-03
DAV:   3    -0.822648576093E+03    0.15145E-06   -0.12850E-06  3500   0.199E-03
 360 F= -.83015655E+03 E0= -.83015655E+03  d E =-.295201E-03  mag=    -0.0000
       N       E                     dE             d eps       ncg     rms          rms(c)
DAV:   1    -0.822648884557E+03   -0.30831E-03   -0.30965E-03  4280   0.908E-02    0.126E-02
DAV:   2    -0.822648890627E+03   -0.60697E-05   -0.76753E-05  4500   0.132E-02    0.681E-03
DAV:   3    -0.822648890476E+03    0.15148E-06   -0.15717E-06  3400   0.230E-03
 361 F= -.83015686E+03 E0= -.83015686E+03  d E =-.308690E-03  mag=    -0.0000
       N       E                     dE             d eps       ncg     rms          rms(c)
DAV:   1    -0.822648887192E+03    0.34352E-05   -0.77292E-06  4240   0.547E-03    0.122E-03
DAV:   2    -0.822648887243E+03   -0.50837E-07   -0.42641E-07  3100   0.130E-03
 362 F= -.83015686E+03 E0= -.83015686E+03  d E =0.339509E-05  mag=    -0.0000
       N       E                     dE             d eps       ncg     rms          rms(c)
DAV:   1    -0.822648879924E+03    0.72676E-05   -0.20068E-05  4440   0.891E-03    0.112E-03
DAV:   2    -0.822648879978E+03   -0.53478E-07   -0.51448E-07  3060   0.139E-03
 363 F= -.83015685E+03 E0= -.83015685E+03  d E =0.762370E-05  mag=     0.0000
       N       E                     dE             d eps       ncg     rms          rms(c)
DAV:   1    -0.822648868554E+03    0.11370E-04   -0.28506E-05  4480   0.102E-02    0.132E-03
DAV:   2    -0.822648868615E+03   -0.60441E-07   -0.65744E-07  3060   0.152E-03
 364 F= -.83015684E+03 E0= -.83015684E+03  d E =0.116489E-04  mag=    -0.0000
       N       E                     dE             d eps       ncg     rms          rms(c)
DAV:   1    -0.822648854678E+03    0.13876E-04   -0.36071E-05  4500   0.108E-02    0.139E-03
DAV:   2    -0.822648854747E+03   -0.68867E-07   -0.76740E-07  3120   0.154E-03
 365 F= -.83015682E+03 E0= -.83015682E+03  d E =0.138502E-04  mag=     0.0000
       N       E                     dE             d eps       ncg     rms          rms(c)
DAV:   1    -0.822648839958E+03    0.14720E-04   -0.46662E-05  4480   0.121E-02    0.151E-03
DAV:   2    -0.822648840038E+03   -0.79679E-07   -0.97031E-07  3260   0.171E-03
 366 F= -.83015681E+03 E0= -.83015681E+03  d E =0.144480E-04  mag=     0.0000
       N       E                     dE             d eps       ncg     rms          rms(c)
DAV:   1    -0.822648825635E+03    0.14323E-04   -0.58797E-05  4420   0.137E-02    0.171E-03
DAV:   2    -0.822648825730E+03   -0.94704E-07   -0.12095E-06  3320   0.191E-03
 367 F= -.83015680E+03 E0= -.83015680E+03  d E =0.140536E-04  mag=     0.0000
       N       E                     dE             d eps       ncg     rms          rms(c)
DAV:   1    -0.822648812114E+03    0.13521E-04   -0.68360E-05  4420   0.143E-02    0.188E-03
DAV:   2    -0.822648812216E+03   -0.10190E-06   -0.13567E-06  3220   0.197E-03
 368 F= -.83015678E+03 E0= -.83015678E+03  d E =0.133158E-04  mag=     0.0000
       N       E                     dE             d eps       ncg     rms          rms(c)
DAV:   1    -0.822648812879E+03   -0.76512E-06   -0.28365E-07  2880   0.121E-03    0.748E-04
DAV:   2    -0.822648812884E+03   -0.43874E-08   -0.33805E-08  2790   0.447E-04
 369 F= -.83015678E+03 E0= -.83015678E+03  d E =-.650280E-06  mag=     0.0000
       N       E                     dE             d eps       ncg     rms          rms(c)
DAV:   1    -0.822648814703E+03   -0.18239E-05   -0.82800E-07  2900   0.194E-03    0.429E-04
DAV:   2    -0.822648814714E+03   -0.11416E-07   -0.47953E-08  2880   0.520E-04
 370 F= -.83015678E+03 E0= -.83015678E+03  d E =-.178239E-05  mag=     0.0000
       N       E                     dE             d eps       ncg     rms          rms(c)
DAV:   1    -0.822648818267E+03   -0.35640E-05   -0.17185E-06  3440   0.269E-03    0.493E-04
DAV:   2    -0.822648818272E+03   -0.51150E-08   -0.56387E-08  2700   0.524E-04
 371 F= -.83015679E+03 E0= -.83015679E+03  d E =-.346533E-05  mag=     0.0000
       N       E                     dE             d eps       ncg     rms          rms(c)
DAV:   1    -0.822648824225E+03   -0.59584E-05   -0.28842E-06  3860   0.335E-03    0.552E-04
DAV:   2    -0.822648824230E+03   -0.48385E-08   -0.76341E-08  2640   0.566E-04
 372 F= -.83015679E+03 E0= -.83015679E+03  d E =-.580316E-05  mag=     0.0000
       N       E                     dE             d eps       ncg     rms          rms(c)
DAV:   1    -0.822648833289E+03   -0.90633E-05   -0.45271E-06  4080   0.398E-03    0.625E-04
DAV:   2    -0.822648833295E+03   -0.61191E-08   -0.11154E-07  2540   0.638E-04
 373 F= -.83015680E+03 E0= -.83015680E+03  d E =-.885762E-05  mag=     0.0000
       N       E                     dE             d eps       ncg     rms          rms(c)
DAV:   1    -0.822648846001E+03   -0.12713E-04   -0.75993E-06  4120   0.490E-03    0.742E-04
DAV:   2    -0.822648846011E+03   -0.10004E-07   -0.18960E-07  2580   0.779E-04
 374 F= -.83015682E+03 E0= -.83015682E+03  d E =-.124497E-04  mag=     0.0000
       N       E                     dE             d eps       ncg     rms          rms(c)
DAV:   1    -0.822648864874E+03   -0.18873E-04   -0.15856E-05  4020   0.683E-03    0.989E-04
DAV:   2    -0.822648864898E+03   -0.23436E-07   -0.38733E-07  2740   0.105E-03
 375 F= -.83015683E+03 E0= -.83015683E+03  d E =-.185630E-04  mag=     0.0000
       N       E                     dE             d eps       ncg     rms          rms(c)
DAV:   1    -0.822648892388E+03   -0.27513E-04   -0.30621E-05  4080   0.915E-03    0.135E-03
DAV:   2    -0.822648892433E+03   -0.45380E-07   -0.73254E-07  3030   0.137E-03
 376 F= -.83015686E+03 E0= -.83015686E+03  d E =-.270563E-04  mag=     0.0000
       N       E                     dE             d eps       ncg     rms          rms(c)
DAV:   1    -0.822648931634E+03   -0.39247E-04   -0.57397E-05  4100   0.121E-02    0.182E-03
DAV:   2    -0.822648931726E+03   -0.91495E-07   -0.13542E-06  3460   0.174E-03
 377 F= -.83015690E+03 E0= -.83015690E+03  d E =-.383901E-04  mag=     0.0000
       N       E                     dE             d eps       ncg     rms          rms(c)
DAV:   1    -0.822648986448E+03   -0.54813E-04   -0.10783E-04  4260   0.164E-02    0.251E-03
DAV:   2    -0.822648986625E+03   -0.17783E-06   -0.25110E-06  3640   0.232E-03
 378 F= -.83015695E+03 E0= -.83015695E+03  d E =-.533941E-04  mag=     0.0000
       N       E                     dE             d eps       ncg     rms          rms(c)
DAV:   1    -0.822649060351E+03   -0.73904E-04   -0.19035E-04  4280   0.218E-02    0.335E-03
DAV:   2    -0.822649060666E+03   -0.31502E-06   -0.43913E-06  3900   0.307E-03
 379 F= -.83015702E+03 E0= -.83015702E+03  d E =-.718883E-04  mag=     0.0000
       N       E                     dE             d eps       ncg     rms          rms(c)
DAV:   1    -0.822649156697E+03   -0.96346E-04   -0.31225E-04  4280   0.281E-02    0.431E-03
DAV:   2    -0.822649157237E+03   -0.53978E-06   -0.71786E-06  4240   0.396E-03
 380 F= -.83015712E+03 E0= -.83015712E+03  d E =-.937955E-04  mag=     0.0000
       N       E                     dE             d eps       ncg     rms          rms(c)
DAV:   1    -0.822649278434E+03   -0.12174E-03   -0.47811E-04  4280   0.352E-02    0.537E-03
DAV:   2    -0.822649279263E+03   -0.82832E-06   -0.10980E-05  4520   0.493E-03    0.327E-03
DAV:   3    -0.822649279292E+03   -0.29038E-07   -0.22958E-07  3020   0.880E-04
 381 F= -.83015724E+03 E0= -.83015724E+03  d E =-.118271E-03  mag=     0.0000
       N       E                     dE             d eps       ncg     rms          rms(c)
DAV:   1    -0.822649427024E+03   -0.14776E-03   -0.67277E-04  4280   0.416E-02    0.553E-03
DAV:   2    -0.822649428298E+03   -0.12738E-05   -0.15737E-05  4520   0.582E-03    0.301E-03
DAV:   3    -0.822649428271E+03    0.26499E-07   -0.28177E-07  3200   0.962E-04
 382 F= -.83015738E+03 E0= -.83015738E+03  d E =-.144469E-03  mag=     0.0000
       N       E                     dE             d eps       ncg     rms          rms(c)
DAV:   1    -0.822649600251E+03   -0.17195E-03   -0.88139E-04  4280   0.474E-02    0.645E-03
DAV:   2    -0.822649601922E+03   -0.16713E-05   -0.20749E-05  4560   0.669E-03    0.358E-03
DAV:   3    -0.822649601887E+03    0.35412E-07   -0.40049E-07  3240   0.114E-03
 383 F= -.83015755E+03 E0= -.83015755E+03  d E =-.168690E-03  mag=     0.0000
       N       E                     dE             d eps       ncg     rms          rms(c)
DAV:   1    -0.822649795867E+03   -0.19394E-03   -0.10407E-03  4280   0.504E-02    0.716E-03
DAV:   2    -0.822649797820E+03   -0.19535E-05   -0.24355E-05  4380   0.703E-03    0.400E-03
DAV:   3    -0.822649797775E+03    0.45133E-07   -0.50550E-07  3320   0.122E-03
 384 F= -.83015774E+03 E0= -.83015774E+03  d E =-.190047E-03  mag=     0.0000
       N       E                     dE             d eps       ncg     rms          rms(c)
DAV:   1    -0.822650001676E+03   -0.20386E-03   -0.11307E-03  4280   0.531E-02    0.770E-03
DAV:   2    -0.822650003838E+03   -0.21621E-05   -0.27220E-05  4420   0.756E-03    0.432E-03
DAV:   3    -0.822650003793E+03    0.44653E-07   -0.59669E-07  3380   0.134E-03
 385 F= -.83015794E+03 E0= -.83015794E+03  d E =-.198705E-03  mag=     0.0000
       N       E                     dE             d eps       ncg     rms          rms(c)
DAV:   1    -0.822650002969E+03    0.86899E-06   -0.24311E-06  3800   0.309E-03    0.851E-04
DAV:   2    -0.822650002977E+03   -0.82364E-08   -0.14758E-07  2840   0.767E-04
 386 F= -.83015794E+03 E0= -.83015794E+03  d E =0.822632E-06  mag=     0.0000
       N       E                     dE             d eps       ncg     rms          rms(c)
DAV:   1    -0.822650001005E+03    0.19637E-05   -0.55088E-06  4140   0.471E-03    0.673E-04
DAV:   2    -0.822650001024E+03   -0.18168E-07   -0.14708E-07  2860   0.780E-04
 387 F= -.83015794E+03 E0= -.83015794E+03  d E =0.200787E-05  mag=     0.0000
       N       E                     dE             d eps       ncg     rms          rms(c)
DAV:   1    -0.822649997956E+03    0.30496E-05   -0.80414E-06  4240   0.556E-03    0.788E-04
DAV:   2    -0.822649997976E+03   -0.19980E-07   -0.19058E-07  2920   0.877E-04
 388 F= -.83015793E+03 E0= -.83015793E+03  d E =0.323615E-05  mag=     0.0000
       N       E                     dE             d eps       ncg     rms          rms(c)
DAV:   1    -0.822649994366E+03    0.35902E-05   -0.87181E-06  4160   0.533E-03    0.775E-04
DAV:   2    -0.822649994386E+03   -0.20380E-07   -0.20237E-07  3080   0.831E-04
 389 F= -.83015793E+03 E0= -.83015793E+03  d E =0.386481E-05  mag=     0.0000
       N       E                     dE             d eps       ncg     rms          rms(c)
DAV:   1    -0.822649990937E+03    0.34284E-05   -0.10306E-05  4160   0.542E-03    0.788E-04
DAV:   2    -0.822649990959E+03   -0.22119E-07   -0.22754E-07  3100   0.826E-04
 390 F= -.83015792E+03 E0= -.83015792E+03  d E =0.380484E-05  mag=     0.0000
       N       E                     dE             d eps       ncg     rms          rms(c)
DAV:   1    -0.822649988081E+03    0.28560E-05   -0.13846E-05  4280   0.640E-03    0.891E-04
DAV:   2    -0.822649988110E+03   -0.29177E-07   -0.30852E-07  3020   0.971E-04
 391 F= -.83015792E+03 E0= -.83015792E+03  d E =0.328841E-05  mag=     0.0000
       N       E                     dE             d eps       ncg     rms          rms(c)
DAV:   1    -0.822649986241E+03    0.18405E-05   -0.18747E-05  4300   0.730E-03    0.100E-03
DAV:   2    -0.822649986274E+03   -0.33338E-07   -0.40395E-07  3020   0.107E-03
 392 F= -.83015792E+03 E0= -.83015792E+03  d E =0.229069E-05  mag=     0.0000
       N       E                     dE             d eps       ncg     rms          rms(c)
DAV:   1    -0.822649986687E+03   -0.44608E-06   -0.27099E-05  4300   0.884E-03    0.119E-03
DAV:   2    -0.822649986732E+03   -0.44827E-07   -0.58692E-07  3080   0.128E-03
 393 F= -.83015792E+03 E0= -.83015792E+03  d E =0.780499E-07  mag=     0.0000
       N       E                     dE             d eps       ncg     rms          rms(c)
DAV:   1    -0.822649991493E+03   -0.48061E-05   -0.36034E-05  4300   0.981E-03    0.139E-03
DAV:   2    -0.822649991557E+03   -0.63868E-07   -0.79339E-07  3040   0.144E-03
 394 F= -.83015792E+03 E0= -.83015792E+03  d E =-.409880E-05  mag=     0.0000
       N       E                     dE             d eps       ncg     rms          rms(c)
DAV:   1    -0.822650003754E+03   -0.12262E-04   -0.47605E-05  4260   0.110E-02    0.164E-03
DAV:   2    -0.822650003829E+03   -0.74462E-07   -0.10178E-06  3020   0.155E-03
 395 F= -.83015793E+03 E0= -.83015793E+03  d E =-.112349E-04  mag=     0.0000
       N       E                     dE             d eps       ncg     rms          rms(c)
DAV:   1    -0.822650028488E+03   -0.24734E-04   -0.70785E-05  4220   0.130E-02    0.210E-03
DAV:   2    -0.822650028596E+03   -0.10735E-06   -0.15553E-06  3230   0.183E-03
 396 F= -.83015796E+03 E0= -.83015796E+03  d E =-.229648E-04  mag=     0.0000
       N       E                     dE             d eps       ncg     rms          rms(c)
DAV:   1    -0.822650069628E+03   -0.41140E-04   -0.11751E-04  4280   0.164E-02    0.282E-03
DAV:   2    -0.822650069810E+03   -0.18160E-06   -0.26375E-06  3380   0.232E-03
 397 F= -.83015800E+03 E0= -.83015800E+03  d E =-.384247E-04  mag=     0.0000
       N       E                     dE             d eps       ncg     rms          rms(c)
DAV:   1    -0.822650131677E+03   -0.62048E-04   -0.17364E-04  4320   0.191E-02    0.357E-03
DAV:   2    -0.822650131913E+03   -0.23610E-06   -0.37510E-06  3400   0.258E-03
 398 F= -.83015805E+03 E0= -.83015805E+03  d E =-.584019E-04  mag=     0.0000
       N       E                     dE             d eps       ncg     rms          rms(c)
DAV:   1    -0.822650219311E+03   -0.87634E-04   -0.28280E-04  4280   0.252E-02    0.463E-03
DAV:   2    -0.822650219730E+03   -0.41886E-06   -0.64051E-06  3720   0.356E-03
 399 F= -.83015814E+03 E0= -.83015814E+03  d E =-.832565E-04  mag=     0.0000
       N       E                     dE             d eps       ncg     rms          rms(c)
DAV:   1    -0.822650336513E+03   -0.11720E-03   -0.41894E-04  4420   0.302E-02    0.572E-03
DAV:   2    -0.822650337116E+03   -0.60273E-06   -0.92575E-06  3900   0.418E-03
 400 F= -.83015825E+03 E0= -.83015825E+03  d E =-.111547E-03  mag=     0.0000
       N       E                     dE             d eps       ncg     rms          rms(c)
DAV:   1    -0.822650483046E+03   -0.14653E-03   -0.66857E-04  4300   0.396E-02    0.722E-03
DAV:   2    -0.822650484062E+03   -0.10161E-05   -0.15323E-05  4440   0.555E-03    0.433E-03
DAV:   3    -0.822650484129E+03   -0.67164E-07   -0.51935E-07  3300   0.131E-03
 401 F= -.83015839E+03 E0= -.83015839E+03  d E =-.141274E-03  mag=     0.0000
       N       E                     dE             d eps       ncg     rms          rms(c)
DAV:   1    -0.822650657045E+03   -0.17298E-03   -0.98726E-04  4300   0.470E-02    0.751E-03
DAV:   2    -0.822650658749E+03   -0.17038E-05   -0.23699E-05  4540   0.664E-03    0.412E-03
DAV:   3    -0.822650658699E+03    0.49775E-07   -0.58847E-07  3340   0.134E-03
 402 F= -.83015856E+03 E0= -.83015856E+03  d E =-.167906E-03  mag=     0.0000
       N       E                     dE             d eps       ncg     rms          rms(c)
DAV:   1    -0.822650850560E+03   -0.19181E-03   -0.13095E-03  4300   0.541E-02    0.869E-03
DAV:   2    -0.822650852787E+03   -0.22262E-05   -0.31659E-05  4600   0.761E-03    0.472E-03
DAV:   3    -0.822650852716E+03    0.70540E-07   -0.81636E-07  3480   0.155E-03
 403 F= -.83015874E+03 E0= -.83015874E+03  d E =-.185270E-03  mag=     0.0000
       N       E                     dE             d eps       ncg     rms          rms(c)
DAV:   1    -0.822650854105E+03   -0.13185E-05   -0.98774E-06  4320   0.656E-03    0.104E-03
DAV:   2    -0.822650854128E+03   -0.22403E-07   -0.33602E-07  2900   0.120E-03
 404 F= -.83015875E+03 E0= -.83015875E+03  d E =-.149158E-05  mag=     0.0000
       N       E                     dE             d eps       ncg     rms          rms(c)
DAV:   1    -0.822650855541E+03   -0.14363E-05   -0.26856E-05  4560   0.108E-02    0.144E-03
DAV:   2    -0.822650855568E+03   -0.26201E-07   -0.55089E-07  2800   0.161E-03
 405 F= -.83015875E+03 E0= -.83015875E+03  d E =-.154993E-05  mag=     0.0000
       N       E                     dE             d eps       ncg     rms          rms(c)
DAV:   1    -0.822650855950E+03   -0.40812E-06   -0.35152E-07  2880   0.133E-03    0.504E-04
DAV:   2    -0.822650855962E+03   -0.12718E-07   -0.32629E-08  2900   0.434E-04
 406 F= -.83015875E+03 E0= -.83015875E+03  d E =-.396495E-06  mag=    -0.0000
       N       E                     dE             d eps       ncg     rms          rms(c)
DAV:   1    -0.822650856759E+03   -0.80889E-06   -0.71668E-07  2840   0.182E-03    0.442E-04
DAV:   2    -0.822650856769E+03   -0.10041E-07   -0.37954E-08  2880   0.472E-04
 407 F= -.83015875E+03 E0= -.83015875E+03  d E =-.795956E-06  mag=    -0.0000
