unknown system                          
           1
    17.271038    0.000000    0.000000
    -8.635519   14.957158    0.000000
     0.000000    0.000000   15.000000
   C    F    N    H    O 
    82     2     6     2     1
Direct configuration=     1
   0.00136685  0.00008422  0.50719892
   0.00125143  0.14289179  0.50873338
   0.00103809  0.28569638  0.50917100
   0.00077189  0.42866715  0.50767344
   0.00126826  0.57153558  0.50619263
   0.00259835  0.71467555  0.50524390
   0.00184748  0.85763784  0.50542771
   0.14499572  0.00099382  0.51327472
   0.14519772  0.14415709  0.51579548
   0.14438529  0.28605357  0.51887105
   0.14343675  0.42885721  0.51766672
   0.14466710  0.57145730  0.51413018
   0.14529188  0.71430409  0.51161261
   0.14500196  0.85766312  0.51130508
   0.28777926  0.00047010  0.51420269
   0.28836668  0.14405618  0.51960700
   0.28974033  0.28890141  0.53158945
   0.28480099  0.43179671  0.53752739
   0.28878583  0.56907222  0.52727442
   0.28855107  0.71396428  0.51636555
   0.28786608  0.85731362  0.51310455
   0.43063675  0.00031010  0.51090114
   0.43078047  0.14451967  0.51344121
   0.43078766  0.85609252  0.51139291
   0.57269459  0.99970785  0.50579273
   0.57267079  0.14354738  0.50651626
   0.57483407  0.29079284  0.50637310
   0.57490485  0.85484275  0.50389644
   0.71493044  0.99938027  0.50095619
   0.71532790  0.14302560  0.50319252
   0.71485559  0.28640169  0.50226046
   0.71051170  0.42655129  0.49776857
   0.71102230  0.85574392  0.49364012
   0.85796717  0.99953651  0.50091481
   0.85795240  0.14259939  0.50376082
   0.85787533  0.28572583  0.50368891
   0.85758151  0.42878788  0.50152336
   0.85798033  0.57154198  0.49805488
   0.86040945  0.71456480  0.49536586
   0.85751693  0.85626570  0.49723266
   0.04948754  0.09580469  0.51047957
   0.04889048  0.23809942  0.51196523
   0.04810200  0.38096261  0.51100725
   0.04914212  0.52402524  0.50923129
   0.04980420  0.66689706  0.50785673
   0.04963481  0.80996604  0.50752864
   0.04948131  0.95285365  0.50886287
   0.19276919  0.09624315  0.51686661
   0.19343861  0.23972568  0.52107691
   0.19043130  0.38115166  0.52346336
   0.19232519  0.52403067  0.51933445
   0.19289746  0.66676929  0.51448086
   0.19270099  0.80987416  0.51232666
   0.19266495  0.95306436  0.51337144
   0.33562527  0.09628360  0.51596181
   0.33969018  0.24006061  0.52517333
   0.33980855  0.66904012  0.52059200
   0.33565329  0.80916436  0.51372809
   0.33524708  0.95261088  0.51285778
   0.47786712  0.09591807  0.51007002
   0.47563888  0.24072697  0.51367440
   0.47566305  0.80464292  0.51094633
   0.47787331  0.95201249  0.50915168
   0.61994449  0.09528241  0.50478093
   0.61974821  0.23941650  0.50466969
   0.61974759  0.95106459  0.50311916
   0.76279807  0.09518561  0.50247828
   0.76271355  0.23829534  0.50282902
   0.76187762  0.38160539  0.50018423
   0.76118332  0.52661933  0.49255163
   0.76574643  0.66379124  0.48430835
   0.76122621  0.80716364  0.48822745
   0.76232585  0.95174501  0.49807532
   0.90569702  0.09475108  0.50436502
   0.90563818  0.23801026  0.50531060
   0.90525581  0.38126129  0.50403518
   0.90570085  0.52410130  0.50191488
   0.90725300  0.66674709  0.49971039
   0.90638539  0.80969326  0.49923363
   0.90568792  0.95177384  0.50208446
   0.72076921  0.71432646  0.47494156
   0.32994500  0.38138540  0.54790964
   0.63516655  0.66846861  0.45157720
   0.41420945  0.42572558  0.57750552
   0.42969481  0.28474622  0.52099696
   0.42976666  0.71425904  0.51708670
   0.71824865  0.57269830  0.48328868
   0.33118186  0.52296928  0.54007070
   0.62059441  0.38117467  0.50172898
   0.62103453  0.81095133  0.49797112
   0.45124792  0.56300667  0.48402864
   0.51526268  0.52674374  0.46582949
   0.47312950  0.54005086  0.43630438
Direct configuration=     2
   0.00136603  0.00008382  0.50720062
   0.00125090  0.14289148  0.50873458
   0.00103726  0.28569637  0.50917186
   0.00077152  0.42866681  0.50767392
   0.00126781  0.57153516  0.50619345
   0.00259852  0.71467476  0.50524449
   0.00184832  0.85763815  0.50542783
   0.14499687  0.00099429  0.51327472
   0.14519717  0.14415685  0.51579637
   0.14438563  0.28605310  0.51887074
   0.14343668  0.42885705  0.51766639
   0.14466690  0.57145698  0.51413100
   0.14529161  0.71430430  0.51161316
   0.14500352  0.85766250  0.51130528
   0.28778053  0.00047000  0.51420279
   0.28836739  0.14405613  0.51960717
   0.28974033  0.28890155  0.53158847
   0.28480123  0.43179702  0.53752501
   0.28878558  0.56907200  0.52727382
   0.28855042  0.71396389  0.51636584
   0.28786587  0.85731313  0.51310479
   0.43063662  0.00031012  0.51090132
   0.43078023  0.14452036  0.51344150
   0.43078807  0.85609239  0.51139264
   0.57269523  0.99970716  0.50579289
   0.57267138  0.14354718  0.50651554
   0.57483394  0.29079251  0.50637198
   0.57490462  0.85484268  0.50389599
   0.71493019  0.99937998  0.50095603
   0.71532839  0.14302548  0.50319251
   0.71485512  0.28639938  0.50225992
   0.71051166  0.42655108  0.49776776
   0.71102191  0.85574311  0.49363949
   0.85796703  0.99953616  0.50091504
   0.85795103  0.14259983  0.50376032
   0.85787495  0.28572551  0.50369005
   0.85758153  0.42878720  0.50152375
   0.85798048  0.57154158  0.49805511
   0.86040968  0.71456417  0.49536675
   0.85751661  0.85626512  0.49723344
   0.04948746  0.09580394  0.51048100
   0.04889064  0.23809943  0.51196543
   0.04810296  0.38096153  0.51100790
   0.04914192  0.52402518  0.50923122
   0.04980414  0.66689683  0.50785668
   0.04963492  0.80996700  0.50752874
   0.04948154  0.95285300  0.50886470
   0.19276869  0.09624275  0.51686643
   0.19343906  0.23972540  0.52107653
   0.19043091  0.38115155  0.52346187
   0.19232484  0.52403053  0.51933412
   0.19289829  0.66676940  0.51448118
   0.19270146  0.80987524  0.51232643
   0.19266404  0.95306488  0.51337120
   0.33562511  0.09628370  0.51596210
   0.33969030  0.24006037  0.52517259
   0.33980841  0.66903956  0.52059182
   0.33565280  0.80916480  0.51372778
   0.33524679  0.95261090  0.51285784
   0.47786727  0.09591698  0.51007085
   0.47563899  0.24072705  0.51367352
   0.47566286  0.80464281  0.51094597
   0.47787256  0.95201202  0.50915148
   0.61994264  0.09528269  0.50478093
   0.61974819  0.23941645  0.50466874
   0.61974642  0.95106445  0.50311821
   0.76279786  0.09518479  0.50247836
   0.76271317  0.23829547  0.50282872
   0.76187806  0.38160624  0.50018441
   0.76118352  0.52661900  0.49255170
   0.76574629  0.66379100  0.48430886
   0.76122653  0.80716324  0.48822767
   0.76232509  0.95174414  0.49807488
   0.90569732  0.09475081  0.50436559
   0.90563860  0.23801003  0.50531168
   0.90525621  0.38126142  0.50403598
   0.90570080  0.52410105  0.50191522
   0.90725311  0.66674684  0.49971101
   0.90638562  0.80969300  0.49923480
   0.90568779  0.95177318  0.50208448
   0.72077010  0.71432624  0.47494173
   0.32994586  0.38138660  0.54790861
   0.63516665  0.66846846  0.45157841
   0.41420934  0.42572628  0.57750312
   0.42969515  0.28474627  0.52099579
   0.42976647  0.71425871  0.51708619
   0.71824906  0.57269808  0.48328832
   0.33118197  0.52296935  0.54006887
   0.62059481  0.38117467  0.50172790
   0.62103424  0.81095105  0.49797087
   0.45124631  0.56301099  0.48402976
   0.51526208  0.52674818  0.46582836
   0.47313290  0.54005840  0.43630307
Direct configuration=     3
   0.00136569  0.00008300  0.50720311
   0.00125088  0.14289105  0.50873632
   0.00103718  0.28569612  0.50917313
   0.00076998  0.42866745  0.50767386
   0.00126732  0.57153464  0.50619453
   0.00259874  0.71467475  0.50524528
   0.00185002  0.85763932  0.50542772
   0.14499691  0.00099411  0.51327453
   0.14519663  0.14415609  0.51579758
   0.14438692  0.28605144  0.51887004
   0.14343677  0.42885682  0.51766586
   0.14466665  0.57145659  0.51413206
   0.14529169  0.71430407  0.51161330
   0.14500378  0.85766249  0.51130502
   0.28778060  0.00046984  0.51420293
   0.28836721  0.14405576  0.51960732
   0.28974108  0.28890332  0.53158680
   0.28480159  0.43179721  0.53752166
   0.28878525  0.56907175  0.52727285
   0.28855110  0.71396337  0.51636579
   0.28786487  0.85731345  0.51310517
   0.43063624  0.00030960  0.51090165
   0.43078034  0.14452033  0.51344190
   0.43078798  0.85609217  0.51139223
   0.57269439  0.99970687  0.50579227
   0.57267092  0.14354691  0.50651465
   0.57483413  0.29079248  0.50637031
   0.57490404  0.85484235  0.50389529
   0.71492933  0.99937893  0.50095571
   0.71532778  0.14302488  0.50319246
   0.71485697  0.28640327  0.50225884
   0.71051207  0.42655104  0.49776669
   0.71102137  0.85574197  0.49363867
   0.85796675  0.99953539  0.50091532
   0.85795102  0.14259929  0.50376025
   0.85787503  0.28572557  0.50369164
   0.85758170  0.42878698  0.50152438
   0.85798058  0.57154106  0.49805549
   0.86041010  0.71456372  0.49536810
   0.85751658  0.85626431  0.49723455
   0.04948674  0.09580320  0.51048312
   0.04889026  0.23809931  0.51196581
   0.04810314  0.38096125  0.51100831
   0.04914194  0.52402497  0.50923185
   0.04980429  0.66689632  0.50785678
   0.04963544  0.80996683  0.50752891
   0.04948178  0.95285306  0.50886719
   0.19276901  0.09624216  0.51686736
   0.19343869  0.23972502  0.52107597
   0.19043083  0.38115154  0.52345977
   0.19232440  0.52403020  0.51933372
   0.19289789  0.66676892  0.51448182
   0.19270164  0.80987457  0.51232658
   0.19266459  0.95306477  0.51337087
   0.33562554  0.09628374  0.51596251
   0.33969070  0.24006018  0.52517153
   0.33980802  0.66903913  0.52059154
   0.33565243  0.80916466  0.51372745
   0.33524672  0.95261041  0.51285796
   0.47786724  0.09591722  0.51007141
   0.47563917  0.24072712  0.51367226
   0.47566277  0.80464254  0.51094543
   0.47787256  0.95201159  0.50915120
   0.61994251  0.09528294  0.50478084
   0.61974817  0.23941580  0.50466731
   0.61974672  0.95106383  0.50311762
   0.76279740  0.09518408  0.50247843
   0.76271308  0.23829440  0.50282840
   0.76187706  0.38160443  0.50018423
   0.76118378  0.52661859  0.49255170
   0.76574563  0.66379071  0.48431000
   0.76122673  0.80716252  0.48822798
   0.76232565  0.95174333  0.49807507
   0.90569689  0.09475046  0.50436639
   0.90563804  0.23800961  0.50531317
   0.90525657  0.38126081  0.50403717
   0.90570079  0.52410048  0.50191577
   0.90725340  0.66674614  0.49971195
   0.90638560  0.80969231  0.49923644
   0.90568741  0.95177338  0.50208585
   0.72077088  0.71432576  0.47494209
   0.32994536  0.38138717  0.54790662
   0.63516712  0.66846832  0.45158047
   0.41420991  0.42572768  0.57749971
   0.42969537  0.28474645  0.52099414
   0.42976612  0.71425815  0.51708547
   0.71824953  0.57269768  0.48328788
   0.33118209  0.52296940  0.54006623
   0.62059476  0.38117412  0.50172636
   0.62103382  0.81095064  0.49797051
   0.45124469  0.56301635  0.48402963
   0.51526216  0.52675424  0.46582721
   0.47313567  0.54007003  0.43630172
Direct configuration=     4
   0.00136571  0.00008212  0.50720637
   0.00125099  0.14289068  0.50873849
   0.00103777  0.28569581  0.50917475
   0.00077138  0.42866764  0.50767402
   0.00126726  0.57153431  0.50619578
   0.00259912  0.71467537  0.50524617
   0.00185020  0.85763955  0.50542873
   0.14499717  0.00099496  0.51327498
   0.14519632  0.14415491  0.51579911
   0.14438637  0.28605163  0.51886921
   0.14343678  0.42885649  0.51766505
   0.14466641  0.57145628  0.51413327
   0.14529143  0.71430445  0.51161419
   0.14500296  0.85766296  0.51130434
   0.28777978  0.00046983  0.51420310
   0.28836655  0.14405535  0.51960746
   0.28974181  0.28890259  0.53158603
   0.28480169  0.43179745  0.53751741
   0.28878482  0.56907153  0.52727148
   0.28855246  0.71396304  0.51636542
   0.28786497  0.85731367  0.51310535
   0.43063589  0.00030886  0.51090212
   0.43078090  0.14451986  0.51344234
   0.43078719  0.85609176  0.51139167
   0.57269308  0.99970761  0.50579217
   0.57266982  0.14354690  0.50651368
   0.57483450  0.29079236  0.50636813
   0.57490345  0.85484179  0.50389439
   0.71492864  0.99937743  0.50095527
   0.71532636  0.14302399  0.50319236
   0.71485723  0.28640622  0.50225742
   0.71051243  0.42655085  0.49776545
   0.71102094  0.85574079  0.49363788
   0.85796644  0.99953470  0.50091575
   0.85795199  0.14259797  0.50376074
   0.85787475  0.28572414  0.50369274
   0.85758185  0.42878687  0.50152523
   0.85798068  0.57154050  0.49805605
   0.86041040  0.71456341  0.49536991
   0.85751688  0.85626366  0.49723604
   0.04948575  0.09580256  0.51048594
   0.04888994  0.23809889  0.51196647
   0.04810211  0.38096216  0.51100847
   0.04914105  0.52402435  0.50923200
   0.04980453  0.66689578  0.50785710
   0.04963643  0.80996596  0.50752908
   0.04948157  0.95285230  0.50886996
   0.19276968  0.09624236  0.51686815
   0.19343989  0.23972518  0.52107546
   0.19043137  0.38115121  0.52345713
   0.19232415  0.52402986  0.51933330
   0.19289671  0.66676808  0.51448277
   0.19270124  0.80987267  0.51232703
   0.19266628  0.95306413  0.51337041
   0.33562630  0.09628362  0.51596302
   0.33969120  0.24006051  0.52517023
   0.33980764  0.66903891  0.52059111
   0.33565233  0.80916407  0.51372712
   0.33524681  0.95260983  0.51285817
   0.47786682  0.09591838  0.51007164
   0.47563952  0.24072727  0.51367068
   0.47566253  0.80464197  0.51094474
   0.47787303  0.95201136  0.50915084
   0.61994365  0.09528268  0.50478057
   0.61974860  0.23941563  0.50466538
   0.61974774  0.95106294  0.50311739
   0.76279667  0.09518346  0.50247845
   0.76271347  0.23829349  0.50282812
   0.76187608  0.38160237  0.50018361
   0.76118420  0.52661826  0.49255162
   0.76574671  0.66378990  0.48431097
   0.76122682  0.80716159  0.48822844
   0.76232537  0.95174242  0.49807492
   0.90569601  0.09475003  0.50436739
   0.90563684  0.23800916  0.50531504
   0.90525633  0.38126003  0.50403867
   0.90570064  0.52409955  0.50191653
   0.90725381  0.66674525  0.49971318
   0.90638595  0.80969170  0.49923846
   0.90568677  0.95177268  0.50208731
   0.72077125  0.71432517  0.47494287
   0.32994416  0.38138739  0.54790364
   0.63516784  0.66846822  0.45158367
   0.41421106  0.42572984  0.57749515
   0.42969550  0.28474672  0.52099203
   0.42976578  0.71425765  0.51708459
   0.71824989  0.57269721  0.48328752
   0.33118227  0.52296957  0.54006288
   0.62059474  0.38117363  0.50172440
   0.62103326  0.81095017  0.49797006
   0.45124303  0.56302280  0.48402809
   0.51526240  0.52676210  0.46582535
   0.47313777  0.54008500  0.43629987
Direct configuration=     5
   0.00136556  0.00008124  0.50721032
   0.00125069  0.14289019  0.50874101
   0.00103797  0.28569564  0.50917658
   0.00077389  0.42866720  0.50767443
   0.00126751  0.57153403  0.50619706
   0.00259973  0.71467554  0.50524710
   0.00184917  0.85763818  0.50543088
   0.14499703  0.00099429  0.51327552
   0.14519644  0.14415414  0.51580093
   0.14438493  0.28605314  0.51886827
   0.14343654  0.42885615  0.51766388
   0.14466585  0.57145598  0.51413449
   0.14529155  0.71430324  0.51161458
   0.14500371  0.85766418  0.51130430
   0.28777945  0.00046995  0.51420327
   0.28836661  0.14405533  0.51960754
   0.28974200  0.28890096  0.53158510
   0.28480165  0.43179777  0.53751242
   0.28878442  0.56907136  0.52726968
   0.28855146  0.71396320  0.51636579
   0.28786575  0.85731299  0.51310534
   0.43063586  0.00030846  0.51090268
   0.43078155  0.14451966  0.51344278
   0.43078630  0.85609113  0.51139096
   0.57269267  0.99970682  0.50579296
   0.57266925  0.14354721  0.50651261
   0.57483443  0.29079179  0.50636672
   0.57490316  0.85484112  0.50389341
   0.71492804  0.99937849  0.50095484
   0.71532555  0.14302331  0.50319216
   0.71485614  0.28640329  0.50225610
   0.71051084  0.42654879  0.49776469
   0.71102063  0.85573969  0.49363734
   0.85796597  0.99953407  0.50091637
   0.85795073  0.14259772  0.50376089
   0.85787395  0.28572179  0.50369343
   0.85758189  0.42878610  0.50152628
   0.85798096  0.57153984  0.49805683
   0.86041088  0.71456284  0.49537216
   0.85751730  0.85626313  0.49723786
   0.04948510  0.09580190  0.51048942
   0.04888993  0.23809830  0.51196750
   0.04810114  0.38096327  0.51100851
   0.04914091  0.52402425  0.50923304
   0.04980453  0.66689554  0.50785772
   0.04963718  0.80996537  0.50752921
   0.04948203  0.95285303  0.50887295
   0.19277010  0.09624287  0.51686881
   0.19343997  0.23972450  0.52107484
   0.19043189  0.38115072  0.52345391
   0.19232409  0.52402941  0.51933289
   0.19289761  0.66676844  0.51448378
   0.19270230  0.80987300  0.51232694
   0.19266755  0.95306371  0.51336983
   0.33562670  0.09628341  0.51596363
   0.33969166  0.24006089  0.52516875
   0.33980755  0.66903870  0.52059050
   0.33565259  0.80916335  0.51372680
   0.33524695  0.95260953  0.51285850
   0.47786623  0.09591918  0.51007152
   0.47563998  0.24072747  0.51366883
   0.47566187  0.80464110  0.51094391
   0.47787316  0.95201135  0.50915048
   0.61994413  0.09528198  0.50478014
   0.61974913  0.23941615  0.50466297
   0.61974715  0.95106266  0.50311676
   0.76279615  0.09518265  0.50247841
   0.76271350  0.23829342  0.50282790
   0.76187756  0.38160354  0.50018345
   0.76118474  0.52661784  0.49255146
   0.76574759  0.66378928  0.48431272
   0.76122696  0.80716057  0.48822916
   0.76232440  0.95174121  0.49807440
   0.90569561  0.09474920  0.50436863
   0.90563635  0.23800829  0.50531726
   0.90525590  0.38125940  0.50404038
   0.90570045  0.52409857  0.50191754
   0.90725435  0.66674467  0.49971471
   0.90638679  0.80969143  0.49924084
   0.90568637  0.95177115  0.50208895
   0.72077169  0.71432444  0.47494454
   0.32994445  0.38138727  0.54789958
   0.63516776  0.66846506  0.45158678
   0.41421237  0.42573267  0.57748905
   0.42969587  0.28474702  0.52098941
   0.42976569  0.71425731  0.51708356
   0.71825033  0.57269664  0.48328741
   0.33118244  0.52296992  0.54005887
   0.62059514  0.38117355  0.50172196
   0.62103269  0.81094941  0.49796952
   0.45124084  0.56303079  0.48402595
   0.51526150  0.52677203  0.46582141
   0.47313994  0.54010089  0.43629690
Direct configuration=     6
   0.00136582  0.00008044  0.50721366
   0.00124997  0.14288937  0.50874390
   0.00103732  0.28569550  0.50917855
   0.00077224  0.42866738  0.50767458
   0.00126759  0.57153362  0.50619838
   0.00260051  0.71467492  0.50524806
   0.00184978  0.85763718  0.50543304
   0.14499714  0.00099274  0.51327630
   0.14519664  0.14415410  0.51580303
   0.14438572  0.28605237  0.51886688
   0.14343629  0.42885599  0.51766237
   0.14466550  0.57145585  0.51413573
   0.14529153  0.71430275  0.51161572
   0.14500465  0.85766374  0.51130385
   0.28778044  0.00047007  0.51420348
   0.28836773  0.14405574  0.51960756
   0.28974256  0.28890192  0.53158312
   0.28480203  0.43179788  0.53750690
   0.28878430  0.56907144  0.52726751
   0.28854927  0.71396348  0.51636688
   0.28786568  0.85731229  0.51310547
   0.43063669  0.00030940  0.51090206
   0.43078197  0.14452162  0.51344206
   0.43078601  0.85609046  0.51139015
   0.57269309  0.99970439  0.50579316
   0.57266954  0.14354745  0.50651143
   0.57483411  0.29079122  0.50636581
   0.57490312  0.85484038  0.50389243
   0.71492822  0.99937820  0.50095433
   0.71532579  0.14302298  0.50319189
   0.71485518  0.28639963  0.50225452
   0.71051079  0.42654779  0.49776369
   0.71102040  0.85573874  0.49363718
   0.85796529  0.99953312  0.50091723
   0.85794808  0.14259795  0.50376094
   0.85787385  0.28572148  0.50369484
   0.85758205  0.42878494  0.50152759
   0.85798148  0.57153901  0.49805790
   0.86041165  0.71456194  0.49537490
   0.85751760  0.85626242  0.49723999
   0.04948496  0.09580116  0.51049356
   0.04888979  0.23809802  0.51196896
   0.04810220  0.38096131  0.51100959
   0.04914114  0.52402409  0.50923379
   0.04980459  0.66689540  0.50785872
   0.04963748  0.80996558  0.50752948
   0.04948215  0.95285223  0.50887604
   0.19277015  0.09624285  0.51686943
   0.19343853  0.23972349  0.52107425
   0.19043182  0.38115081  0.52345018
   0.19232385  0.52402879  0.51933245
   0.19289957  0.66676920  0.51448488
   0.19270419  0.80987488  0.51232638
   0.19266413  0.95306214  0.51336995
   0.33562664  0.09628331  0.51596434
   0.33969213  0.24006083  0.52516716
   0.33980745  0.66903854  0.52058973
   0.33565290  0.80916272  0.51372656
   0.33524720  0.95260950  0.51285897
   0.47786603  0.09591892  0.51007117
   0.47564050  0.24072758  0.51366687
   0.47566108  0.80464034  0.51094296
   0.47787257  0.95201116  0.50915029
   0.61994320  0.09528116  0.50477969
   0.61974908  0.23941635  0.50466031
   0.61974519  0.95106288  0.50311588
   0.76279577  0.09518227  0.50247832
   0.76271264  0.23829301  0.50282772
   0.76187839  0.38160424  0.50018286
   0.76118502  0.52661698  0.49255133
   0.76574822  0.66378895  0.48431524
   0.76122713  0.80715960  0.48823030
   0.76232442  0.95174040  0.49807452
   0.90569549  0.09474828  0.50437017
   0.90563689  0.23800702  0.50531970
   0.90525605  0.38125835  0.50404222
   0.90570068  0.52409798  0.50191885
   0.90725500  0.66674450  0.49971654
   0.90638753  0.80969106  0.49924362
   0.90568635  0.95176937  0.50209096
   0.72077216  0.71432317  0.47494727
   0.32994500  0.38138717  0.54789473
   0.63516758  0.66846190  0.45159218
   0.41421376  0.42573603  0.57748106
   0.42969660  0.28474736  0.52098636
   0.42976559  0.71425687  0.51708248
   0.71825097  0.57269601  0.48328774
   0.33118249  0.52297016  0.54005431
   0.62059512  0.38117314  0.50171928
   0.62103222  0.81094835  0.49796895
   0.45123789  0.56304049  0.48402369
   0.51525922  0.52678395  0.46581501
   0.47314256  0.54011654  0.43629295
Direct configuration=     7
   0.00136630  0.00007949  0.50721675
   0.00124903  0.14288830  0.50874753
   0.00103651  0.28569458  0.50918090
   0.00076776  0.42866724  0.50767478
   0.00126746  0.57153321  0.50619983
   0.00260121  0.71467403  0.50524908
   0.00185207  0.85763712  0.50543540
   0.14499808  0.00099316  0.51327828
   0.14519636  0.14415414  0.51580555
   0.14438580  0.28605174  0.51886518
   0.14343627  0.42885551  0.51766026
   0.14466613  0.57145590  0.51413701
   0.14529299  0.71430257  0.51161618
   0.14500481  0.85766161  0.51130278
   0.28778109  0.00046942  0.51420374
   0.28836895  0.14405615  0.51960742
   0.28974237  0.28890062  0.53158148
   0.28480262  0.43179777  0.53750008
   0.28878428  0.56907179  0.52726453
   0.28855010  0.71396312  0.51636745
   0.28786573  0.85731253  0.51310562
   0.43063732  0.00031048  0.51090168
   0.43078164  0.14452261  0.51344128
   0.43078637  0.85608996  0.51138909
   0.57269355  0.99970437  0.50579348
   0.57267016  0.14354698  0.50650986
   0.57483396  0.29079119  0.50636476
   0.57490272  0.85483955  0.50389128
   0.71492841  0.99937591  0.50095362
   0.71532599  0.14302252  0.50319142
   0.71485799  0.28640260  0.50225216
   0.71051272  0.42654826  0.49776206
   0.71102025  0.85573773  0.49363745
   0.85796507  0.99953170  0.50091847
   0.85794818  0.14259614  0.50376230
   0.85787462  0.28572288  0.50369722
   0.85758218  0.42878374  0.50152920
   0.85798212  0.57153817  0.49805937
   0.86041269  0.71456113  0.49537843
   0.85751767  0.85626101  0.49724262
   0.04948515  0.09579950  0.51049715
   0.04888937  0.23809777  0.51197098
   0.04810293  0.38095990  0.51101042
   0.04914127  0.52402380  0.50923423
   0.04980510  0.66689510  0.50786023
   0.04963768  0.80996571  0.50752996
   0.04948253  0.95285162  0.50887947
   0.19277024  0.09624200  0.51687011
   0.19343893  0.23972385  0.52107398
   0.19043159  0.38115141  0.52344542
   0.19232318  0.52402851  0.51933171
   0.19289813  0.66676819  0.51448647
   0.19270349  0.80987429  0.51232626
   0.19266308  0.95306244  0.51336992
   0.33562659  0.09628361  0.51596498
   0.33969301  0.24006088  0.52516514
   0.33980683  0.66903869  0.52058861
   0.33565205  0.80916354  0.51372748
   0.33524760  0.95260983  0.51285944
   0.47786657  0.09591854  0.51007029
   0.47564105  0.24072796  0.51366452
   0.47566079  0.80464001  0.51094163
   0.47787162  0.95201044  0.50915008
   0.61994144  0.09528020  0.50477905
   0.61974738  0.23941353  0.50465804
   0.61974463  0.95106183  0.50311546
   0.76279483  0.09518206  0.50247801
   0.76271149  0.23829149  0.50282746
   0.76187755  0.38160205  0.50018175
   0.76118519  0.52661563  0.49255120
   0.76574878  0.66378849  0.48431888
   0.76122717  0.80715856  0.48823207
   0.76232309  0.95173979  0.49807411
   0.90569437  0.09474748  0.50437209
   0.90563716  0.23800607  0.50532241
   0.90525633  0.38125685  0.50404420
   0.90570151  0.52409750  0.50192058
   0.90725588  0.66674415  0.49971886
   0.90638782  0.80968998  0.49924712
   0.90568668  0.95176806  0.50209364
   0.72077255  0.71432129  0.47495164
   0.32994592  0.38138795  0.54788821
   0.63516725  0.66845841  0.45160118
   0.41421440  0.42573790  0.57747275
   0.42969738  0.28474783  0.52098253
   0.42976481  0.71425591  0.51708112
   0.71825188  0.57269541  0.48328862
   0.33118243  0.52296999  0.54004861
   0.62059437  0.38117206  0.50171618
   0.62103191  0.81094713  0.49796822
   0.45123396  0.56305291  0.48402027
   0.51525662  0.52679897  0.46580593
   0.47314377  0.54013431  0.43628596
Direct configuration=     8
   0.00136674  0.00007805  0.50721980
   0.00124845  0.14288707  0.50875203
   0.00103646  0.28569318  0.50918376
   0.00076977  0.42866494  0.50767637
   0.00126809  0.57153332  0.50620152
   0.00260308  0.71467832  0.50525077
   0.00185443  0.85763799  0.50543808
   0.14499754  0.00099315  0.51328067
   0.14519600  0.14415361  0.51580846
   0.14438494  0.28605235  0.51886320
   0.14343612  0.42885504  0.51765746
   0.14466659  0.57145529  0.51413823
   0.14529353  0.71430424  0.51161766
   0.14500580  0.85766161  0.51130260
   0.28778008  0.00046849  0.51420415
   0.28836908  0.14405604  0.51960707
   0.28974200  0.28889797  0.53157992
   0.28480307  0.43179761  0.53749160
   0.28878383  0.56907185  0.52726066
   0.28855290  0.71396269  0.51636745
   0.28786565  0.85731407  0.51310595
   0.43063726  0.00031069  0.51090170
   0.43078212  0.14451993  0.51344002
   0.43078648  0.85609006  0.51138798
   0.57269243  0.99970586  0.50579199
   0.57266999  0.14354524  0.50650787
   0.57483417  0.29079076  0.50636302
   0.57490193  0.85483861  0.50389002
   0.71492653  0.99937663  0.50095282
   0.71532460  0.14302139  0.50319070
   0.71485709  0.28640282  0.50224933
   0.71051188  0.42654654  0.49776062
   0.71101979  0.85573649  0.49363832
   0.85796518  0.99952991  0.50092024
   0.85795044  0.14259315  0.50376521
   0.85787422  0.28572074  0.50369936
   0.85758216  0.42878285  0.50153106
   0.85798283  0.57153759  0.49806136
   0.86041370  0.71456075  0.49538297
   0.85751756  0.85625890  0.49724591
   0.04948514  0.09579791  0.51050015
   0.04888867  0.23809655  0.51197367
   0.04810067  0.38096076  0.51101071
   0.04914032  0.52402325  0.50923443
   0.04980642  0.66689460  0.50786221
   0.04963841  0.80996448  0.50753073
   0.04948366  0.95285155  0.50888323
   0.19277111  0.09624184  0.51687123
   0.19344118  0.23972506  0.52107411
   0.19043180  0.38115155  0.52343956
   0.19232280  0.52402896  0.51933052
   0.19289756  0.66676752  0.51448828
   0.19270111  0.80987088  0.51232657
   0.19266655  0.95306372  0.51336982
   0.33562701  0.09628396  0.51596531
   0.33969426  0.24006118  0.52516260
   0.33980601  0.66903896  0.52058711
   0.33565141  0.80916369  0.51372828
   0.33524817  0.95261043  0.51285977
   0.47786734  0.09591912  0.51006886
   0.47564014  0.24072909  0.51366346
   0.47566101  0.80463958  0.51093990
   0.47787152  0.95200977  0.50914978
   0.61994080  0.09527938  0.50477814
   0.61974773  0.23941295  0.50465523
   0.61974634  0.95105937  0.50311556
   0.76279403  0.09518084  0.50247754
   0.76271235  0.23829117  0.50282713
   0.76187920  0.38160160  0.50018144
   0.76118611  0.52661445  0.49255125
   0.76574978  0.66378732  0.48432408
   0.76122706  0.80715721  0.48823491
   0.76232386  0.95173876  0.49807450
   0.90569284  0.09474594  0.50437463
   0.90563613  0.23800574  0.50532548
   0.90525502  0.38125603  0.50404627
   0.90570205  0.52409624  0.50192281
   0.90725685  0.66674281  0.49972178
   0.90638842  0.80968845  0.49925154
   0.90568708  0.95176761  0.50209708
   0.72077286  0.71431943  0.47495854
   0.32994665  0.38138901  0.54787955
   0.63516156  0.66844881  0.45161146
   0.41421486  0.42573861  0.57746326
   0.42969801  0.28474867  0.52097800
   0.42976379  0.71425512  0.51707937
   0.71825289  0.57269496  0.48329039
   0.33118242  0.52296977  0.54004157
   0.62059477  0.38117169  0.50171277
   0.62103183  0.81094596  0.49796744
   0.45122948  0.56306767  0.48401340
   0.51525521  0.52681710  0.46579418
   0.47314010  0.54015544  0.43627425
Direct configuration=     9
   0.00136675  0.00007646  0.50722318
   0.00124822  0.14288488  0.50875740
   0.00103585  0.28569236  0.50918721
   0.00077451  0.42866507  0.50767727
   0.00126927  0.57153325  0.50620364
   0.00260357  0.71467594  0.50525284
   0.00185497  0.85763806  0.50544137
   0.14499804  0.00099277  0.51328355
   0.14519690  0.14415306  0.51581171
   0.14438488  0.28605356  0.51886123
   0.14343533  0.42885565  0.51765378
   0.14466503  0.57145463  0.51413915
   0.14529319  0.71430137  0.51161846
   0.14500807  0.85766379  0.51130360
   0.28778020  0.00046963  0.51420475
   0.28836928  0.14405584  0.51960658
   0.28974408  0.28890285  0.53157500
   0.28480237  0.43179750  0.53748300
   0.28878307  0.56907119  0.52725588
   0.28855073  0.71396356  0.51636867
   0.28786671  0.85731347  0.51310621
   0.43063669  0.00030934  0.51090217
   0.43078204  0.14451859  0.51343904
   0.43078574  0.85609000  0.51138710
   0.57269165  0.99970590  0.50579086
   0.57266959  0.14354408  0.50650536
   0.57483422  0.29078955  0.50636016
   0.57490199  0.85483683  0.50388879
   0.71492660  0.99937434  0.50095198
   0.71532361  0.14302051  0.50318970
   0.71485389  0.28639869  0.50224632
   0.71051297  0.42654591  0.49775824