 running   50 mpi-ranks, on    1 nodes
 each image running on   10 cores
 distrk:  each k-point on    5 cores,    2 groups
 distr:  one band on    1 cores,    5 groups
 vasp.6.4.2 20Jul23 (build Aug 26 2025 15:10:52) complex                        
  
 POSCAR found type information on POSCAR C H F O 
 01/POSCAR found :  4 types and      99 ions
 Reading from existing POTCAR
 scaLAPACK will be used
 -----------------------------------------------------------------------------
|                                                                             |
|           W    W    AA    RRRRR   N    N  II  N    N   GGGG   !!!           |
|           W    W   A  A   R    R  NN   N  II  NN   N  G    G  !!!           |
|           W    W  A    A  R    R  N N  N  II  N N  N  G       !!!           |
|           W WW W  AAAAAA  RRRRR   N  N N  II  N  N N  G  GGG   !            |
|           WW  WW  A    A  R   R   N   NN  II  N   NN  G    G                |
|           W    W  A    A  R    R  N    N  II  N    N   GGGG   !!!           |
|                                                                             |
|     For optimal performance we recommend to set                             |
|       NCORE = 2 up to number-of-cores-per-socket                            |
|     NCORE specifies how many cores store one orbital (NPAR=cpu/NCORE).      |
|     This setting can greatly improve the performance of VASP for DFT.       |
|     The default, NCORE=1 might be grossly inefficient on modern             |
|     multi-core architectures or massively parallel machines. Do your        |
|     own testing! More info at https://www.vasp.at/wiki/index.php/NCORE      |
|     Unfortunately you need to use the default for GW and RPA                |
|     calculations (for HF NCORE is supported but not extensively tested      |
|     yet).                                                                   |
|                                                                             |
 -----------------------------------------------------------------------------

 Reading from existing POTCAR
 LDA part: xc-table for Pade appr. of Perdew
 POSCAR found type information on POSCAR C H F O 
 00/POSCAR found :  4 types and      99 ions
 POSCAR found type information on POSCAR C H F O 
 06/POSCAR found :  4 types and      99 ions
 Jacobian:    33.7825262909836     
 POSCAR found type information on POSCAR C H F O 
 00/POSCAR found :  4 types and      99 ions
 POSCAR found type information on POSCAR C H F O 
 06/POSCAR found :  4 types and      99 ions
 POSCAR, INCAR and KPOINTS ok, starting setup
 FFT: planning ... GRIDC
 FFT: planning ... GRID_SOFT
 FFT: planning ... GRID
 WAVECAR not read
 entering main loop
       N       E                     dE             d eps       ncg     rms          rms(c)
DAV:   1     0.356029788380E+04    0.35603E+04   -0.14460E+05  4200   0.120E+03
DAV:   2    -0.201850060941E+03   -0.37621E+04   -0.35777E+04  5630   0.290E+02
DAV:   3    -0.887529977665E+03   -0.68568E+03   -0.68278E+03  4610   0.130E+02
DAV:   4    -0.912900345106E+03   -0.25370E+02   -0.25227E+02  4590   0.317E+01
DAV:   5    -0.913680164874E+03   -0.77982E+00   -0.77837E+00  5380   0.484E+00    0.439E+01
DAV:   6    -0.880438592056E+03    0.33242E+02   -0.21583E+01  4360   0.933E+00    0.335E+01
DAV:   7    -0.852164114350E+03    0.28274E+02   -0.10693E+02  4280   0.186E+01    0.133E+01
DAV:   8    -0.851873053877E+03    0.29106E+00   -0.65516E+00  4520   0.582E+00    0.669E+00
DAV:   9    -0.851943439862E+03   -0.70386E-01   -0.12275E+00  4380   0.263E+00    0.264E+00
DAV:  10    -0.851814612830E+03    0.12883E+00   -0.43091E-01  4530   0.151E+00    0.111E+00
DAV:  11    -0.851800390587E+03    0.14222E-01   -0.12631E-01  4440   0.806E-01    0.316E-01
DAV:  12    -0.851798816720E+03    0.15739E-02   -0.22318E-02  4410   0.396E-01    0.152E-01
DAV:  13    -0.851798916632E+03   -0.99912E-04   -0.34352E-03  4580   0.143E-01    0.113E-01
DAV:  14    -0.851798905909E+03    0.10723E-04   -0.16309E-03  4440   0.916E-02    0.527E-02
DAV:  15    -0.851798914238E+03   -0.83288E-05   -0.15536E-04  4850   0.382E-02    0.371E-02
DAV:  16    -0.851798948958E+03   -0.34721E-04   -0.17768E-04  4690   0.415E-02    0.243E-02
DAV:  17    -0.851798938034E+03    0.10925E-04   -0.88764E-05  4990   0.294E-02    0.785E-03
DAV:  18    -0.851798940338E+03   -0.23045E-05   -0.21159E-05  4360   0.953E-03    0.582E-03
DAV:  19    -0.851798939970E+03    0.36795E-06   -0.18321E-06  3360   0.506E-03
   1 F= -.85971157E+03 E0= -.85971157E+03  d E =-.859712E+03  mag=    -0.0000
quench:  g(F)=  0.000E+00 g(S)=  0.000E+00 dE (1.order)= 0.000E+00
 bond charge predicted
       N       E                     dE             d eps       ncg     rms          rms(c)
DAV:   1    -0.851798989169E+03   -0.48831E-04   -0.32701E-03  4010   0.109E-01    0.107E-02
DAV:   2    -0.851798993969E+03   -0.47999E-05   -0.67869E-05  4130   0.145E-02    0.791E-03
DAV:   3    -0.851798993525E+03    0.44324E-06   -0.14189E-06  3180   0.266E-03
   2 F= -.85971161E+03 E0= -.85971161E+03  d E =-.414816E-04  mag=     0.0000
quench:  g(F)=  0.000E+00 g(S)=  0.000E+00 dE (1.order)= 0.000E+00
 bond charge predicted
       N       E                     dE             d eps       ncg     rms          rms(c)
DAV:   1    -0.851799062762E+03   -0.68793E-04   -0.11488E-02  4050   0.191E-01    0.198E-02
DAV:   2    -0.851799077697E+03   -0.14935E-04   -0.21382E-04  4000   0.237E-02    0.138E-02
DAV:   3    -0.851799077449E+03    0.24787E-06   -0.32012E-06  3680   0.373E-03
   3 F= -.85971167E+03 E0= -.85971167E+03  d E =-.604240E-04  mag=     0.0000
quench:  g(F)=  0.000E+00 g(S)=  0.000E+00 dE (1.order)= 0.000E+00
 bond charge predicted
       N       E                     dE             d eps       ncg     rms          rms(c)
DAV:   1    -0.851799191194E+03   -0.11350E-03   -0.24244E-02  4060   0.272E-01    0.283E-02
DAV:   2    -0.851799220883E+03   -0.29688E-04   -0.43699E-04  4000   0.331E-02    0.188E-02
DAV:   3    -0.851799221239E+03   -0.35652E-06   -0.61882E-06  4040   0.496E-03
   4 F= -.85971178E+03 E0= -.85971178E+03  d E =-.110011E-03  mag=    -0.0000
quench:  g(F)=  0.000E+00 g(S)=  0.000E+00 dE (1.order)= 0.000E+00
 bond charge predicted
       N       E                     dE             d eps       ncg     rms          rms(c)
DAV:   1    -0.851799356974E+03   -0.13609E-03   -0.43383E-02  4000   0.363E-01    0.382E-02
DAV:   2    -0.851799411058E+03   -0.54084E-04   -0.78422E-04  4000   0.444E-02    0.256E-02
DAV:   3    -0.851799411059E+03   -0.95315E-09   -0.11816E-05  4490   0.679E-03    0.195E-02
DAV:   4    -0.851799422291E+03   -0.11232E-04   -0.15925E-05  3780   0.869E-03    0.456E-03
DAV:   5    -0.851799423703E+03   -0.14126E-05   -0.42780E-06  3420   0.333E-03    0.320E-03
DAV:   6    -0.851799423700E+03    0.35288E-08   -0.58475E-07  2520   0.184E-03
   5 F= -.85971194E+03 E0= -.85971194E+03  d E =-.157934E-03  mag=     0.0000
quench:  g(F)=  0.000E+00 g(S)=  0.000E+00 dE (1.order)= 0.000E+00
 bond charge predicted
       N       E                     dE             d eps       ncg     rms          rms(c)
DAV:   1    -0.851799571121E+03   -0.14742E-03   -0.68080E-02  4000   0.448E-01    0.457E-02
DAV:   2    -0.851799668991E+03   -0.97870E-04   -0.13078E-03  3960   0.560E-02    0.292E-02
DAV:   3    -0.851799666763E+03    0.22279E-05   -0.17867E-05  4620   0.821E-03    0.225E-02
DAV:   4    -0.851799679093E+03   -0.12330E-04   -0.26856E-05  3770   0.111E-02    0.534E-03
DAV:   5    -0.851799680928E+03   -0.18348E-05   -0.68499E-06  4020   0.406E-03    0.393E-03
DAV:   6    -0.851799680975E+03   -0.47221E-07   -0.83395E-07  2600   0.239E-03
   6 F= -.85971214E+03 E0= -.85971214E+03  d E =-.199875E-03  mag=     0.0000
quench:  g(F)=  0.000E+00 g(S)=  0.000E+00 dE (1.order)= 0.000E+00
 bond charge predicted
       N       E                     dE             d eps       ncg     rms          rms(c)
DAV:   1    -0.851799845669E+03   -0.16474E-03   -0.99446E-02  3960   0.538E-01    0.548E-02
DAV:   2    -0.851799990073E+03   -0.14440E-03   -0.19185E-03  3960   0.672E-02    0.347E-02
DAV:   3    -0.851799987574E+03    0.24993E-05   -0.25258E-05  4620   0.965E-03    0.269E-02
DAV:   4    -0.851800006142E+03   -0.18568E-04   -0.41246E-05  3780   0.138E-02    0.603E-03
DAV:   5    -0.851800008282E+03   -0.21403E-05   -0.10160E-05  4280   0.499E-03    0.480E-03
DAV:   6    -0.851800008306E+03   -0.24542E-07   -0.11167E-06  2660   0.273E-03
   7 F= -.85971239E+03 E0= -.85971239E+03  d E =-.252613E-03  mag=    -0.0000
quench:  g(F)=  0.000E+00 g(S)=  0.000E+00 dE (1.order)= 0.000E+00
 bond charge predicted
       N       E                     dE             d eps       ncg     rms          rms(c)
DAV:   1    -0.851800173542E+03   -0.16526E-03   -0.16778E-01  3900   0.693E-01    0.708E-02
DAV:   2    -0.851800415679E+03   -0.24214E-03   -0.32494E-03  3940   0.863E-02    0.442E-02
DAV:   3    -0.851800414483E+03    0.11957E-05   -0.40599E-05  4620   0.121E-02    0.342E-02
DAV:   4    -0.851800449088E+03   -0.34605E-04   -0.69695E-05  3820   0.178E-02    0.746E-03
DAV:   5    -0.851800452242E+03   -0.31542E-05   -0.16614E-05  4340   0.633E-03    0.636E-03
DAV:   6    -0.851800452173E+03    0.69449E-07   -0.21433E-06  3160   0.355E-03
   8 F= -.85971274E+03 E0= -.85971274E+03  d E =-.343599E-03  mag=    -0.0000
quench:  g(F)=  0.000E+00 g(S)=  0.000E+00 dE (1.order)= 0.000E+00
 bond charge predicted
       N       E                     dE             d eps       ncg     rms          rms(c)
DAV:   1    -0.851800533030E+03   -0.80788E-04   -0.28435E-01  3920   0.910E-01    0.923E-02
DAV:   2    -0.851800945507E+03   -0.41248E-03   -0.55837E-03  3910   0.114E-01    0.569E-02
DAV:   3    -0.851800944270E+03    0.12369E-05   -0.68038E-05  4640   0.157E-02    0.441E-02
DAV:   4    -0.851801010380E+03   -0.66110E-04   -0.11013E-04  3960   0.224E-02    0.959E-03
DAV:   5    -0.851801016743E+03   -0.63625E-05   -0.27171E-05  4360   0.809E-03    0.805E-03
DAV:   6    -0.851801016592E+03    0.15113E-06   -0.33134E-06  3380   0.440E-03
   9 F= -.85971317E+03 E0= -.85971317E+03  d E =-.435622E-03  mag=    -0.0000
quench:  g(F)=  0.000E+00 g(S)=  0.000E+00 dE (1.order)= 0.000E+00
 bond charge predicted
       N       E                     dE             d eps       ncg     rms          rms(c)
DAV:   1    -0.851800921054E+03    0.95689E-04   -0.44844E-01  3920   0.116E+00    0.116E-01
DAV:   2    -0.851801597697E+03   -0.67664E-03   -0.89321E-03  3880   0.145E-01    0.712E-02
DAV:   3    -0.851801586916E+03    0.10781E-04   -0.10805E-04  4640   0.198E-02    0.552E-02
DAV:   4    -0.851801687581E+03   -0.10066E-03   -0.16831E-04  4300   0.274E-02    0.121E-02
DAV:   5    -0.851801697573E+03   -0.99919E-05   -0.40788E-05  4360   0.986E-03    0.970E-03
DAV:   6    -0.851801697659E+03   -0.86744E-07   -0.48825E-06  3620   0.507E-03
  10 F= -.85971369E+03 E0= -.85971369E+03  d E =-.521612E-03  mag=    -0.0000
quench:  g(F)=  0.000E+00 g(S)=  0.000E+00 dE (1.order)= 0.000E+00
 bond charge predicted
       N       E                     dE             d eps       ncg     rms          rms(c)
DAV:   1    -0.851801235192E+03    0.46238E-03   -0.67575E-01  3920   0.146E+00    0.143E-01
DAV:   2    -0.851802306008E+03   -0.10708E-02   -0.13715E-02  3900   0.184E-01    0.876E-02
DAV:   3    -0.851802285498E+03    0.20510E-04   -0.16461E-04  4640   0.250E-02    0.678E-02
DAV:   4    -0.851802419449E+03   -0.13395E-03   -0.25647E-04  4380   0.345E-02    0.149E-02
DAV:   5    -0.851802432883E+03   -0.13434E-04   -0.60515E-05  4380   0.124E-02    0.120E-02
DAV:   6    -0.851802432926E+03   -0.42659E-07   -0.79007E-06  3680   0.635E-03
  11 F= -.85971423E+03 E0= -.85971423E+03  d E =-.540160E-03  mag=    -0.0000
quench:  g(F)=  0.000E+00 g(S)=  0.000E+00 dE (1.order)= 0.000E+00
 bond charge predicted
       N       E                     dE             d eps       ncg     rms          rms(c)
DAV:   1    -0.851801278056E+03    0.11548E-02   -0.10023E+00  3920   0.184E+00    0.176E-01
DAV:   2    -0.851802946809E+03   -0.16688E-02   -0.20902E-02  3900   0.236E-01    0.108E-01
DAV:   3    -0.851802915419E+03    0.31390E-04   -0.25315E-04  4620   0.321E-02    0.838E-02
DAV:   4    -0.851803091008E+03   -0.17559E-03   -0.38725E-04  4460   0.437E-02    0.188E-02
DAV:   5    -0.851803110311E+03   -0.19303E-04   -0.89798E-05  4440   0.158E-02    0.149E-02
DAV:   6    -0.851803110302E+03    0.94296E-08   -0.13596E-05  3700   0.824E-03    0.713E-03
DAV:   7    -0.851803111423E+03   -0.11213E-05   -0.37706E-06  3820   0.394E-03    0.399E-03
DAV:   8    -0.851803111276E+03    0.14723E-06   -0.15341E-06  3120   0.322E-03
  12 F= -.85971469E+03 E0= -.85971469E+03  d E =-.453677E-03  mag=    -0.0000
quench:  g(F)=  0.000E+00 g(S)=  0.000E+00 dE (1.order)= 0.000E+00
 bond charge predicted
       N       E                     dE             d eps       ncg     rms          rms(c)
DAV:   1    -0.851801033529E+03    0.20779E-02   -0.13605E+00  3920   0.222E+00    0.208E-01
DAV:   2    -0.851803328834E+03   -0.22953E-02   -0.28678E-02  3940   0.290E-01    0.132E-01
DAV:   3    -0.851803270173E+03    0.58660E-04   -0.38783E-04  4640   0.412E-02    0.102E-01
DAV:   4    -0.851803459173E+03   -0.18900E-03   -0.53372E-04  4460   0.529E-02    0.252E-02
DAV:   5    -0.851803493310E+03   -0.34137E-04   -0.13089E-04  4400   0.197E-02    0.179E-02
DAV:   6    -0.851803493305E+03    0.53697E-08   -0.20258E-05  3840   0.101E-02    0.845E-03
DAV:   7    -0.851803494900E+03   -0.15950E-05   -0.50521E-06  4240   0.446E-03    0.475E-03
DAV:   8    -0.851803494676E+03    0.22406E-06   -0.15477E-06  3200   0.338E-03
  13 F= -.85971482E+03 E0= -.85971482E+03  d E =-.136802E-03  mag=    -0.0000
quench:  g(F)=  0.000E+00 g(S)=  0.000E+00 dE (1.order)= 0.000E+00
 bond charge predicted
       N       E                     dE             d eps       ncg     rms          rms(c)
DAV:   1    -0.851799625252E+03    0.38696E-02   -0.18332E+00  3900   0.272E+00    0.245E-01
DAV:   2    -0.851802824771E+03   -0.31995E-02   -0.39790E-02  3960   0.363E-01    0.167E-01
DAV:   3    -0.851802692743E+03    0.13203E-03   -0.66159E-04  4760   0.552E-02    0.128E-01
DAV:   4    -0.851802867361E+03   -0.17462E-03   -0.80392E-04  4340   0.677E-02    0.363E-02
DAV:   5    -0.851802918963E+03   -0.51603E-04   -0.21153E-04  4380   0.265E-02    0.222E-02
DAV:   6    -0.851802920294E+03   -0.13306E-05   -0.32576E-05  4160   0.124E-02    0.996E-03
DAV:   7    -0.851802922133E+03   -0.18388E-05   -0.53193E-06  4340   0.458E-03    0.612E-03
DAV:   8    -0.851802921920E+03    0.21285E-06   -0.18384E-06  3040   0.354E-03
  14 F= -.85971397E+03 E0= -.85971397E+03  d E =0.849618E-03  mag=    -0.0000
quench:  g(F)=  0.000E+00 g(S)=  0.000E+00 dE (1.order)= 0.000E+00
 bond charge predicted
       N       E                     dE             d eps       ncg     rms          rms(c)
DAV:   1    -0.851803895093E+03   -0.97296E-03   -0.59629E-02  3840   0.570E-01    0.554E-02
DAV:   2    -0.851804005184E+03   -0.11009E-03   -0.15620E-03  4700   0.834E-02    0.495E-02
DAV:   3    -0.851803976280E+03    0.28904E-04   -0.80461E-05  5120   0.186E-02    0.372E-02
DAV:   4    -0.851803953354E+03    0.22927E-04   -0.52758E-05  4160   0.173E-02    0.172E-02
DAV:   5    -0.851803951976E+03    0.13778E-05   -0.17010E-05  4300   0.871E-03    0.651E-03
DAV:   6    -0.851803952194E+03   -0.21853E-06   -0.14409E-06  2440   0.284E-03
  15 F= -.85971501E+03 E0= -.85971501E+03  d E =-.103564E-02  mag=     0.0000
quench:  g(F)=  0.000E+00 g(S)=  0.000E+00 dE (1.order)= 0.000E+00
 bond charge predicted
       N       E                     dE             d eps       ncg     rms          rms(c)
DAV:   1    -0.851803955676E+03   -0.37002E-05   -0.17979E-04  3960   0.298E-02    0.327E-03
DAV:   2    -0.851803956029E+03   -0.35321E-06   -0.46162E-06  3900   0.431E-03
  16 F= -.85971501E+03 E0= -.85971501E+03  d E =-.278454E-05  mag=    -0.0000
quench:  g(F)=  0.000E+00 g(S)=  0.000E+00 dE (1.order)= 0.000E+00
 bond charge predicted
       N       E                     dE             d eps       ncg     rms          rms(c)
DAV:   1    -0.851803958896E+03   -0.32197E-05   -0.68945E-04  3920   0.581E-02    0.616E-03
DAV:   2    -0.851803960131E+03   -0.12353E-05   -0.16593E-05  4240   0.809E-03    0.488E-03
DAV:   3    -0.851803960048E+03    0.82648E-07   -0.32032E-07  2360   0.145E-03
  17 F= -.85971501E+03 E0= -.85971501E+03  d E =-.192242E-05  mag=    -0.0000
quench:  g(F)=  0.000E+00 g(S)=  0.000E+00 dE (1.order)= 0.000E+00
 bond charge predicted
       N       E                     dE             d eps       ncg     rms          rms(c)
DAV:   1    -0.851803958335E+03    0.17959E-05   -0.14330E-03  3900   0.831E-02    0.752E-03
DAV:   2    -0.851803961123E+03   -0.27878E-05   -0.32864E-05  4100   0.112E-02    0.556E-03
DAV:   3    -0.851803961099E+03    0.24382E-07   -0.44904E-07  2680   0.171E-03
  18 F= -.85971501E+03 E0= -.85971501E+03  d E =0.208304E-05  mag=    -0.0000
quench:  g(F)=  0.000E+00 g(S)=  0.000E+00 dE (1.order)= 0.000E+00
 bond charge predicted
       N       E                     dE             d eps       ncg     rms          rms(c)
DAV:   1    -0.851803953373E+03    0.77502E-05   -0.24331E-03  3900   0.107E-01    0.959E-03
DAV:   2    -0.851803958129E+03   -0.47558E-05   -0.55779E-05  4060   0.144E-02    0.693E-03
DAV:   3    -0.851803958090E+03    0.38162E-07   -0.71592E-07  3020   0.214E-03
  19 F= -.85971501E+03 E0= -.85971501E+03  d E =0.694471E-05  mag=     0.0000
quench:  g(F)=  0.000E+00 g(S)=  0.000E+00 dE (1.order)= 0.000E+00
 bond charge predicted
       N       E                     dE             d eps       ncg     rms          rms(c)
DAV:   1    -0.851803944230E+03    0.13898E-04   -0.35473E-03  3880   0.129E-01    0.115E-02
DAV:   2    -0.851803951037E+03   -0.68061E-05   -0.80369E-05  4020   0.172E-02    0.828E-03
DAV:   3    -0.851803951030E+03    0.65993E-08   -0.10206E-06  3100   0.254E-03
  20 F= -.85971499E+03 E0= -.85971499E+03  d E =0.116013E-04  mag=     0.0000
quench:  g(F)=  0.000E+00 g(S)=  0.000E+00 dE (1.order)= 0.000E+00
 bond charge predicted
       N       E                     dE             d eps       ncg     rms          rms(c)
DAV:   1    -0.851803935009E+03    0.16027E-04   -0.47760E-03  3880   0.150E-01    0.133E-02
DAV:   2    -0.851803944034E+03   -0.90248E-05   -0.10685E-04  3960   0.198E-02    0.961E-03
DAV:   3    -0.851803943997E+03    0.37318E-07   -0.14432E-06  3280   0.293E-03
  21 F= -.85971498E+03 E0= -.85971498E+03  d E =0.122161E-04  mag=     0.0000
quench:  g(F)=  0.000E+00 g(S)=  0.000E+00 dE (1.order)= 0.000E+00
 bond charge predicted
       N       E                     dE             d eps       ncg     rms          rms(c)
DAV:   1    -0.851803918519E+03    0.25515E-04   -0.77710E-03  3880   0.191E-01    0.169E-02
DAV:   2    -0.851803933198E+03   -0.14678E-04   -0.17401E-04  3840   0.252E-02    0.121E-02
DAV:   3    -0.851803933092E+03    0.10631E-06   -0.24400E-06  3640   0.371E-03
  22 F= -.85971496E+03 E0= -.85971496E+03  d E =0.180148E-04  mag=     0.0000
quench:  g(F)=  0.000E+00 g(S)=  0.000E+00 dE (1.order)= 0.000E+00
 bond charge predicted
       N       E                     dE             d eps       ncg     rms          rms(c)
DAV:   1    -0.851803892582E+03    0.40615E-04   -0.12286E-02  3880   0.239E-01    0.212E-02
DAV:   2    -0.851803915664E+03   -0.23081E-04   -0.27447E-04  3840   0.315E-02    0.151E-02
DAV:   3    -0.851803915501E+03    0.16300E-06   -0.39257E-06  4220   0.457E-03
  23 F= -.85971494E+03 E0= -.85971494E+03  d E =0.272470E-04  mag=     0.0000
quench:  g(F)=  0.000E+00 g(S)=  0.000E+00 dE (1.order)= 0.000E+00
 bond charge predicted
       N       E                     dE             d eps       ncg     rms          rms(c)
DAV:   1    -0.851803851721E+03    0.63943E-04   -0.18347E-02  3880   0.292E-01    0.259E-02
DAV:   2    -0.851803885496E+03   -0.33775E-04   -0.40532E-04  3840   0.384E-02    0.186E-02
DAV:   3    -0.851803885294E+03    0.20224E-06   -0.57867E-06  4560   0.553E-03
  24 F= -.85971489E+03 E0= -.85971489E+03  d E =0.438266E-04  mag=     0.0000
quench:  g(F)=  0.000E+00 g(S)=  0.000E+00 dE (1.order)= 0.000E+00
 bond charge predicted
       N       E                     dE             d eps       ncg     rms          rms(c)
DAV:   1    -0.851803810853E+03    0.74643E-04   -0.26457E-02  3880   0.351E-01    0.314E-02
DAV:   2    -0.851803858393E+03   -0.47539E-04   -0.57744E-04  3840   0.461E-02    0.225E-02
DAV:   3    -0.851803858208E+03    0.18437E-06   -0.85046E-06  4820   0.672E-03
  25 F= -.85971485E+03 E0= -.85971485E+03  d E =0.459518E-04  mag=    -0.0000
quench:  g(F)=  0.000E+00 g(S)=  0.000E+00 dE (1.order)= 0.000E+00
 bond charge predicted
       N       E                     dE             d eps       ncg     rms          rms(c)
DAV:   1    -0.851803762885E+03    0.95507E-04   -0.38546E-02  3880   0.423E-01    0.381E-02
DAV:   2    -0.851803830947E+03   -0.68062E-04   -0.83650E-04  3840   0.557E-02    0.274E-02
DAV:   3    -0.851803830797E+03    0.14978E-06   -0.12543E-05  4840   0.816E-03    0.209E-02
DAV:   4    -0.851803838348E+03   -0.75504E-05   -0.15701E-05  3680   0.976E-03    0.445E-03
DAV:   5    -0.851803838743E+03   -0.39525E-06   -0.41318E-06  3920   0.395E-03
  26 F= -.85971480E+03 E0= -.85971480E+03  d E =0.447517E-04  mag=    -0.0000
quench:  g(F)=  0.000E+00 g(S)=  0.000E+00 dE (1.order)= 0.000E+00
 bond charge predicted
       N       E                     dE             d eps       ncg     rms          rms(c)
DAV:   1    -0.851803714992E+03    0.12336E-03   -0.57561E-02  3940   0.516E-01    0.447E-02
DAV:   2    -0.851803823680E+03   -0.10869E-03   -0.13157E-03  3840   0.701E-02    0.313E-02
DAV:   3    -0.851803820954E+03    0.27257E-05   -0.19814E-05  4820   0.103E-02    0.240E-02
DAV:   4    -0.851803828585E+03   -0.76308E-05   -0.26494E-05  3720   0.124E-02    0.576E-03
DAV:   5    -0.851803829296E+03   -0.71090E-06   -0.64117E-06  4240   0.492E-03
  27 F= -.85971476E+03 E0= -.85971476E+03  d E =0.437537E-04  mag=    -0.0000
quench:  g(F)=  0.000E+00 g(S)=  0.000E+00 dE (1.order)= 0.000E+00
 bond charge predicted
       N       E                     dE             d eps       ncg     rms          rms(c)
DAV:   1    -0.851803667546E+03    0.16104E-03   -0.84467E-02  3940   0.623E-01    0.542E-02
DAV:   2    -0.851803827029E+03   -0.15948E-03   -0.19326E-03  3840   0.847E-02    0.376E-02
DAV:   3    -0.851803823180E+03    0.38488E-05   -0.28818E-05  4760   0.124E-02    0.288E-02
DAV:   4    -0.851803834596E+03   -0.11416E-04   -0.37579E-05  3820   0.149E-02    0.693E-03
DAV:   5    -0.851803835808E+03   -0.12114E-05   -0.89694E-06  4260   0.582E-03    0.418E-03
DAV:   6    -0.851803835755E+03    0.52343E-07   -0.14577E-06  2800   0.282E-03
  28 F= -.85971472E+03 E0= -.85971472E+03  d E =0.425172E-04  mag=    -0.0000
quench:  g(F)=  0.000E+00 g(S)=  0.000E+00 dE (1.order)= 0.000E+00
 bond charge predicted
       N       E                     dE             d eps       ncg     rms          rms(c)
DAV:   1    -0.851803630532E+03    0.20528E-03   -0.11661E-01  3920   0.729E-01    0.635E-02
DAV:   2    -0.851803845059E+03   -0.21453E-03   -0.26275E-03  3840   0.985E-02    0.442E-02
DAV:   3    -0.851803838469E+03    0.65899E-05   -0.40617E-05  4760   0.147E-02    0.337E-02
DAV:   4    -0.851803853578E+03   -0.15109E-04   -0.56255E-05  4200   0.178E-02    0.802E-03
DAV:   5    -0.851803854926E+03   -0.13477E-05   -0.12323E-05  4280   0.694E-03    0.486E-03
DAV:   6    -0.851803854938E+03   -0.11911E-07   -0.19832E-06  3020   0.318E-03
  29 F= -.85971467E+03 E0= -.85971467E+03  d E =0.495729E-04  mag=     0.0000
quench:  g(F)=  0.000E+00 g(S)=  0.000E+00 dE (1.order)= 0.000E+00
 bond charge predicted
       N       E                     dE             d eps       ncg     rms          rms(c)
DAV:   1    -0.851803597827E+03    0.25710E-03   -0.16367E-01  3920   0.862E-01    0.754E-02
DAV:   2    -0.851803891570E+03   -0.29374E-03   -0.36443E-03  3860   0.116E-01    0.528E-02
DAV:   3    -0.851803882326E+03    0.92442E-05   -0.57534E-05  4720   0.175E-02    0.401E-02
DAV:   4    -0.851803904843E+03   -0.22517E-04   -0.82102E-05  4300   0.214E-02    0.955E-03
DAV:   5    -0.851803906389E+03   -0.15453E-05   -0.17826E-05  4260   0.839E-03    0.574E-03
DAV:   6    -0.851803906524E+03   -0.13502E-06   -0.28628E-06  3400   0.379E-03
  30 F= -.85971463E+03 E0= -.85971463E+03  d E =0.373323E-04  mag=    -0.0000
quench:  g(F)=  0.000E+00 g(S)=  0.000E+00 dE (1.order)= 0.000E+00
 bond charge predicted
       N       E                     dE             d eps       ncg     rms          rms(c)
DAV:   1    -0.851803522751E+03    0.38364E-03   -0.24194E-01  3920   0.105E+00    0.917E-02
DAV:   2    -0.851803958009E+03   -0.43526E-03   -0.54097E-03  3860   0.141E-01    0.641E-02
DAV:   3    -0.851803943226E+03    0.14783E-04   -0.84771E-05  4760   0.212E-02    0.487E-02
DAV:   4    -0.851803978207E+03   -0.34982E-04   -0.11998E-04  4400   0.260E-02    0.117E-02
DAV:   5    -0.851803980985E+03   -0.27779E-05   -0.25485E-05  4260   0.100E-02    0.708E-03
DAV:   6    -0.851803981054E+03   -0.69122E-07   -0.42074E-06  3620   0.469E-03
  31 F= -.85971460E+03 E0= -.85971460E+03  d E =0.304123E-04  mag=    -0.0000
quench:  g(F)=  0.000E+00 g(S)=  0.000E+00 dE (1.order)= 0.000E+00
 bond charge predicted
       N       E                     dE             d eps       ncg     rms          rms(c)
DAV:   1    -0.851803370443E+03    0.61054E-03   -0.36238E-01  3940   0.128E+00    0.112E-01
DAV:   2    -0.851804033184E+03   -0.66274E-03   -0.81576E-03  3880   0.173E-01    0.776E-02
DAV:   3    -0.851804010198E+03    0.22986E-04   -0.12288E-04  4760   0.256E-02    0.591E-02
DAV:   4    -0.851804060212E+03   -0.50014E-04   -0.17244E-04  4420   0.316E-02    0.143E-02
DAV:   5    -0.851804065207E+03   -0.49956E-05   -0.36913E-05  4300   0.120E-02    0.871E-03
DAV:   6    -0.851804065239E+03   -0.31352E-07   -0.61606E-06  3760   0.595E-03
  32 F= -.85971456E+03 E0= -.85971456E+03  d E =0.343505E-04  mag=     0.0000
quench:  g(F)=  0.000E+00 g(S)=  0.000E+00 dE (1.order)= 0.000E+00
 bond charge predicted
       N       E                     dE             d eps       ncg     rms          rms(c)
DAV:   1    -0.851803080864E+03    0.98434E-03   -0.53086E-01  3940   0.156E+00    0.135E-01
DAV:   2    -0.851804054008E+03   -0.97314E-03   -0.11937E-02  3900   0.210E-01    0.952E-02
DAV:   3    -0.851804018092E+03    0.35916E-04   -0.18530E-04  4780   0.314E-02    0.726E-02
DAV:   4    -0.851804081934E+03   -0.63842E-04   -0.25897E-04  4440   0.391E-02    0.179E-02
DAV:   5    -0.851804090321E+03   -0.83874E-05   -0.55964E-05  4280   0.147E-02    0.111E-02
DAV:   6    -0.851804090326E+03   -0.53478E-08   -0.98640E-06  3720   0.781E-03
  33 F= -.85971445E+03 E0= -.85971445E+03  d E =0.109866E-03  mag=    -0.0000
quench:  g(F)=  0.000E+00 g(S)=  0.000E+00 dE (1.order)= 0.000E+00
 bond charge predicted
       N       E                     dE             d eps       ncg     rms          rms(c)
DAV:   1    -0.851802615782E+03    0.14745E-02   -0.74801E-01  3920   0.186E+00    0.162E-01
DAV:   2    -0.851803960712E+03   -0.13449E-02   -0.16648E-02  3900   0.250E-01    0.117E-01
DAV:   3    -0.851803903531E+03    0.57181E-04   -0.28661E-04  4720   0.389E-02    0.889E-02
DAV:   4    -0.851803978474E+03   -0.74943E-04   -0.38548E-04  4460   0.473E-02    0.226E-02
DAV:   5    -0.851803991610E+03   -0.13136E-04   -0.85802E-05  4320   0.181E-02    0.136E-02
DAV:   6    -0.851803991725E+03   -0.11489E-06   -0.14628E-05  3840   0.926E-03    0.616E-03
DAV:   7    -0.851803992769E+03   -0.10441E-05   -0.32961E-06  3960   0.372E-03    0.346E-03
DAV:   8    -0.851803992741E+03    0.28187E-07   -0.58360E-07  2600   0.274E-03
  34 F= -.85971422E+03 E0= -.85971422E+03  d E =0.231078E-03  mag=    -0.0000
quench:  g(F)=  0.000E+00 g(S)=  0.000E+00 dE (1.order)= 0.000E+00
 bond charge predicted
       N       E                     dE             d eps       ncg     rms          rms(c)
DAV:   1    -0.851801514127E+03    0.24786E-02   -0.10941E+00  3920   0.226E+00    0.197E-01
DAV:   2    -0.851803489145E+03   -0.19750E-02   -0.24479E-02  3920   0.307E-01    0.147E-01
DAV:   3    -0.851803373378E+03    0.11577E-03   -0.47707E-04  4880   0.494E-02    0.113E-01
DAV:   4    -0.851803434093E+03   -0.60715E-04   -0.59988E-04  4360   0.593E-02    0.314E-02
DAV:   5    -0.851803460525E+03   -0.26433E-04   -0.14571E-04  4280   0.231E-02    0.182E-02
DAV:   6    -0.851803460798E+03   -0.27306E-06   -0.23936E-05  4120   0.115E-02    0.817E-03
DAV:   7    -0.851803462522E+03   -0.17240E-05   -0.48811E-06  4200   0.439E-03    0.470E-03
DAV:   8    -0.851803462400E+03    0.12192E-06   -0.95467E-07  2820   0.331E-03
  35 F= -.85971355E+03 E0= -.85971355E+03  d E =0.676414E-03  mag=     0.0000
quench:  g(F)=  0.000E+00 g(S)=  0.000E+00 dE (1.order)= 0.000E+00
 bond charge predicted
       N       E                     dE             d eps       ncg     rms          rms(c)
DAV:   1    -0.851803997412E+03   -0.53489E-03   -0.26744E-02  3840   0.380E-01    0.376E-02
DAV:   2    -0.851804048185E+03   -0.50772E-04   -0.71791E-04  4640   0.557E-02    0.345E-02
DAV:   3    -0.851804035230E+03    0.12954E-04   -0.35143E-05  4980   0.122E-02    0.269E-02
DAV:   4    -0.851804022385E+03    0.12845E-04   -0.31062E-05  4240   0.133E-02    0.114E-02
DAV:   5    -0.851804021899E+03    0.48595E-06   -0.86952E-06  4120   0.608E-03
  36 F= -.85971411E+03 E0= -.85971411E+03  d E =-.566666E-03  mag=     0.0000
quench:  g(F)=  0.000E+00 g(S)=  0.000E+00 dE (1.order)= 0.000E+00
 bond charge predicted
       N       E                     dE             d eps       ncg     rms          rms(c)
DAV:   1    -0.851803544549E+03    0.47784E-03   -0.29661E-02  3840   0.401E-01    0.388E-02
DAV:   2    -0.851803602998E+03   -0.58449E-04   -0.78684E-04  4620   0.588E-02    0.349E-02
DAV:   3    -0.851803591502E+03    0.11495E-04   -0.35103E-05  5000   0.124E-02    0.275E-02
DAV:   4    -0.851803580346E+03    0.11157E-04   -0.33864E-05  4280   0.139E-02    0.112E-02
DAV:   5    -0.851803580328E+03    0.17877E-07   -0.87330E-06  4100   0.606E-03
  37 F= -.85971368E+03 E0= -.85971368E+03  d E =0.436672E-03  mag=    -0.0000
quench:  g(F)=  0.000E+00 g(S)=  0.000E+00 dE (1.order)= 0.000E+00
 bond charge predicted
       N       E                     dE             d eps       ncg     rms          rms(c)
DAV:   1    -0.851803762474E+03   -0.18213E-03   -0.12877E-03  3840   0.831E-02    0.837E-03
DAV:   2    -0.851803764719E+03   -0.22452E-05   -0.36097E-05  4740   0.124E-02    0.788E-03
DAV:   3    -0.851803763912E+03    0.80709E-06   -0.15378E-06  2660   0.281E-03
  38 F= -.85971386E+03 E0= -.85971386E+03  d E =-.182294E-03  mag=    -0.0000
quench:  g(F)=  0.000E+00 g(S)=  0.000E+00 dE (1.order)= 0.000E+00
 bond charge predicted
       N       E                     dE             d eps       ncg     rms          rms(c)
DAV:   1    -0.851803963699E+03   -0.19898E-03   -0.39611E-03  3840   0.146E-01    0.160E-02
DAV:   2    -0.851803970248E+03   -0.65497E-05   -0.98277E-05  4740   0.206E-02    0.145E-02
DAV:   3    -0.851803967813E+03    0.24357E-05   -0.53100E-06  4360   0.498E-03    0.107E-02
DAV:   4    -0.851803966144E+03    0.16690E-05   -0.51990E-06  3930   0.549E-03    0.411E-03
DAV:   5    -0.851803966111E+03    0.32793E-07   -0.12607E-06  2500   0.236E-03
  39 F= -.85971406E+03 E0= -.85971406E+03  d E =-.199764E-03  mag=     0.0000
quench:  g(F)=  0.000E+00 g(S)=  0.000E+00 dE (1.order)= 0.000E+00
 bond charge predicted
       N       E                     dE             d eps       ncg     rms          rms(c)
DAV:   1    -0.851803997271E+03   -0.31128E-04   -0.58996E-03  3840   0.178E-01    0.175E-02
DAV:   2    -0.851804008827E+03   -0.11556E-04   -0.15687E-04  4640   0.261E-02    0.158E-02
DAV:   3    -0.851804006264E+03    0.25636E-05   -0.75173E-06  4760   0.567E-03    0.124E-02
DAV:   4    -0.851804003889E+03    0.23745E-05   -0.65657E-06  4000   0.608E-03    0.529E-03
DAV:   5    -0.851804003837E+03    0.51907E-07   -0.16461E-06  2660   0.274E-03
  40 F= -.85971409E+03 E0= -.85971409E+03  d E =-.344353E-04  mag=     0.0000
quench:  g(F)=  0.000E+00 g(S)=  0.000E+00 dE (1.order)= 0.000E+00
 bond charge predicted
       N       E                     dE             d eps       ncg     rms          rms(c)
DAV:   1    -0.851804005269E+03   -0.13796E-05   -0.69114E-06  3680   0.598E-03    0.128E-03
DAV:   2    -0.851804005272E+03   -0.37035E-08   -0.22191E-07  2100   0.106E-03
  41 F= -.85971409E+03 E0= -.85971409E+03  d E =-.142795E-05  mag=    -0.0000
quench:  g(F)=  0.000E+00 g(S)=  0.000E+00 dE (1.order)= 0.000E+00
 bond charge predicted
       N       E                     dE             d eps       ncg     rms          rms(c)
DAV:   1    -0.851804007788E+03   -0.25192E-05   -0.23603E-05  3760   0.110E-02    0.128E-03
DAV:   2    -0.851804007820E+03   -0.32524E-07   -0.52184E-07  2060   0.158E-03
  42 F= -.85971410E+03 E0= -.85971410E+03  d E =-.251867E-05  mag=     0.0000
quench:  g(F)=  0.000E+00 g(S)=  0.000E+00 dE (1.order)= 0.000E+00
 bond charge predicted
       N       E                     dE             d eps       ncg     rms          rms(c)
DAV:   1    -0.851804010540E+03   -0.27520E-05   -0.52004E-05  3840   0.163E-02    0.208E-03
DAV:   2    -0.851804010593E+03   -0.53704E-07   -0.11224E-06  2350   0.230E-03
  43 F= -.85971410E+03 E0= -.85971410E+03  d E =-.271040E-05  mag=     0.0000
quench:  g(F)=  0.000E+00 g(S)=  0.000E+00 dE (1.order)= 0.000E+00
 bond charge predicted
       N       E                     dE             d eps       ncg     rms          rms(c)
DAV:   1    -0.851804012669E+03   -0.21292E-05   -0.86841E-05  3840   0.209E-02    0.285E-03
DAV:   2    -0.851804012761E+03   -0.92419E-07   -0.18482E-06  2940   0.291E-03
  44 F= -.85971410E+03 E0= -.85971410E+03  d E =-.205113E-05  mag=     0.0000
quench:  g(F)=  0.000E+00 g(S)=  0.000E+00 dE (1.order)= 0.000E+00
 bond charge predicted
       N       E                     dE             d eps       ncg     rms          rms(c)
DAV:   1    -0.851804013538E+03   -0.86855E-06   -0.12615E-04  3860   0.250E-02    0.351E-03
DAV:   2    -0.851804013676E+03   -0.13879E-06   -0.26870E-06  3580   0.342E-03
  45 F= -.85971410E+03 E0= -.85971410E+03  d E =-.727297E-06  mag=     0.0000
quench:  g(F)=  0.000E+00 g(S)=  0.000E+00 dE (1.order)= 0.000E+00
 bond charge predicted
       N       E                     dE             d eps       ncg     rms          rms(c)
DAV:   1    -0.851804012947E+03    0.59055E-06   -0.16886E-04  3880   0.287E-02    0.412E-03
DAV:   2    -0.851804013119E+03   -0.17164E-06   -0.34797E-06  3600   0.384E-03
  46 F= -.85971410E+03 E0= -.85971410E+03  d E =0.834243E-06  mag=    -0.0000
quench:  g(F)=  0.000E+00 g(S)=  0.000E+00 dE (1.order)= 0.000E+00
 bond charge predicted
       N       E                     dE             d eps       ncg     rms          rms(c)
DAV:   1    -0.851804010720E+03    0.22267E-05   -0.26595E-04  3880   0.356E-02    0.492E-03
DAV:   2    -0.851804010998E+03   -0.27811E-06   -0.54179E-06  4040   0.471E-03
  47 F= -.85971410E+03 E0= -.85971410E+03  d E =0.261454E-05  mag=     0.0000
quench:  g(F)=  0.000E+00 g(S)=  0.000E+00 dE (1.order)= 0.000E+00
 bond charge predicted
       N       E                     dE             d eps       ncg     rms          rms(c)
DAV:   1    -0.851804007480E+03    0.32405E-05   -0.41229E-04  3880   0.438E-02    0.602E-03
DAV:   2    -0.851804007878E+03   -0.39793E-06   -0.82513E-06  3980   0.576E-03
  48 F= -.85971409E+03 E0= -.85971409E+03  d E =0.389108E-05  mag=     0.0000
quench:  g(F)=  0.000E+00 g(S)=  0.000E+00 dE (1.order)= 0.000E+00
 bond charge predicted
       N       E                     dE             d eps       ncg     rms          rms(c)
DAV:   1    -0.851804004021E+03    0.34588E-05   -0.63729E-04  3880   0.540E-02    0.738E-03
DAV:   2    -0.851804004594E+03   -0.57259E-06   -0.12587E-05  3880   0.707E-03    0.589E-03
DAV:   3    -0.851804004674E+03   -0.80887E-07   -0.36249E-07  2460   0.160E-03
  49 F= -.85971409E+03 E0= -.85971409E+03  d E =0.438516E-05  mag=     0.0000
quench:  g(F)=  0.000E+00 g(S)=  0.000E+00 dE (1.order)= 0.000E+00
 bond charge predicted
       N       E                     dE             d eps       ncg     rms          rms(c)
DAV:   1    -0.851804000944E+03    0.36498E-05   -0.98244E-04  3880   0.669E-02    0.620E-03
DAV:   2    -0.851804002398E+03   -0.14546E-05   -0.19159E-05  3840   0.857E-03    0.462E-03
DAV:   3    -0.851804002408E+03   -0.93278E-08   -0.26892E-07  2260   0.133E-03
  50 F= -.85971409E+03 E0= -.85971409E+03  d E =0.396317E-05  mag=    -0.0000
quench:  g(F)=  0.000E+00 g(S)=  0.000E+00 dE (1.order)= 0.000E+00
 bond charge predicted
       N       E                     dE             d eps       ncg     rms          rms(c)
DAV:   1    -0.851803999090E+03    0.33083E-05   -0.15586E-03  3880   0.843E-02    0.765E-03
DAV:   2    -0.851804001444E+03   -0.23538E-05   -0.31105E-05  3840   0.109E-02    0.572E-03
DAV:   3    -0.851804001413E+03    0.31090E-07   -0.45950E-07  2540   0.173E-03
  51 F= -.85971408E+03 E0= -.85971408E+03  d E =0.335640E-05  mag=    -0.0000
quench:  g(F)=  0.000E+00 g(S)=  0.000E+00 dE (1.order)= 0.000E+00
 bond charge predicted
       N       E                     dE             d eps       ncg     rms          rms(c)
DAV:   1    -0.851803995943E+03    0.55009E-05   -0.24555E-03  3880   0.106E-01    0.966E-03
DAV:   2    -0.851803999620E+03   -0.36767E-05   -0.49180E-05  3840   0.137E-02    0.724E-03
DAV:   3    -0.851803999573E+03    0.46603E-07   -0.74872E-07  2920   0.217E-03
  52 F= -.85971408E+03 E0= -.85971408E+03  d E =0.497028E-05  mag=    -0.0000
quench:  g(F)=  0.000E+00 g(S)=  0.000E+00 dE (1.order)= 0.000E+00
 bond charge predicted
       N       E                     dE             d eps       ncg     rms          rms(c)
DAV:   1    -0.851803987827E+03    0.11792E-04   -0.38305E-03  3900   0.132E-01    0.121E-02
DAV:   2    -0.851803993568E+03   -0.57405E-05   -0.76814E-05  3840   0.171E-02    0.902E-03
DAV:   3    -0.851803993497E+03    0.70460E-07   -0.12566E-06  3280   0.270E-03
  53 F= -.85971407E+03 E0= -.85971407E+03  d E =0.992824E-05  mag=    -0.0000
quench:  g(F)=  0.000E+00 g(S)=  0.000E+00 dE (1.order)= 0.000E+00
 bond charge predicted
       N       E                     dE             d eps       ncg     rms          rms(c)
DAV:   1    -0.851803975551E+03    0.18017E-04   -0.57042E-03  3880   0.160E-01    0.148E-02
DAV:   2    -0.851803983883E+03   -0.83326E-05   -0.11315E-04  3840   0.207E-02    0.111E-02
DAV:   3    -0.851803983797E+03    0.85747E-07   -0.18684E-06  3420   0.327E-03
  54 F= -.85971405E+03 E0= -.85971405E+03  d E =0.148309E-04  mag=     0.0000
quench:  g(F)=  0.000E+00 g(S)=  0.000E+00 dE (1.order)= 0.000E+00
 bond charge predicted
       N       E                     dE             d eps       ncg     rms          rms(c)
DAV:   1    -0.851803960233E+03    0.23651E-04   -0.83163E-03  3900   0.193E-01    0.180E-02
DAV:   2    -0.851803972016E+03   -0.11784E-04   -0.16252E-04  3840   0.247E-02    0.135E-02
DAV:   3    -0.851803971945E+03    0.71042E-07   -0.28311E-06  3710   0.399E-03
  55 F= -.85971403E+03 E0= -.85971403E+03  d E =0.186862E-04  mag=     0.0000
quench:  g(F)=  0.000E+00 g(S)=  0.000E+00 dE (1.order)= 0.000E+00
 bond charge predicted
       N       E                     dE             d eps       ncg     rms          rms(c)
DAV:   1    -0.851803939384E+03    0.32632E-04   -0.12355E-02  3880   0.235E-01    0.221E-02
DAV:   2    -0.851803956611E+03   -0.17226E-04   -0.24051E-04  3840   0.301E-02    0.166E-02
DAV:   3    -0.851803956522E+03    0.88621E-07   -0.44447E-06  4180   0.491E-03
  56 F= -.85971401E+03 E0= -.85971401E+03  d E =0.239720E-04  mag=    -0.0000
quench:  g(F)=  0.000E+00 g(S)=  0.000E+00 dE (1.order)= 0.000E+00
 bond charge predicted
       N       E                     dE             d eps       ncg     rms          rms(c)
DAV:   1    -0.851803911572E+03    0.45039E-04   -0.18199E-02  3880   0.285E-01    0.271E-02
DAV:   2    -0.851803936220E+03   -0.24649E-04   -0.34946E-04  3840   0.363E-02    0.204E-02
DAV:   3    -0.851803936110E+03    0.11036E-06   -0.66719E-06  4440   0.600E-03
  57 F= -.85971398E+03 E0= -.85971398E+03  d E =0.312646E-04  mag=     0.0000
quench:  g(F)=  0.000E+00 g(S)=  0.000E+00 dE (1.order)= 0.000E+00
 bond charge predicted
       N       E                     dE             d eps       ncg     rms          rms(c)
DAV:   1    -0.851803877758E+03    0.58462E-04   -0.26291E-02  3880   0.342E-01    0.328E-02
DAV:   2    -0.851803912401E+03   -0.34643E-04   -0.49538E-04  3840   0.432E-02    0.249E-02
DAV:   3    -0.851803912019E+03    0.38130E-06   -0.98332E-06  4520   0.730E-03
  58 F= -.85971394E+03 E0= -.85971394E+03  d E =0.386937E-04  mag=     0.0000
quench:  g(F)=  0.000E+00 g(S)=  0.000E+00 dE (1.order)= 0.000E+00
 bond charge predicted
       N       E                     dE             d eps       ncg     rms          rms(c)
DAV:   1    -0.851803835914E+03    0.76487E-04   -0.39087E-02  3880   0.416E-01    0.401E-02
DAV:   2    -0.851803887562E+03   -0.51648E-04   -0.73404E-04  3840   0.526E-02    0.304E-02
DAV:   3    -0.851803886732E+03    0.83049E-06   -0.14770E-05  4580   0.891E-03    0.224E-02
DAV:   4    -0.851803896090E+03   -0.93578E-05   -0.19737E-05  3700   0.107E-02    0.489E-03
DAV:   5    -0.851803896691E+03   -0.60122E-06   -0.54622E-06  4000   0.439E-03
  59 F= -.85971390E+03 E0= -.85971390E+03  d E =0.364551E-04  mag=     0.0000
quench:  g(F)=  0.000E+00 g(S)=  0.000E+00 dE (1.order)= 0.000E+00
 bond charge predicted
       N       E                     dE             d eps       ncg     rms          rms(c)
DAV:   1    -0.851803767263E+03    0.12883E-03   -0.58627E-02  3920   0.509E-01    0.467E-02
DAV:   2    -0.851803853569E+03   -0.86306E-04   -0.11762E-03  3840   0.667E-02    0.352E-02
DAV:   3    -0.851803848523E+03    0.50458E-05   -0.23432E-05  4560   0.113E-02    0.263E-02
DAV:   4    -0.851803857935E+03   -0.94119E-05   -0.35216E-05  3820   0.141E-02    0.627E-03
DAV:   5    -0.851803858734E+03   -0.79818E-06   -0.86154E-06  4260   0.562E-03
  60 F= -.85971384E+03 E0= -.85971384E+03  d E =0.666069E-04  mag=     0.0000
quench:  g(F)=  0.000E+00 g(S)=  0.000E+00 dE (1.order)= 0.000E+00
 bond charge predicted
       N       E                     dE             d eps       ncg     rms          rms(c)
DAV:   1    -0.851803671796E+03    0.18614E-03   -0.83060E-02  3920   0.605E-01    0.561E-02
DAV:   2    -0.851803793052E+03   -0.12126E-03   -0.16518E-03  3840   0.792E-02    0.425E-02
DAV:   3    -0.851803785672E+03    0.73801E-05   -0.33660E-05  4540   0.136E-02    0.316E-02
DAV:   4    -0.851803798497E+03   -0.12825E-04   -0.50946E-05  4020   0.169E-02    0.745E-03
DAV:   5    -0.851803799498E+03   -0.10011E-05   -0.12200E-05  4280   0.680E-03    0.468E-03
DAV:   6    -0.851803799627E+03   -0.12939E-06   -0.17511E-06  2900   0.310E-03
  61 F= -.85971375E+03 E0= -.85971375E+03  d E =0.899331E-04  mag=     0.0000
quench:  g(F)=  0.000E+00 g(S)=  0.000E+00 dE (1.order)= 0.000E+00
 bond charge predicted
       N       E                     dE             d eps       ncg     rms          rms(c)
DAV:   1    -0.851803537517E+03    0.26198E-03   -0.12067E-01  3920   0.729E-01    0.673E-02
DAV:   2    -0.851803712036E+03   -0.17452E-03   -0.23886E-03  3860   0.953E-02    0.510E-02
DAV:   3    -0.851803700417E+03    0.11619E-04   -0.49538E-05  4560   0.164E-02    0.378E-02
DAV:   4    -0.851803716727E+03   -0.16310E-04   -0.75387E-05  4220   0.204E-02    0.910E-03
DAV:   5    -0.851803718178E+03   -0.14504E-05   -0.17119E-05  4240   0.809E-03    0.560E-03
DAV:   6    -0.851803718450E+03   -0.27222E-06   -0.25744E-06  3240   0.373E-03
  62 F= -.85971363E+03 E0= -.85971363E+03  d E =0.116212E-03  mag=    -0.0000
quench:  g(F)=  0.000E+00 g(S)=  0.000E+00 dE (1.order)= 0.000E+00
 bond charge predicted
       N       E                     dE             d eps       ncg     rms          rms(c)
DAV:   1    -0.851803342079E+03    0.37610E-03   -0.17244E-01  3920   0.876E-01    0.808E-02
DAV:   2    -0.851803591476E+03   -0.24940E-03   -0.34152E-03  3880   0.115E-01    0.615E-02
DAV:   3    -0.851803574825E+03    0.16650E-04   -0.72104E-05  4620   0.198E-02    0.456E-02
DAV:   4    -0.851803597952E+03   -0.23127E-04   -0.10597E-04  4280   0.242E-02    0.111E-02
DAV:   5    -0.851803600133E+03   -0.21813E-05   -0.23942E-05  4320   0.951E-03    0.672E-03
DAV:   6    -0.851803600387E+03   -0.25380E-06   -0.39134E-06  3480   0.459E-03
  63 F= -.85971347E+03 E0= -.85971347E+03  d E =0.159854E-03  mag=    -0.0000
quench:  g(F)=  0.000E+00 g(S)=  0.000E+00 dE (1.order)= 0.000E+00
 bond charge predicted
       N       E                     dE             d eps       ncg     rms          rms(c)
DAV:   1    -0.851803065657E+03    0.53448E-03   -0.25084E-01  3920   0.106E+00    0.970E-02
DAV:   2    -0.851803441704E+03   -0.37605E-03   -0.50436E-03  3880   0.139E-01    0.739E-02
DAV:   3    -0.851803416807E+03    0.24897E-04   -0.10290E-04  4560   0.237E-02    0.550E-02
DAV:   4    -0.851803448382E+03   -0.31575E-04   -0.15788E-04  4380   0.296E-02    0.132E-02
DAV:   5    -0.851803450889E+03   -0.25076E-05   -0.34702E-05  4300   0.117E-02    0.808E-03
DAV:   6    -0.851803451337E+03   -0.44816E-06   -0.57073E-06  3620   0.557E-03
  64 F= -.85971327E+03 E0= -.85971327E+03  d E =0.201566E-03  mag=    -0.0000
quench:  g(F)=  0.000E+00 g(S)=  0.000E+00 dE (1.order)= 0.000E+00
 bond charge predicted
       N       E                     dE             d eps       ncg     rms          rms(c)
DAV:   1    -0.851802694188E+03    0.75670E-03   -0.36425E-01  3920   0.128E+00    0.116E-01
DAV:   2    -0.851803242383E+03   -0.54819E-03   -0.73072E-03  3880   0.168E-01    0.891E-02
DAV:   3    -0.851803204206E+03    0.38177E-04   -0.15042E-04  4660   0.287E-02    0.664E-02
DAV:   4    -0.851803247417E+03   -0.43212E-04   -0.23237E-04  4420   0.356E-02    0.160E-02
DAV:   5    -0.851803250767E+03   -0.33502E-05   -0.51391E-05  4260   0.142E-02    0.971E-03
DAV:   6    -0.851803251589E+03   -0.82210E-06   -0.83382E-06  3700   0.652E-03
  65 F= -.85971301E+03 E0= -.85971301E+03  d E =0.255155E-03  mag=    -0.0000
quench:  g(F)=  0.000E+00 g(S)=  0.000E+00 dE (1.order)= 0.000E+00
 bond charge predicted
       N       E                     dE             d eps       ncg     rms          rms(c)
DAV:   1    -0.851802175171E+03    0.10756E-02   -0.52230E-01  3920   0.154E+00    0.139E-01
DAV:   2    -0.851802957454E+03   -0.78228E-03   -0.10413E-02  3920   0.201E-01    0.107E-01
DAV:   3    -0.851802899216E+03    0.58238E-04   -0.22042E-04  4760   0.346E-02    0.798E-02
DAV:   4    -0.851802959069E+03   -0.59852E-04   -0.33273E-04  4400   0.426E-02    0.195E-02
DAV:   5    -0.851802963739E+03   -0.46705E-05   -0.75057E-05  4240   0.170E-02    0.116E-02
DAV:   6    -0.851802964851E+03   -0.11118E-05   -0.11713E-05  3780   0.754E-03    0.507E-03
DAV:   7    -0.851802965539E+03   -0.68774E-06   -0.18898E-06  3080   0.286E-03
  66 F= -.85971267E+03 E0= -.85971267E+03  d E =0.345197E-03  mag=    -0.0000
quench:  g(F)=  0.000E+00 g(S)=  0.000E+00 dE (1.order)= 0.000E+00
 bond charge predicted
       N       E                     dE             d eps       ncg     rms          rms(c)
DAV:   1    -0.851801451130E+03    0.15137E-02   -0.73205E-01  3920   0.182E+00    0.165E-01
DAV:   2    -0.851802562053E+03   -0.11109E-02   -0.14647E-02  3920   0.239E-01    0.128E-01
DAV:   3    -0.851802468422E+03    0.93632E-04   -0.32278E-04  4640   0.418E-02    0.957E-02
DAV:   4    -0.851802535459E+03   -0.67038E-04   -0.47811E-04  4400   0.514E-02    0.242E-02
DAV:   5    -0.851802543344E+03   -0.78843E-05   -0.11263E-04  4220   0.207E-02    0.145E-02
DAV:   6    -0.851802544793E+03   -0.14495E-05   -0.16995E-05  4020   0.889E-03    0.649E-03
DAV:   7    -0.851802545784E+03   -0.99050E-06   -0.26092E-06  3200   0.337E-03
  67 F= -.85971218E+03 E0= -.85971218E+03  d E =0.493437E-03  mag=    -0.0000
quench:  g(F)=  0.000E+00 g(S)=  0.000E+00 dE (1.order)= 0.000E+00
 bond charge predicted
       N       E                     dE             d eps       ncg     rms          rms(c)
DAV:   1    -0.851799846785E+03    0.26980E-02   -0.10768E+00  3920   0.224E+00    0.201E-01
DAV:   2    -0.851801551691E+03   -0.17049E-02   -0.22257E-02  4000   0.297E-01    0.159E-01
DAV:   3    -0.851801390265E+03    0.16143E-03   -0.55480E-04  4900   0.530E-02    0.120E-01
DAV:   4    -0.851801438125E+03   -0.47860E-04   -0.67809E-04  4360   0.619E-02    0.352E-02
DAV:   5    -0.851801463832E+03   -0.25707E-04   -0.16766E-04  4240   0.247E-02    0.193E-02
DAV:   6    -0.851801465764E+03   -0.19315E-05   -0.27483E-05  4140   0.110E-02    0.826E-03
DAV:   7    -0.851801467024E+03   -0.12606E-05   -0.39142E-06  3760   0.405E-03    0.505E-03
DAV:   8    -0.851801467012E+03    0.12828E-07   -0.10218E-06  2680   0.277E-03
  68 F= -.85971099E+03 E0= -.85971099E+03  d E =0.119092E-02  mag=     0.0000
quench:  g(F)=  0.000E+00 g(S)=  0.000E+00 dE (1.order)= 0.000E+00
 bond charge predicted
       N       E                     dE             d eps       ncg     rms          rms(c)
DAV:   1    -0.851802304873E+03   -0.83785E-03   -0.43881E-02  3840   0.483E-01    0.474E-02
DAV:   2    -0.851802385988E+03   -0.81115E-04   -0.11486E-03  4660   0.705E-02    0.437E-02
DAV:   3    -0.851802365840E+03    0.20148E-04   -0.52924E-05  4960   0.151E-02    0.345E-02
DAV:   4    -0.851802346503E+03    0.19337E-04   -0.45219E-05  4160   0.159E-02    0.156E-02
DAV:   5    -0.851802345638E+03    0.86475E-06   -0.13964E-05  4260   0.786E-03    0.660E-03
DAV:   6    -0.851802345813E+03   -0.17507E-06   -0.12992E-06  2560   0.270E-03
  69 F= -.85971188E+03 E0= -.85971188E+03  d E =-.897493E-03  mag=    -0.0000
quench:  g(F)=  0.000E+00 g(S)=  0.000E+00 dE (1.order)= 0.000E+00
 bond charge predicted
       N       E                     dE             d eps       ncg     rms          rms(c)
DAV:   1    -0.851801577591E+03    0.76805E-03   -0.42862E-02  3840   0.480E-01    0.454E-02
DAV:   2    -0.851801660942E+03   -0.83352E-04   -0.11155E-03  4680   0.699E-02    0.411E-02
DAV:   3    -0.851801644787E+03    0.16155E-04   -0.46549E-05  4980   0.142E-02    0.328E-02
DAV:   4    -0.851801629108E+03    0.15679E-04   -0.44453E-05  4120   0.158E-02    0.142E-02
DAV:   5    -0.851801629122E+03   -0.13664E-07   -0.12246E-05  4320   0.725E-03    0.663E-03
DAV:   6    -0.851801629302E+03   -0.18003E-06   -0.11957E-06  2400   0.259E-03
  70 F= -.85971118E+03 E0= -.85971118E+03  d E =0.700895E-03  mag=     0.0000
quench:  g(F)=  0.000E+00 g(S)=  0.000E+00 dE (1.order)= 0.000E+00
 bond charge predicted
       N       E                     dE             d eps       ncg     rms          rms(c)
DAV:   1    -0.851801942490E+03   -0.31337E-03   -0.21961E-03  3840   0.108E-01    0.107E-02
DAV:   2    -0.851801946278E+03   -0.37878E-05   -0.57900E-05  4680   0.159E-02    0.100E-02
DAV:   3    -0.851801945135E+03    0.11430E-05   -0.25483E-06  3180   0.349E-03    0.795E-03
DAV:   4    -0.851801943972E+03    0.11630E-05   -0.43661E-06  3640   0.461E-03    0.324E-03
DAV:   5    -0.851801943934E+03    0.37522E-07   -0.64073E-07  2120   0.181E-03
  71 F= -.85971149E+03 E0= -.85971149E+03  d E =-.310637E-03  mag=    -0.0000
quench:  g(F)=  0.000E+00 g(S)=  0.000E+00 dE (1.order)= 0.000E+00
 bond charge predicted
       N       E                     dE             d eps       ncg     rms          rms(c)
DAV:   1    -0.851802274130E+03   -0.33016E-03   -0.68271E-03  3840   0.191E-01    0.189E-02
DAV:   2    -0.851802286482E+03   -0.12353E-04   -0.17673E-04  4660   0.277E-02    0.172E-02
DAV:   3    -0.851802283252E+03    0.32306E-05   -0.86998E-06  4900   0.615E-03    0.134E-02
DAV:   4    -0.851802280581E+03    0.26712E-05   -0.65768E-06  3960   0.603E-03    0.626E-03
DAV:   5    -0.851802280449E+03    0.13150E-06   -0.19272E-06  2700   0.301E-03
  72 F= -.85971182E+03 E0= -.85971182E+03  d E =-.328983E-03  mag=    -0.0000
quench:  g(F)=  0.000E+00 g(S)=  0.000E+00 dE (1.order)= 0.000E+00
 bond charge predicted
       N       E                     dE             d eps       ncg     rms          rms(c)
DAV:   1    -0.851802318118E+03   -0.37538E-04   -0.96614E-03  3840   0.227E-01    0.222E-02
DAV:   2    -0.851802336404E+03   -0.18285E-04   -0.25099E-04  4680   0.331E-02    0.201E-02
DAV:   3    -0.851802332366E+03    0.40376E-05   -0.11367E-05  4940   0.703E-03    0.159E-02
DAV:   4    -0.851802328743E+03    0.36226E-05   -0.96045E-06  3980   0.730E-03    0.716E-03
DAV:   5    -0.851802328658E+03    0.85776E-07   -0.26651E-06  2880   0.350E-03
  73 F= -.85971186E+03 E0= -.85971186E+03  d E =-.385456E-04  mag=    -0.0000
quench:  g(F)=  0.000E+00 g(S)=  0.000E+00 dE (1.order)= 0.000E+00
 bond charge predicted
       N       E                     dE             d eps       ncg     rms          rms(c)
DAV:   1    -0.851802332274E+03   -0.35302E-05   -0.11842E-05  3780   0.787E-03    0.168E-03
DAV:   2    -0.851802332269E+03    0.49258E-08   -0.38732E-07  2100   0.140E-03
  74 F= -.85971186E+03 E0= -.85971186E+03  d E =-.368124E-05  mag=    -0.0000
quench:  g(F)=  0.000E+00 g(S)=  0.000E+00 dE (1.order)= 0.000E+00
 bond charge predicted
       N       E                     dE             d eps       ncg     rms          rms(c)
DAV:   1    -0.851802338415E+03   -0.61417E-05   -0.39767E-05  3920   0.144E-02    0.176E-03
DAV:   2    -0.851802338460E+03   -0.44565E-07   -0.87020E-07  2320   0.206E-03
  75 F= -.85971187E+03 E0= -.85971187E+03  d E =-.631858E-05  mag=     0.0000
quench:  g(F)=  0.000E+00 g(S)=  0.000E+00 dE (1.order)= 0.000E+00
 bond charge predicted
       N       E                     dE             d eps       ncg     rms          rms(c)
DAV:   1    -0.851802345534E+03   -0.71187E-05   -0.85924E-05  3880   0.212E-02    0.280E-03
DAV:   2    -0.851802345622E+03   -0.88243E-07   -0.19549E-06  3150   0.303E-03
  76 F= -.85971188E+03 E0= -.85971188E+03  d E =-.734412E-05  mag=    -0.0000
quench:  g(F)=  0.000E+00 g(S)=  0.000E+00 dE (1.order)= 0.000E+00
 bond charge predicted
       N       E                     dE             d eps       ncg     rms          rms(c)
DAV:   1    -0.851802351839E+03   -0.63049E-05   -0.14053E-04  3860   0.269E-02    0.379E-03
DAV:   2    -0.851802351986E+03   -0.14746E-06   -0.32827E-06  3980   0.380E-03
  77 F= -.85971188E+03 E0= -.85971188E+03  d E =-.656145E-05  mag=     0.0000
quench:  g(F)=  0.000E+00 g(S)=  0.000E+00 dE (1.order)= 0.000E+00
 bond charge predicted
       N       E                     dE             d eps       ncg     rms          rms(c)
DAV:   1    -0.851802355397E+03   -0.35584E-05   -0.19952E-04  3860   0.319E-02    0.465E-03
DAV:   2    -0.851802355602E+03   -0.20477E-06   -0.44988E-06  4120   0.440E-03
  78 F= -.85971189E+03 E0= -.85971189E+03  d E =-.376227E-05  mag=     0.0000
quench:  g(F)=  0.000E+00 g(S)=  0.000E+00 dE (1.order)= 0.000E+00
 bond charge predicted
       N       E                     dE             d eps       ncg     rms          rms(c)
DAV:   1    -0.851802355497E+03   -0.10003E-06   -0.25773E-04  3860   0.358E-02    0.533E-03
DAV:   2    -0.851802355766E+03   -0.26932E-06   -0.56567E-06  4440   0.487E-03
  79 F= -.85971189E+03 E0= -.85971189E+03  d E =-.211059E-06  mag=    -0.0000
quench:  g(F)=  0.000E+00 g(S)=  0.000E+00 dE (1.order)= 0.000E+00
 bond charge predicted
       N       E                     dE             d eps       ncg     rms          rms(c)
DAV:   1    -0.851802351999E+03    0.34977E-05   -0.38603E-04  3880   0.433E-02    0.615E-03
DAV:   2    -0.851802352432E+03   -0.43259E-06   -0.82830E-06  4300   0.581E-03
  80 F= -.85971188E+03 E0= -.85971188E+03  d E =0.345129E-05  mag=    -0.0000
quench:  g(F)=  0.000E+00 g(S)=  0.000E+00 dE (1.order)= 0.000E+00
 bond charge predicted
       N       E                     dE             d eps       ncg     rms          rms(c)
DAV:   1    -0.851802346102E+03    0.58971E-05   -0.56460E-04  3880   0.514E-02    0.718E-03
DAV:   2    -0.851802346751E+03   -0.64849E-06   -0.11892E-05  4200   0.683E-03    0.579E-03
DAV:   3    -0.851802346721E+03    0.30028E-07   -0.38315E-07  2400   0.160E-03
  81 F= -.85971188E+03 E0= -.85971188E+03  d E =0.618173E-05  mag=     0.0000
quench:  g(F)=  0.000E+00 g(S)=  0.000E+00 dE (1.order)= 0.000E+00
 bond charge predicted
       N       E                     dE             d eps       ncg     rms          rms(c)
DAV:   1    -0.851802340832E+03    0.59186E-05   -0.82284E-04  3880   0.612E-02    0.566E-03
DAV:   2    -0.851802342165E+03   -0.13333E-05   -0.16819E-05  3960   0.786E-03    0.413E-03
DAV:   3    -0.851802342174E+03   -0.84183E-08   -0.21555E-07  2220   0.117E-03
  82 F= -.85971187E+03 E0= -.85971187E+03  d E =0.546962E-05  mag=     0.0000
quench:  g(F)=  0.000E+00 g(S)=  0.000E+00 dE (1.order)= 0.000E+00
 bond charge predicted
       N       E                     dE             d eps       ncg     rms          rms(c)
DAV:   1    -0.851802339279E+03    0.28864E-05   -0.12643E-03  3880   0.756E-02    0.674E-03
DAV:   2    -0.851802341391E+03   -0.21122E-05   -0.26222E-05  3880   0.977E-03    0.484E-03
DAV:   3    -0.851802341364E+03    0.27583E-07   -0.33109E-07  2590   0.145E-03
  83 F= -.85971187E+03 E0= -.85971187E+03  d E =0.231658E-05  mag=     0.0000
quench:  g(F)=  0.000E+00 g(S)=  0.000E+00 dE (1.order)= 0.000E+00
 bond charge predicted
       N       E                     dE             d eps       ncg     rms          rms(c)
DAV:   1    -0.851802341046E+03    0.34537E-06   -0.19745E-03  3880   0.947E-02    0.845E-03
DAV:   2    -0.851802344359E+03   -0.33135E-05   -0.41106E-05  3840   0.122E-02    0.613E-03
DAV:   3    -0.851802344307E+03    0.52751E-07   -0.55081E-07  2620   0.184E-03
  84 F= -.85971187E+03 E0= -.85971187E+03  d E =-.811974E-06  mag=    -0.0000
quench:  g(F)=  0.000E+00 g(S)=  0.000E+00 dE (1.order)= 0.000E+00
 bond charge predicted
       N       E                     dE             d eps       ncg     rms          rms(c)
DAV:   1    -0.851802341803E+03    0.25562E-05   -0.31336E-03  3880   0.120E-01    0.107E-02
DAV:   2    -0.851802347092E+03   -0.52892E-05   -0.65692E-05  3840   0.155E-02    0.784E-03
DAV:   3    -0.851802346990E+03    0.10256E-06   -0.95969E-07  3140   0.238E-03
  85 F= -.85971187E+03 E0= -.85971187E+03  d E =-.117176E-06  mag=    -0.0000
quench:  g(F)=  0.000E+00 g(S)=  0.000E+00 dE (1.order)= 0.000E+00
 bond charge predicted
       N       E                     dE             d eps       ncg     rms          rms(c)
DAV:   1    -0.851802334889E+03    0.12204E-04   -0.49125E-03  3880   0.150E-01    0.134E-02
DAV:   2    -0.851802343178E+03   -0.82892E-05   -0.10324E-04  3840   0.193E-02    0.980E-03
DAV:   3    -0.851802343029E+03    0.14911E-06   -0.15859E-06  3440   0.293E-03
  86 F= -.85971186E+03 E0= -.85971186E+03  d E =0.666573E-05  mag=    -0.0000
quench:  g(F)=  0.000E+00 g(S)=  0.000E+00 dE (1.order)= 0.000E+00
 bond charge predicted
       N       E                     dE             d eps       ncg     rms          rms(c)
DAV:   1    -0.851802322653E+03    0.20525E-04   -0.75259E-03  3880   0.184E-01    0.166E-02
DAV:   2    -0.851802335337E+03   -0.12683E-04   -0.15819E-04  3840   0.237E-02    0.119E-02
DAV:   3    -0.851802335227E+03    0.11013E-06   -0.22852E-06  3680   0.349E-03
  87 F= -.85971185E+03 E0= -.85971185E+03  d E =0.103436E-04  mag=     0.0000
quench:  g(F)=  0.000E+00 g(S)=  0.000E+00 dE (1.order)= 0.000E+00
 bond charge predicted
       N       E                     dE             d eps       ncg     rms          rms(c)
DAV:   1    -0.851802310975E+03    0.24362E-04   -0.11513E-02  3880   0.227E-01    0.203E-02
DAV:   2    -0.851802330689E+03   -0.19714E-04   -0.24404E-04  3840   0.292E-02    0.144E-02
DAV:   3    -0.851802330513E+03    0.17652E-06   -0.35026E-06  4020   0.424E-03
  88 F= -.85971185E+03 E0= -.85971185E+03  d E =0.672727E-05  mag=     0.0000
quench:  g(F)=  0.000E+00 g(S)=  0.000E+00 dE (1.order)= 0.000E+00
 bond charge predicted
       N       E                     dE             d eps       ncg     rms          rms(c)
DAV:   1    -0.851802294822E+03    0.35868E-04   -0.17768E-02  3880   0.282E-01    0.253E-02
DAV:   2    -0.851802325468E+03   -0.30646E-04   -0.38029E-04  3840   0.365E-02    0.180E-02
DAV:   3    -0.851802325158E+03    0.30946E-06   -0.56487E-06  4500   0.532E-03
  89 F= -.85971184E+03 E0= -.85971184E+03  d E =0.714853E-05  mag=    -0.0000
quench:  g(F)=  0.000E+00 g(S)=  0.000E+00 dE (1.order)= 0.000E+00
 bond charge predicted
       N       E                     dE             d eps       ncg     rms          rms(c)
DAV:   1    -0.851802267136E+03    0.58332E-04   -0.27249E-02  3880   0.349E-01    0.314E-02
DAV:   2    -0.851802313688E+03   -0.46552E-04   -0.58411E-04  3840   0.451E-02    0.223E-02
DAV:   3    -0.851802313372E+03    0.31610E-06   -0.85668E-06  4720   0.655E-03
  90 F= -.85971183E+03 E0= -.85971183E+03  d E =0.149777E-04  mag=     0.0000
quench:  g(F)=  0.000E+00 g(S)=  0.000E+00 dE (1.order)= 0.000E+00
 bond charge predicted
       N       E                     dE             d eps       ncg     rms          rms(c)
DAV:   1    -0.851802246642E+03    0.67045E-04   -0.41191E-02  3880   0.428E-01    0.386E-02
DAV:   2    -0.851802315894E+03   -0.69252E-04   -0.88312E-04  3840   0.552E-02    0.273E-02
DAV:   3    -0.851802315883E+03    0.11183E-07   -0.12649E-05  4760   0.797E-03    0.209E-02
DAV:   4    -0.851802326052E+03   -0.10169E-04   -0.15430E-05  3680   0.977E-03    0.450E-03
DAV:   5    -0.851802326651E+03   -0.59863E-06   -0.39859E-06  3940   0.380E-03
  91 F= -.85971183E+03 E0= -.85971183E+03  d E =-.632399E-05  mag=    -0.0000
quench:  g(F)=  0.000E+00 g(S)=  0.000E+00 dE (1.order)= 0.000E+00
 bond charge predicted
       N       E                     dE             d eps       ncg     rms          rms(c)
DAV:   1    -0.851802217348E+03    0.10870E-03   -0.65697E-02  3920   0.541E-01    0.464E-02
DAV:   2    -0.851802339280E+03   -0.12193E-03   -0.14999E-03  3840   0.719E-02    0.319E-02
DAV:   3    -0.851802336273E+03    0.30072E-05   -0.20839E-05  4790   0.103E-02    0.246E-02
DAV:   4    -0.851802347907E+03   -0.11634E-04   -0.27615E-05  3700   0.129E-02    0.596E-03
DAV:   5    -0.851802348958E+03   -0.10502E-05   -0.65814E-06  4200   0.489E-03    0.378E-03
DAV:   6    -0.851802348876E+03    0.81593E-07   -0.11758E-06  2680   0.271E-03
  92 F= -.85971184E+03 E0= -.85971184E+03  d E =-.105275E-04  mag=     0.0000
quench:  g(F)=  0.000E+00 g(S)=  0.000E+00 dE (1.order)= 0.000E+00
 bond charge predicted
       N       E                     dE             d eps       ncg     rms          rms(c)
DAV:   1    -0.851802156032E+03    0.19293E-03   -0.10027E-01  3920   0.666E-01    0.568E-02
DAV:   2    -0.851802340785E+03   -0.18475E-03   -0.22944E-03  3840   0.884E-02    0.385E-02
DAV:   3    -0.851802335472E+03    0.53135E-05   -0.30840E-05  4700   0.125E-02    0.298E-02
DAV:   4    -0.851802355473E+03   -0.20001E-04   -0.42480E-05  3780   0.160E-02    0.714E-03
DAV:   5    -0.851802356841E+03   -0.13678E-05   -0.97722E-06  4280   0.605E-03    0.452E-03
DAV:   6    -0.851802356767E+03    0.73196E-07   -0.17777E-06  3040   0.326E-03
  93 F= -.85971184E+03 E0= -.85971184E+03  d E =0.694425E-05  mag=    -0.0000
quench:  g(F)=  0.000E+00 g(S)=  0.000E+00 dE (1.order)= 0.000E+00
 bond charge predicted
       N       E                     dE             d eps       ncg     rms          rms(c)
DAV:   1    -0.851802072960E+03    0.28388E-03   -0.15420E-01  3920   0.825E-01    0.700E-02
DAV:   2    -0.851802361004E+03   -0.28804E-03   -0.35663E-03  3840   0.110E-01    0.471E-02
DAV:   3    -0.851802353594E+03    0.74094E-05   -0.46307E-05  4700   0.153E-02    0.365E-02
DAV:   4    -0.851802385799E+03   -0.32205E-04   -0.63493E-05  4120   0.196E-02    0.863E-03
DAV:   5    -0.851802387782E+03   -0.19828E-05   -0.13881E-05  4240   0.731E-03    0.547E-03
DAV:   6    -0.851802387705E+03    0.77329E-07   -0.26499E-06  3400   0.395E-03
  94 F= -.85971185E+03 E0= -.85971185E+03  d E =-.150242E-04  mag=    -0.0000
quench:  g(F)=  0.000E+00 g(S)=  0.000E+00 dE (1.order)= 0.000E+00
 bond charge predicted
       N       E                     dE             d eps       ncg     rms          rms(c)
DAV:   1    -0.851801910701E+03    0.47708E-03   -0.23453E-01  3920   0.102E+00    0.862E-02
DAV:   2    -0.851802354287E+03   -0.44359E-03   -0.54552E-03  3840   0.135E-01    0.577E-02
DAV:   3    -0.851802342934E+03    0.11353E-04   -0.69587E-05  4720   0.188E-02    0.447E-02
DAV:   4    -0.851802391180E+03   -0.48246E-04   -0.95655E-05  4300   0.240E-02    0.105E-02
DAV:   5    -0.851802394298E+03   -0.31183E-05   -0.20288E-05  4270   0.890E-03    0.660E-03
DAV:   6    -0.851802394232E+03    0.66000E-07   -0.39198E-06  3600   0.471E-03
  95 F= -.85971184E+03 E0= -.85971184E+03  d E =0.102665E-04  mag=     0.0000
quench:  g(F)=  0.000E+00 g(S)=  0.000E+00 dE (1.order)= 0.000E+00
 bond charge predicted
       N       E                     dE             d eps       ncg     rms          rms(c)
DAV:   1    -0.851801712910E+03    0.68139E-03   -0.34796E-01  3920   0.124E+00    0.106E-01
DAV:   2    -0.851802381936E+03   -0.66903E-03   -0.81061E-03  3880   0.165E-01    0.707E-02
DAV:   3    -0.851802363520E+03    0.18416E-04   -0.10438E-04  4720   0.230E-02    0.548E-02
DAV:   4    -0.851802424131E+03   -0.60611E-04   -0.14032E-04  4340   0.291E-02    0.130E-02
DAV:   5    -0.851802430611E+03   -0.64801E-05   -0.30276E-05  4180   0.109E-02    0.809E-03
DAV:   6    -0.851802430481E+03    0.12999E-06   -0.58937E-06  3720   0.581E-03
  96 F= -.85971185E+03 E0= -.85971185E+03  d E =-.780543E-05  mag=    -0.0000
quench:  g(F)=  0.000E+00 g(S)=  0.000E+00 dE (1.order)= 0.000E+00
 bond charge predicted
       N       E                     dE             d eps       ncg     rms          rms(c)
DAV:   1    -0.851801409172E+03    0.10214E-02   -0.51909E-01  3920   0.151E+00    0.129E-01
DAV:   2    -0.851802425728E+03   -0.10166E-02   -0.12088E-02  3900   0.202E-01    0.866E-02
DAV:   3    -0.851802397085E+03    0.28644E-04   -0.15712E-04  4680   0.283E-02    0.670E-02
DAV:   4    -0.851802467942E+03   -0.70857E-04   -0.20720E-04  4420   0.351E-02    0.160E-02
DAV:   5    -0.851802478000E+03   -0.10058E-04   -0.44387E-05  4240   0.131E-02    0.997E-03
DAV:   6    -0.851802478493E+03   -0.49314E-06   -0.91037E-06  3760   0.725E-03
  97 F= -.85971186E+03 E0= -.85971186E+03  d E =-.102616E-04  mag=    -0.0000
quench:  g(F)=  0.000E+00 g(S)=  0.000E+00 dE (1.order)= 0.000E+00
 bond charge predicted
       N       E                     dE             d eps       ncg     rms          rms(c)
DAV:   1    -0.851800956791E+03    0.15212E-02   -0.74361E-01  3920   0.181E+00    0.155E-01
DAV:   2    -0.851802424965E+03   -0.14682E-02   -0.17228E-02  3900   0.242E-01    0.104E-01
DAV:   3    -0.851802382432E+03    0.42534E-04   -0.22840E-04  4640   0.341E-02    0.808E-02
DAV:   4    -0.851802464420E+03   -0.81988E-04   -0.30845E-04  4420   0.424E-02    0.191E-02
DAV:   5    -0.851802476948E+03   -0.12528E-04   -0.65515E-05  4300   0.159E-02    0.120E-02
DAV:   6    -0.851802478895E+03   -0.19472E-05   -0.13175E-05  3760   0.840E-03    0.512E-03
DAV:   7    -0.851802480000E+03   -0.11051E-05   -0.23413E-06  3260   0.316E-03    0.301E-03
DAV:   8    -0.851802480014E+03   -0.13963E-07   -0.40731E-07  2680   0.207E-03
  98 F= -.85971182E+03 E0= -.85971182E+03  d E =0.428136E-04  mag=    -0.0000
quench:  g(F)=  0.000E+00 g(S)=  0.000E+00 dE (1.order)= 0.000E+00
 bond charge predicted
       N       E                     dE             d eps       ncg     rms          rms(c)
DAV:   1    -0.851800388424E+03    0.20916E-02   -0.10338E+00  3920   0.215E+00    0.184E-01
DAV:   2    -0.851802400508E+03   -0.20121E-02   -0.23675E-02  3900   0.285E-01    0.126E-01
DAV:   3    -0.851802334453E+03    0.66056E-04   -0.33229E-04  4760   0.411E-02    0.973E-02
DAV:   4    -0.851802424615E+03   -0.90163E-04   -0.44319E-04  4440   0.505E-02    0.237E-02
DAV:   5    -0.851802445354E+03   -0.20739E-04   -0.97635E-05  4280   0.192E-02    0.143E-02
DAV:   6    -0.851802446398E+03   -0.10438E-05   -0.17817E-05  3800   0.939E-03    0.624E-03
DAV:   7    -0.851802447724E+03   -0.13265E-05   -0.33350E-06  3840   0.365E-03    0.357E-03
DAV:   8    -0.851802447734E+03   -0.95024E-08   -0.48389E-07  2700   0.218E-03
  99 F= -.85971172E+03 E0= -.85971172E+03  d E =0.975872E-04  mag=     0.0000
quench:  g(F)=  0.000E+00 g(S)=  0.000E+00 dE (1.order)= 0.000E+00
 bond charge predicted
       N       E                     dE             d eps       ncg     rms          rms(c)
DAV:   1    -0.851799466099E+03    0.29816E-02   -0.13882E+00  3920   0.250E+00    0.216E-01
DAV:   2    -0.851802147038E+03   -0.26809E-02   -0.31710E-02  3900   0.334E-01    0.150E-01
DAV:   3    -0.851802043668E+03    0.10337E-03   -0.48665E-04  4740   0.497E-02    0.115E-01
DAV:   4    -0.851802142250E+03   -0.98582E-04   -0.63482E-04  4380   0.604E-02    0.296E-02
DAV:   5    -0.851802169688E+03   -0.27438E-04   -0.14560E-04  4280   0.234E-02    0.176E-02
DAV:   6    -0.851802170924E+03   -0.12355E-05   -0.25493E-05  4100   0.110E-02    0.775E-03
DAV:   7    -0.851802172624E+03   -0.17006E-05   -0.43307E-06  4080   0.416E-03    0.450E-03
DAV:   8    -0.851802172650E+03   -0.25255E-07   -0.69183E-07  2680   0.254E-03
 100 F= -.85971138E+03 E0= -.85971138E+03  d E =0.333538E-03  mag=     0.0000
quench:  g(F)=  0.000E+00 g(S)=  0.000E+00 dE (1.order)= 0.000E+00
 bond charge predicted
       N       E                     dE             d eps       ncg     rms          rms(c)
DAV:   1    -0.851797069527E+03    0.51031E-02   -0.18722E+00  3880   0.295E+00    0.256E-01
DAV:   2    -0.851800648835E+03   -0.35793E-02   -0.43089E-02  4020   0.399E-01    0.190E-01
DAV:   3    -0.851800443345E+03    0.20549E-03   -0.86836E-04  4840   0.646E-02    0.146E-01
DAV:   4    -0.851800468089E+03   -0.24744E-04   -0.95388E-04  4220   0.745E-02    0.463E-02
DAV:   5    -0.851800528626E+03   -0.60537E-04   -0.24327E-04  4240   0.302E-02    0.250E-02
DAV:   6    -0.851800530845E+03   -0.22191E-05   -0.45880E-05  4120   0.141E-02    0.103E-02
DAV:   7    -0.851800533315E+03   -0.24692E-05   -0.59981E-06  4360   0.509E-03    0.643E-03
DAV:   8    -0.851800533534E+03   -0.21965E-06   -0.15898E-06  2920   0.327E-03
 101 F= -.85970963E+03 E0= -.85970963E+03  d E =0.175589E-02  mag=     0.0000
quench:  g(F)=  0.000E+00 g(S)=  0.000E+00 dE (1.order)= 0.000E+00
 bond charge predicted
       N       E                     dE             d eps       ncg     rms          rms(c)
DAV:   1    -0.851802340804E+03   -0.18075E-02   -0.10013E-01  3900   0.727E-01    0.721E-02
DAV:   2    -0.851802522163E+03   -0.18136E-03   -0.26151E-03  4700   0.106E-01    0.661E-02
DAV:   3    -0.851802473415E+03    0.48748E-04   -0.12891E-04  4940   0.235E-02    0.513E-02
DAV:   4    -0.851802431765E+03    0.41650E-04   -0.10168E-04  4260   0.235E-02    0.241E-02
DAV:   5    -0.851802429669E+03    0.20958E-05   -0.29719E-05  4260   0.115E-02    0.102E-02
DAV:   6    -0.851802430066E+03   -0.39724E-06   -0.32479E-06  3320   0.413E-03
 102 F= -.85971155E+03 E0= -.85971155E+03  d E =-.192031E-02  mag=     0.0000
quench:  g(F)=  0.000E+00 g(S)=  0.000E+00 dE (1.order)= 0.000E+00
 bond charge predicted
       N       E                     dE             d eps       ncg     rms          rms(c)
DAV:   1    -0.851802436431E+03   -0.67616E-05   -0.97587E-05  3960   0.211E-02    0.337E-03
DAV:   2    -0.851802436484E+03   -0.52853E-07   -0.20290E-06  2800   0.297E-03
 103 F= -.85971155E+03 E0= -.85971155E+03  d E =-.572078E-05  mag=    -0.0000
quench:  g(F)=  0.000E+00 g(S)=  0.000E+00 dE (1.order)= 0.000E+00
 bond charge predicted
       N       E                     dE             d eps       ncg     rms          rms(c)
DAV:   1    -0.851802446097E+03   -0.96663E-05   -0.36707E-04  3920   0.407E-02    0.474E-03
DAV:   2    -0.851802446437E+03   -0.34006E-06   -0.73640E-06  4060   0.533E-03
 104 F= -.85971156E+03 E0= -.85971156E+03  d E =-.858019E-05  mag=     0.0000
quench:  g(F)=  0.000E+00 g(S)=  0.000E+00 dE (1.order)= 0.000E+00
 bond charge predicted
       N       E                     dE             d eps       ncg     rms          rms(c)
DAV:   1    -0.851802456597E+03   -0.10500E-04   -0.77120E-04  3900   0.582E-02    0.769E-03
DAV:   2    -0.851802457048E+03   -0.45088E-06   -0.15036E-05  4120   0.756E-03    0.614E-03
DAV:   3    -0.851802457042E+03    0.61482E-08   -0.54267E-07  2640   0.189E-03
 105 F= -.85971157E+03 E0= -.85971157E+03  d E =-.858733E-05  mag=    -0.0000
quench:  g(F)=  0.000E+00 g(S)=  0.000E+00 dE (1.order)= 0.000E+00
 bond charge predicted
       N       E                     dE             d eps       ncg     rms          rms(c)
DAV:   1    -0.851802466461E+03   -0.94128E-05   -0.12620E-03  3880   0.734E-02    0.752E-03
DAV:   2    -0.851802467823E+03   -0.13620E-05   -0.23249E-05  4040   0.913E-03    0.562E-03
DAV:   3    -0.851802467894E+03   -0.71079E-07   -0.41361E-07  2660   0.162E-03
 106 F= -.85971158E+03 E0= -.85971158E+03  d E =-.834535E-05  mag=     0.0000
quench:  g(F)=  0.000E+00 g(S)=  0.000E+00 dE (1.order)= 0.000E+00
 bond charge predicted
       N       E                     dE             d eps       ncg     rms          rms(c)
DAV:   1    -0.851802478160E+03   -0.10338E-04   -0.18734E-03  3880   0.888E-02    0.879E-03
DAV:   2    -0.851802480288E+03   -0.21279E-05   -0.34623E-05  3920   0.111E-02    0.649E-03
DAV:   3    -0.851802480346E+03   -0.57182E-07   -0.58915E-07  2760   0.192E-03
 107 F= -.85971159E+03 E0= -.85971159E+03  d E =-.974939E-05  mag=     0.0000
quench:  g(F)=  0.000E+00 g(S)=  0.000E+00 dE (1.order)= 0.000E+00
 bond charge predicted
       N       E                     dE             d eps       ncg     rms          rms(c)
DAV:   1    -0.851802491453E+03   -0.11165E-04   -0.26049E-03  3880   0.105E-01    0.103E-02
DAV:   2    -0.851802494467E+03   -0.30136E-05   -0.48087E-05  3860   0.131E-02    0.764E-03
DAV:   3    -0.851802494505E+03   -0.38403E-07   -0.80379E-07  2860   0.224E-03
 108 F= -.85971160E+03 E0= -.85971160E+03  d E =-.113102E-04  mag=     0.0000
quench:  g(F)=  0.000E+00 g(S)=  0.000E+00 dE (1.order)= 0.000E+00
 bond charge predicted
       N       E                     dE             d eps       ncg     rms          rms(c)
DAV:   1    -0.851802505500E+03   -0.11033E-04   -0.43217E-03  3880   0.136E-01    0.132E-02
DAV:   2    -0.851802510808E+03   -0.53087E-05   -0.80582E-05  3860   0.170E-02    0.979E-03
DAV:   3    -0.851802510805E+03    0.35725E-08   -0.14742E-06  3200   0.291E-03
 109 F= -.85971161E+03 E0= -.85971161E+03  d E =-.130276E-04  mag=    -0.0000
quench:  g(F)=  0.000E+00 g(S)=  0.000E+00 dE (1.order)= 0.000E+00
 bond charge predicted
       N       E                     dE             d eps       ncg     rms          rms(c)
DAV:   1    -0.851802519640E+03   -0.88313E-05   -0.70575E-03  3880   0.173E-01    0.169E-02
DAV:   2    -0.851802528477E+03   -0.88373E-05   -0.13171E-04  3860   0.217E-02    0.125E-02
DAV:   3    -0.851802528569E+03   -0.92288E-07   -0.24137E-06  3440   0.368E-03
 110 F= -.85971163E+03 E0= -.85971163E+03  d E =-.133090E-04  mag=     0.0000
quench:  g(F)=  0.000E+00 g(S)=  0.000E+00 dE (1.order)= 0.000E+00
 bond charge predicted
       N       E                     dE             d eps       ncg     rms          rms(c)
DAV:   1    -0.851802533419E+03   -0.49421E-05   -0.11402E-02  3880   0.220E-01    0.215E-02
DAV:   2    -0.851802547827E+03   -0.14408E-04   -0.21349E-04  3840   0.276E-02    0.158E-02
DAV:   3    -0.851802548134E+03   -0.30680E-06   -0.39632E-06  3840   0.462E-03
 111 F= -.85971164E+03 E0= -.85971164E+03  d E =-.134995E-04  mag=    -0.0000
quench:  g(F)=  0.000E+00 g(S)=  0.000E+00 dE (1.order)= 0.000E+00
 bond charge predicted
       N       E                     dE             d eps       ncg     rms          rms(c)
DAV:   1    -0.851802545397E+03    0.24300E-05   -0.17701E-02  3880   0.275E-01    0.270E-02
DAV:   2    -0.851802567260E+03   -0.21863E-04   -0.33039E-04  3840   0.345E-02    0.199E-02
DAV:   3    -0.851802568017E+03   -0.75733E-06   -0.64692E-06  4320   0.585E-03
 112 F= -.85971165E+03 E0= -.85971165E+03  d E =-.122750E-04  mag=     0.0000
quench:  g(F)=  0.000E+00 g(S)=  0.000E+00 dE (1.order)= 0.000E+00
 bond charge predicted
       N       E                     dE             d eps       ncg     rms          rms(c)
DAV:   1    -0.851802550221E+03    0.17039E-04   -0.27198E-02  3880   0.341E-01    0.337E-02
DAV:   2    -0.851802583435E+03   -0.33214E-04   -0.50870E-04  3840   0.429E-02    0.250E-02
DAV:   3    -0.851802584627E+03   -0.11920E-05   -0.10155E-05  4520   0.731E-03    0.184E-02
DAV:   4    -0.851802592605E+03   -0.79777E-05   -0.12815E-05  3680   0.862E-03    0.405E-03
DAV:   5    -0.851802593005E+03   -0.40001E-06   -0.34903E-06  3420   0.352E-03
 113 F= -.85971167E+03 E0= -.85971167E+03  d E =-.142760E-04  mag=    -0.0000
quench:  g(F)=  0.000E+00 g(S)=  0.000E+00 dE (1.order)= 0.000E+00
 bond charge predicted
       N       E                     dE             d eps       ncg     rms          rms(c)
DAV:   1    -0.851802559722E+03    0.32882E-04   -0.42487E-02  3900   0.426E-01    0.402E-02
DAV:   2    -0.851802619387E+03   -0.59665E-04   -0.85329E-04  3840   0.556E-02    0.294E-02
DAV:   3    -0.851802618149E+03    0.12375E-05   -0.16484E-05  4560   0.938E-03    0.218E-02
DAV:   4    -0.851802627177E+03   -0.90279E-05   -0.23383E-05  3660   0.114E-02    0.524E-03
DAV:   5    -0.851802627830E+03   -0.65307E-06   -0.58455E-06  3940   0.457E-03
 114 F= -.85971169E+03 E0= -.85971169E+03  d E =-.196489E-04  mag=     0.0000
quench:  g(F)=  0.000E+00 g(S)=  0.000E+00 dE (1.order)= 0.000E+00
 bond charge predicted
       N       E                     dE             d eps       ncg     rms          rms(c)
DAV:   1    -0.851802565657E+03    0.61521E-04   -0.65583E-02  3900   0.529E-01    0.500E-02
DAV:   2    -0.851802660760E+03   -0.95103E-04   -0.13360E-03  3840   0.691E-02    0.362E-02
DAV:   3    -0.851802659076E+03    0.16839E-05   -0.24825E-05  4520   0.115E-02    0.270E-02
DAV:   4    -0.851802672920E+03   -0.13844E-04   -0.35530E-05  3740   0.142E-02    0.638E-03
DAV:   5    -0.851802673847E+03   -0.92774E-06   -0.88131E-06  4120   0.565E-03
 115 F= -.85971171E+03 E0= -.85971171E+03  d E =-.247324E-04  mag=    -0.0000
quench:  g(F)=  0.000E+00 g(S)=  0.000E+00 dE (1.order)= 0.000E+00
 bond charge predicted
       N       E                     dE             d eps       ncg     rms          rms(c)
DAV:   1    -0.851802591717E+03    0.81202E-04   -0.96361E-02  3900   0.637E-01    0.609E-02
DAV:   2    -0.851802730208E+03   -0.13849E-03   -0.19466E-03  3860   0.829E-02    0.440E-02
DAV:   3    -0.851802727790E+03    0.24181E-05   -0.36189E-05  4480   0.139E-02    0.327E-02
DAV:   4    -0.851802748371E+03   -0.20582E-04   -0.53798E-05  4000   0.174E-02    0.759E-03
DAV:   5    -0.851802749486E+03   -0.11147E-05   -0.12824E-05  4220   0.694E-03    0.487E-03
DAV:   6    -0.851802749641E+03   -0.15468E-06   -0.20166E-06  3020   0.315E-03
 116 F= -.85971176E+03 E0= -.85971176E+03  d E =-.460083E-04  mag=    -0.0000
quench:  g(F)=  0.000E+00 g(S)=  0.000E+00 dE (1.order)= 0.000E+00
 bond charge predicted
       N       E                     dE             d eps       ncg     rms          rms(c)
DAV:   1    -0.851802642654E+03    0.10683E-03   -0.14448E-01  3900   0.778E-01    0.737E-02
[...]
DAV:   4    -0.851851437674E+03   -0.46688E-04   -0.17791E-04  4040   0.313E-02    0.173E-02
DAV:   5    -0.851851438870E+03   -0.11962E-05   -0.56799E-05  4280   0.146E-02    0.955E-03
DAV:   6    -0.851851439739E+03   -0.86950E-06   -0.78314E-06  4140   0.550E-03
 413 F= -.85975377E+03 E0= -.85975377E+03  d E =-.340649E-03  mag=     0.0000
quench:  g(F)=  0.000E+00 g(S)=  0.000E+00 dE (1.order)= 0.000E+00
 bond charge predicted
       N       E                     dE             d eps       ncg     rms          rms(c)
DAV:   1    -0.851850099390E+03    0.13395E-02   -0.45055E-01  3840   0.143E+00    0.150E-01
DAV:   2    -0.851850802322E+03   -0.70293E-03   -0.96387E-03  4300   0.193E-01    0.125E-01
DAV:   3    -0.851850694222E+03    0.10810E-03   -0.39045E-04  4840   0.428E-02    0.922E-02
DAV:   4    -0.851850690024E+03    0.41974E-05   -0.33784E-04  4000   0.444E-02    0.324E-02
DAV:   5    -0.851850705190E+03   -0.15166E-04   -0.94360E-05  4360   0.191E-02    0.158E-02
DAV:   6    -0.851850706637E+03   -0.14471E-05   -0.15718E-05  4340   0.767E-03    0.717E-03
DAV:   7    -0.851850706523E+03    0.11433E-06   -0.13058E-06  2880   0.291E-03
 414 F= -.85975287E+03 E0= -.85975287E+03  d E =0.901762E-03  mag=    -0.0000
quench:  g(F)=  0.000E+00 g(S)=  0.000E+00 dE (1.order)= 0.000E+00
 bond charge predicted
       N       E                     dE             d eps       ncg     rms          rms(c)
DAV:   1    -0.851852289685E+03   -0.15830E-02   -0.11371E-01  3840   0.779E-01    0.765E-02
DAV:   2    -0.851852496734E+03   -0.20705E-03   -0.29505E-03  4660   0.113E-01    0.697E-02
DAV:   3    -0.851852442934E+03    0.53801E-04   -0.14870E-04  5100   0.253E-02    0.536E-02
DAV:   4    -0.851852392286E+03    0.50648E-04   -0.98786E-05  4240   0.241E-02    0.238E-02
DAV:   5    -0.851852389507E+03    0.27789E-05   -0.37895E-05  4380   0.130E-02    0.888E-03
DAV:   6    -0.851852389835E+03   -0.32844E-06   -0.36240E-06  3220   0.415E-03
 415 F= -.85975455E+03 E0= -.85975455E+03  d E =-.167944E-02  mag=     0.0000
quench:  g(F)=  0.000E+00 g(S)=  0.000E+00 dE (1.order)= 0.000E+00
 bond charge predicted
       N       E                     dE             d eps       ncg     rms          rms(c)
DAV:   1    -0.851852425252E+03   -0.35745E-04   -0.26163E-04  3960   0.373E-02    0.436E-03
DAV:   2    -0.851852425541E+03   -0.28874E-06   -0.67520E-06  4600   0.552E-03
 416 F= -.85975458E+03 E0= -.85975458E+03  d E =-.346040E-04  mag=    -0.0000
quench:  g(F)=  0.000E+00 g(S)=  0.000E+00 dE (1.order)= 0.000E+00
 bond charge predicted
       N       E                     dE             d eps       ncg     rms          rms(c)
DAV:   1    -0.851852466649E+03   -0.41397E-04   -0.81477E-04  3840   0.660E-02    0.835E-03
DAV:   2    -0.851852467613E+03   -0.96410E-06   -0.20344E-05  4760   0.950E-03    0.742E-03
DAV:   3    -0.851852466805E+03    0.80820E-06   -0.11932E-06  2370   0.269E-03
 417 F= -.85975462E+03 E0= -.85975462E+03  d E =-.392932E-04  mag=    -0.0000
quench:  g(F)=  0.000E+00 g(S)=  0.000E+00 dE (1.order)= 0.000E+00
 bond charge predicted
       N       E                     dE             d eps       ncg     rms          rms(c)
DAV:   1    -0.851852488623E+03   -0.21010E-04   -0.11206E-03  3840   0.770E-02    0.816E-03
DAV:   2    -0.851852490591E+03   -0.19679E-05   -0.25743E-05  4640   0.105E-02    0.709E-03
DAV:   3    -0.851852490207E+03    0.38384E-06   -0.83898E-07  2390   0.225E-03
 418 F= -.85975464E+03 E0= -.85975464E+03  d E =-.202485E-04  mag=     0.0000
quench:  g(F)=  0.000E+00 g(S)=  0.000E+00 dE (1.order)= 0.000E+00
 bond charge predicted
       N       E                     dE             d eps       ncg     rms          rms(c)
DAV:   1    -0.851852505344E+03   -0.14753E-04   -0.10457E-03  3840   0.722E-02    0.710E-03
DAV:   2    -0.851852507314E+03   -0.19705E-05   -0.23095E-05  4400   0.953E-03    0.573E-03
DAV:   3    -0.851852507197E+03    0.11703E-06   -0.49358E-07  2440   0.175E-03
 419 F= -.85975465E+03 E0= -.85975465E+03  d E =-.130688E-04  mag=    -0.0000
quench:  g(F)=  0.000E+00 g(S)=  0.000E+00 dE (1.order)= 0.000E+00
 bond charge predicted
       N       E                     dE             d eps       ncg     rms          rms(c)
DAV:   1    -0.851852542736E+03   -0.35422E-04   -0.10925E-03  3860   0.706E-02    0.672E-03
DAV:   2    -0.851852544756E+03   -0.20207E-05   -0.23078E-05  3940   0.898E-03    0.497E-03
DAV:   3    -0.851852544754E+03    0.18772E-08   -0.30082E-07  2360   0.144E-03
 420 F= -.85975469E+03 E0= -.85975469E+03  d E =-.330683E-04  mag=    -0.0000
quench:  g(F)=  0.000E+00 g(S)=  0.000E+00 dE (1.order)= 0.000E+00
 bond charge predicted
       N       E                     dE             d eps       ncg     rms          rms(c)
DAV:   1    -0.851852604627E+03   -0.59870E-04   -0.16297E-03  3880   0.876E-02    0.809E-03
DAV:   2    -0.851852607686E+03   -0.30592E-05   -0.35357E-05  3940   0.114E-02    0.613E-03
DAV:   3    -0.851852607615E+03    0.70329E-07   -0.56253E-07  2780   0.188E-03
 421 F= -.85975474E+03 E0= -.85975474E+03  d E =-.578105E-04  mag=    -0.0000
quench:  g(F)=  0.000E+00 g(S)=  0.000E+00 dE (1.order)= 0.000E+00
 bond charge predicted
       N       E                     dE             d eps       ncg     rms          rms(c)
DAV:   1    -0.851852675275E+03   -0.67589E-04   -0.31799E-03  3880   0.124E-01    0.116E-02
DAV:   2    -0.851852681226E+03   -0.59512E-05   -0.70463E-05  4140   0.164E-02    0.911E-03
DAV:   3    -0.851852680937E+03    0.28887E-06   -0.13885E-06  3080   0.283E-03
 422 F= -.85975481E+03 E0= -.85975481E+03  d E =-.676012E-04  mag=     0.0000
quench:  g(F)=  0.000E+00 g(S)=  0.000E+00 dE (1.order)= 0.000E+00
 bond charge predicted
       N       E                     dE             d eps       ncg     rms          rms(c)
DAV:   1    -0.851852732920E+03   -0.51694E-04   -0.55999E-03  3880   0.162E-01    0.153E-02
DAV:   2    -0.851852743286E+03   -0.10366E-04   -0.12232E-04  4020   0.211E-02    0.117E-02
DAV:   3    -0.851852742936E+03    0.35017E-06   -0.22067E-06  3480   0.347E-03
 423 F= -.85975487E+03 E0= -.85975487E+03  d E =-.559268E-04  mag=     0.0000
quench:  g(F)=  0.000E+00 g(S)=  0.000E+00 dE (1.order)= 0.000E+00
 bond charge predicted
       N       E                     dE             d eps       ncg     rms          rms(c)
DAV:   1    -0.851852813014E+03   -0.69728E-04   -0.83038E-03  3880   0.193E-01    0.183E-02
DAV:   2    -0.851852827997E+03   -0.14983E-04   -0.17577E-04  3880   0.246E-02    0.135E-02
DAV:   3    -0.851852827823E+03    0.17369E-06   -0.25319E-06  3760   0.372E-03
 424 F= -.85975495E+03 E0= -.85975495E+03  d E =-.780251E-04  mag=    -0.0000
quench:  g(F)=  0.000E+00 g(S)=  0.000E+00 dE (1.order)= 0.000E+00
 bond charge predicted
       N       E                     dE             d eps       ncg     rms          rms(c)
DAV:   1    -0.851852937184E+03   -0.10919E-03   -0.12732E-02  3880   0.240E-01    0.225E-02
DAV:   2    -0.851852960430E+03   -0.23246E-04   -0.27164E-04  3880   0.311E-02    0.167E-02
DAV:   3    -0.851852959939E+03    0.49088E-06   -0.44886E-06  4280   0.480E-03
 425 F= -.85975507E+03 E0= -.85975507E+03  d E =-.122889E-03  mag=     0.0000
quench:  g(F)=  0.000E+00 g(S)=  0.000E+00 dE (1.order)= 0.000E+00
 bond charge predicted
       N       E                     dE             d eps       ncg     rms          rms(c)
DAV:   1    -0.851853062165E+03   -0.10174E-03   -0.18526E-02  3880   0.291E-01    0.281E-02
DAV:   2    -0.851853095581E+03   -0.33415E-04   -0.39407E-04  3880   0.379E-02    0.213E-02
DAV:   3    -0.851853094725E+03    0.85532E-06   -0.73482E-06  4660   0.608E-03
 426 F= -.85975519E+03 E0= -.85975519E+03  d E =-.120964E-03  mag=     0.0000
quench:  g(F)=  0.000E+00 g(S)=  0.000E+00 dE (1.order)= 0.000E+00
 bond charge predicted
       N       E                     dE             d eps       ncg     rms          rms(c)
DAV:   1    -0.851853230237E+03   -0.13466E-03   -0.21354E-02  3880   0.307E-01    0.310E-02
DAV:   2    -0.851853267175E+03   -0.36938E-04   -0.43604E-04  3880   0.392E-02    0.231E-02
DAV:   3    -0.851853267172E+03    0.32524E-08   -0.72616E-06  4580   0.616E-03
 427 F= -.85975534E+03 E0= -.85975534E+03  d E =-.150294E-03  mag=     0.0000
quench:  g(F)=  0.000E+00 g(S)=  0.000E+00 dE (1.order)= 0.000E+00
 bond charge predicted
       N       E                     dE             d eps       ncg     rms          rms(c)
DAV:   1    -0.851853439101E+03   -0.17193E-03   -0.23540E-02  3880   0.326E-01    0.337E-02
DAV:   2    -0.851853478252E+03   -0.39151E-04   -0.47033E-04  3960   0.420E-02    0.260E-02
DAV:   3    -0.851853477870E+03    0.38162E-06   -0.10874E-05  4840   0.738E-03    0.194E-02
DAV:   4    -0.851853482105E+03   -0.42341E-05   -0.10354E-05  3740   0.798E-03    0.477E-03
DAV:   5    -0.851853482558E+03   -0.45391E-06   -0.27178E-06  3300   0.326E-03
 428 F= -.85975552E+03 E0= -.85975552E+03  d E =-.182144E-03  mag=    -0.0000
quench:  g(F)=  0.000E+00 g(S)=  0.000E+00 dE (1.order)= 0.000E+00
 bond charge predicted
       N       E                     dE             d eps       ncg     rms          rms(c)
DAV:   1    -0.851853686306E+03   -0.20420E-03   -0.22441E-02  3880   0.304E-01    0.329E-02
DAV:   2    -0.851853723332E+03   -0.37026E-04   -0.44448E-04  3920   0.394E-02    0.244E-02
DAV:   3    -0.851853723146E+03    0.18525E-06   -0.84285E-06  4560   0.669E-03
 429 F= -.85975572E+03 E0= -.85975572E+03  d E =-.193776E-03  mag=     0.0000
quench:  g(F)=  0.000E+00 g(S)=  0.000E+00 dE (1.order)= 0.000E+00
 bond charge predicted
       N       E                     dE             d eps       ncg     rms          rms(c)
DAV:   1    -0.851853954928E+03   -0.23160E-03   -0.26504E-02  3840   0.316E-01    0.393E-02
DAV:   2    -0.851853992595E+03   -0.37668E-04   -0.49399E-04  4000   0.400E-02    0.295E-02
DAV:   3    -0.851853994873E+03   -0.22776E-05   -0.12596E-05  4540   0.784E-03    0.212E-02
DAV:   4    -0.851854002657E+03   -0.77840E-05   -0.12323E-05  3860   0.834E-03    0.515E-03
DAV:   5    -0.851854003051E+03   -0.39374E-06   -0.30800E-06  3280   0.361E-03
 430 F= -.85975593E+03 E0= -.85975593E+03  d E =-.216379E-03  mag=     0.0000
quench:  g(F)=  0.000E+00 g(S)=  0.000E+00 dE (1.order)= 0.000E+00
 bond charge predicted
       N       E                     dE             d eps       ncg     rms          rms(c)
DAV:   1    -0.851854272876E+03   -0.27022E-03   -0.34953E-02  3840   0.339E-01    0.436E-02
DAV:   2    -0.851854317653E+03   -0.44777E-04   -0.63378E-04  3980   0.420E-02    0.318E-02
DAV:   3    -0.851854320864E+03   -0.32117E-05   -0.14368E-05  4520   0.851E-03    0.228E-02
DAV:   4    -0.851854331266E+03   -0.10402E-04   -0.18144E-05  3760   0.997E-03    0.496E-03
DAV:   5    -0.851854331417E+03   -0.15115E-06   -0.51451E-06  3800   0.444E-03
 431 F= -.85975618E+03 E0= -.85975618E+03  d E =-.248938E-03  mag=     0.0000
quench:  g(F)=  0.000E+00 g(S)=  0.000E+00 dE (1.order)= 0.000E+00
 bond charge predicted
       N       E                     dE             d eps       ncg     rms          rms(c)
DAV:   1    -0.851854558988E+03   -0.22772E-03   -0.61780E-02  3840   0.466E-01    0.565E-02
DAV:   2    -0.851854638981E+03   -0.79993E-04   -0.11576E-03  3960   0.588E-02    0.411E-02
DAV:   3    -0.851854642624E+03   -0.36432E-05   -0.26501E-05  4500   0.116E-02    0.295E-02
DAV:   4    -0.851854660209E+03   -0.17584E-04   -0.32951E-05  3840   0.134E-02    0.695E-03
DAV:   5    -0.851854660716E+03   -0.50696E-06   -0.96471E-06  4310   0.598E-03
 432 F= -.85975641E+03 E0= -.85975641E+03  d E =-.232244E-03  mag=    -0.0000
quench:  g(F)=  0.000E+00 g(S)=  0.000E+00 dE (1.order)= 0.000E+00
 bond charge predicted
       N       E                     dE             d eps       ncg     rms          rms(c)
DAV:   1    -0.851854829469E+03   -0.16926E-03   -0.10995E-01  3880   0.648E-01    0.734E-02
DAV:   2    -0.851854982847E+03   -0.15338E-03   -0.21813E-03  3980   0.840E-02    0.534E-02
DAV:   3    -0.851854985470E+03   -0.26228E-05   -0.50719E-05  4640   0.160E-02    0.389E-02
DAV:   4    -0.851855010654E+03   -0.25184E-04   -0.59663E-05  3820   0.183E-02    0.101E-02
DAV:   5    -0.851855012648E+03   -0.19940E-05   -0.16569E-05  4320   0.776E-03    0.600E-03
DAV:   6    -0.851855012717E+03   -0.68729E-07   -0.31894E-06  3440   0.369E-03
 433 F= -.85975665E+03 E0= -.85975665E+03  d E =-.232324E-03  mag=    -0.0000
quench:  g(F)=  0.000E+00 g(S)=  0.000E+00 dE (1.order)= 0.000E+00
 bond charge predicted
       N       E                     dE             d eps       ncg     rms          rms(c)
DAV:   1    -0.851855076253E+03   -0.63605E-04   -0.16352E-01  3860   0.817E-01    0.887E-02
DAV:   2    -0.851855315532E+03   -0.23928E-03   -0.33069E-03  3960   0.107E-01    0.672E-02
DAV:   3    -0.851855308881E+03    0.66505E-05   -0.88307E-05  4760   0.210E-02    0.493E-02
DAV:   4    -0.851855336336E+03   -0.27455E-04   -0.95532E-05  3840   0.235E-02    0.136E-02
DAV:   5    -0.851855340010E+03   -0.36740E-05   -0.26785E-05  4320   0.985E-03    0.775E-03
DAV:   6    -0.851855340168E+03   -0.15796E-06   -0.45926E-06  3700   0.440E-03
 434 F= -.85975682E+03 E0= -.85975682E+03  d E =-.172826E-03  mag=     0.0000
quench:  g(F)=  0.000E+00 g(S)=  0.000E+00 dE (1.order)= 0.000E+00
 bond charge predicted
       N       E                     dE             d eps       ncg     rms          rms(c)
DAV:   1    -0.851855518569E+03   -0.17856E-03   -0.65631E-03  3860   0.186E-01    0.186E-02
DAV:   2    -0.851855530128E+03   -0.11560E-04   -0.16694E-04  4640   0.267E-02    0.173E-02
DAV:   3    -0.851855527082E+03    0.30468E-05   -0.77494E-06  4840   0.584E-03    0.136E-02
DAV:   4    -0.851855523593E+03    0.34885E-05   -0.64798E-06  3880   0.625E-03    0.564E-03
DAV:   5    -0.851855523432E+03    0.16129E-06   -0.23974E-06  2680   0.329E-03
 435 F= -.85975700E+03 E0= -.85975700E+03  d E =-.186202E-03  mag=    -0.0000
quench:  g(F)=  0.000E+00 g(S)=  0.000E+00 dE (1.order)= 0.000E+00
 bond charge predicted
       N       E                     dE             d eps       ncg     rms          rms(c)
DAV:   1    -0.851855435450E+03    0.88143E-04   -0.77232E-03  3840   0.203E-01    0.199E-02
DAV:   2    -0.851855449900E+03   -0.14450E-04   -0.19332E-04  4640   0.289E-02    0.181E-02
DAV:   3    -0.851855446880E+03    0.30202E-05   -0.86693E-06  4920   0.621E-03    0.144E-02
DAV:   4    -0.851855443714E+03    0.31665E-05   -0.71812E-06  3900   0.658E-03    0.586E-03
DAV:   5    -0.851855443658E+03    0.55574E-07   -0.23032E-06  2800   0.324E-03
 436 F= -.85975693E+03 E0= -.85975693E+03  d E =0.782330E-04  mag=    -0.0000
quench:  g(F)=  0.000E+00 g(S)=  0.000E+00 dE (1.order)= 0.000E+00
 bond charge predicted
       N       E                     dE             d eps       ncg     rms          rms(c)
DAV:   1    -0.851855493974E+03   -0.50260E-04   -0.28272E-04  3840   0.387E-02    0.402E-03
DAV:   2    -0.851855494440E+03   -0.46667E-06   -0.75801E-06  4600   0.574E-03
 437 F= -.85975698E+03 E0= -.85975698E+03  d E =-.498795E-04  mag=    -0.0000
quench:  g(F)=  0.000E+00 g(S)=  0.000E+00 dE (1.order)= 0.000E+00
 bond charge predicted
       N       E                     dE             d eps       ncg     rms          rms(c)
DAV:   1    -0.851855557324E+03   -0.63350E-04   -0.89813E-04  3840   0.691E-02    0.920E-03
DAV:   2    -0.851855558352E+03   -0.10284E-05   -0.22468E-05  4820   0.994E-03    0.822E-03
DAV:   3    -0.851855557326E+03    0.10267E-05   -0.15899E-06  2420   0.309E-03    0.539E-03
DAV:   4    -0.851855556948E+03    0.37743E-06   -0.19572E-06  2240   0.330E-03
 438 F= -.85975704E+03 E0= -.85975704E+03  d E =-.607804E-04  mag=     0.0000
quench:  g(F)=  0.000E+00 g(S)=  0.000E+00 dE (1.order)= 0.000E+00
 bond charge predicted
       N       E                     dE             d eps       ncg     rms          rms(c)
DAV:   1    -0.851855586263E+03   -0.28937E-04   -0.13287E-03  3840   0.842E-02    0.852E-03
DAV:   2    -0.851855588787E+03   -0.25239E-05   -0.33814E-05  4660   0.122E-02    0.781E-03
DAV:   3    -0.851855588235E+03    0.55230E-06   -0.13325E-06  2580   0.271E-03
 439 F= -.85975707E+03 E0= -.85975707E+03  d E =-.287988E-04  mag=    -0.0000
quench:  g(F)=  0.000E+00 g(S)=  0.000E+00 dE (1.order)= 0.000E+00
 bond charge predicted
       N       E                     dE             d eps       ncg     rms          rms(c)
DAV:   1    -0.851855579619E+03    0.91675E-05   -0.10190E-03  3840   0.738E-02    0.859E-03
DAV:   2    -0.851855581222E+03   -0.16027E-05   -0.22402E-05  4720   0.995E-03    0.763E-03
DAV:   3    -0.851855580724E+03    0.49818E-06   -0.93435E-07  2480   0.240E-03
 440 F= -.85975706E+03 E0= -.85975706E+03  d E =0.102185E-04  mag=     0.0000
quench:  g(F)=  0.000E+00 g(S)=  0.000E+00 dE (1.order)= 0.000E+00
 bond charge predicted
       N       E                     dE             d eps       ncg     rms          rms(c)
DAV:   1    -0.851855584533E+03   -0.33113E-05   -0.95803E-06  3860   0.723E-03    0.166E-03
DAV:   2    -0.851855584548E+03   -0.14799E-07   -0.63644E-07  2100   0.174E-03
 441 F= -.85975706E+03 E0= -.85975706E+03  d E =-.388522E-05  mag=     0.0000
quench:  g(F)=  0.000E+00 g(S)=  0.000E+00 dE (1.order)= 0.000E+00
 bond charge predicted
       N       E                     dE             d eps       ncg     rms          rms(c)
DAV:   1    -0.851855591970E+03   -0.74363E-05   -0.17684E-05  3960   0.970E-03    0.137E-03
DAV:   2    -0.851855591982E+03   -0.11802E-07   -0.37935E-07  2100   0.141E-03
 442 F= -.85975707E+03 E0= -.85975707E+03  d E =-.755411E-05  mag=    -0.0000
quench:  g(F)=  0.000E+00 g(S)=  0.000E+00 dE (1.order)= 0.000E+00
 bond charge predicted
       N       E                     dE             d eps       ncg     rms          rms(c)
DAV:   1    -0.851855601600E+03   -0.96300E-05   -0.36663E-05  3900   0.139E-02    0.193E-03
DAV:   2    -0.851855601634E+03   -0.34539E-07   -0.78649E-07  2000   0.202E-03
 443 F= -.85975708E+03 E0= -.85975708E+03  d E =-.983223E-05  mag=     0.0000
quench:  g(F)=  0.000E+00 g(S)=  0.000E+00 dE (1.order)= 0.000E+00
 bond charge predicted
       N       E                     dE             d eps       ncg     rms          rms(c)
DAV:   1    -0.851855611619E+03   -0.10020E-04   -0.57383E-05  3920   0.174E-02    0.259E-03
DAV:   2    -0.851855611673E+03   -0.53355E-07   -0.12508E-06  2720   0.254E-03
 444 F= -.85975709E+03 E0= -.85975709E+03  d E =-.102345E-04  mag=     0.0000
quench:  g(F)=  0.000E+00 g(S)=  0.000E+00 dE (1.order)= 0.000E+00
 bond charge predicted
       N       E                     dE             d eps       ncg     rms          rms(c)
DAV:   1    -0.851855620758E+03   -0.91390E-05   -0.74250E-05  3880   0.198E-02    0.302E-03
DAV:   2    -0.851855620834E+03   -0.75954E-07   -0.16166E-06  2640   0.285E-03
 445 F= -.85975710E+03 E0= -.85975710E+03  d E =-.929341E-05  mag=     0.0000
quench:  g(F)=  0.000E+00 g(S)=  0.000E+00 dE (1.order)= 0.000E+00
 bond charge predicted
       N       E                     dE             d eps       ncg     rms          rms(c)
DAV:   1    -0.851855628259E+03   -0.75005E-05   -0.83214E-05  3880   0.210E-02    0.329E-03
DAV:   2    -0.851855628337E+03   -0.78107E-07   -0.17325E-06  3080   0.297E-03
 446 F= -.85975710E+03 E0= -.85975710E+03  d E =-.759477E-05  mag=    -0.0000
quench:  g(F)=  0.000E+00 g(S)=  0.000E+00 dE (1.order)= 0.000E+00
 bond charge predicted
       N       E                     dE             d eps       ncg     rms          rms(c)
DAV:   1    -0.851855634865E+03   -0.66063E-05   -0.98240E-05  3860   0.227E-02    0.348E-03
DAV:   2    -0.851855634971E+03   -0.10573E-06   -0.20598E-06  3040   0.317E-03
 447 F= -.85975711E+03 E0= -.85975711E+03  d E =-.652273E-05  mag=     0.0000
quench:  g(F)=  0.000E+00 g(S)=  0.000E+00 dE (1.order)= 0.000E+00
 reached required accuracy - stopping structural energy minimisation
