  98  98   0   0
  0.3953964E+02  0.1727104E-08  0.1727104E-08  0.1500000E-08  0.0000000E+00
  1.000000000000000E-004
  CAR 
 unknown system                          
      5.97180347    -25.95886859  301     -2.38469157      1.00000000
    -25.959  0.0000E+00  0.0000E+00  0.0000E+00  0.0000E+00
    -25.852  0.0000E+00  0.0000E+00  0.0000E+00  0.0000E+00
    -25.746  0.0000E+00  0.0000E+00  0.0000E+00  0.0000E+00
    -25.640  0.0000E+00  0.0000E+00  0.0000E+00  0.0000E+00
    -25.533  0.0000E+00  0.0000E+00  0.0000E+00  0.0000E+00
    -25.427  0.0000E+00  0.0000E+00  0.0000E+00  0.0000E+00
    -25.320  0.0000E+00  0.0000E+00  0.0000E+00  0.0000E+00
    -25.214  0.0000E+00  0.0000E+00  0.0000E+00  0.0000E+00
    -25.107  0.0000E+00  0.0000E+00  0.0000E+00  0.0000E+00
    -25.001  0.0000E+00  0.0000E+00  0.0000E+00  0.0000E+00
    -24.895  0.0000E+00  0.0000E+00  0.0000E+00  0.0000E+00
    -24.788  0.9909E-17  0.9909E-17  0.1055E-17  0.1055E-17
    -24.682  0.3931E-08  0.3931E-08  0.4184E-09  0.4184E-09
    -24.575  0.2600E-03  0.2600E-03  0.2768E-04  0.2768E-04
    -24.469  0.7849E-02  0.7849E-02  0.8631E-03  0.8631E-03
    -24.362  0.1286E-02  0.1286E-02  0.1000E-02  0.1000E-02
    -24.256  0.1901E-06  0.1901E-06  0.1000E-02  0.1000E-02
    -24.149  0.5248E-14  0.5248E-14  0.1000E-02  0.1000E-02
    -24.043  0.0000E+00  0.0000E+00  0.1000E-02  0.1000E-02
    -23.937  0.0000E+00  0.0000E+00  0.1000E-02  0.1000E-02
    -23.830  0.0000E+00  0.0000E+00  0.1000E-02  0.1000E-02
    -23.724  0.0000E+00  0.0000E+00  0.1000E-02  0.1000E-02
    -23.617  0.0000E+00  0.0000E+00  0.1000E-02  0.1000E-02
    -23.511  0.0000E+00  0.0000E+00  0.1000E-02  0.1000E-02
    -23.404  0.0000E+00  0.0000E+00  0.1000E-02  0.1000E-02
    -23.298  0.0000E+00  0.0000E+00  0.1000E-02  0.1000E-02
    -23.192  0.0000E+00  0.0000E+00  0.1000E-02  0.1000E-02
    -23.085  0.0000E+00  0.0000E+00  0.1000E-02  0.1000E-02
    -22.979  0.0000E+00  0.0000E+00  0.1000E-02  0.1000E-02
    -22.872  0.0000E+00  0.0000E+00  0.1000E-02  0.1000E-02
    -22.766  0.0000E+00  0.0000E+00  0.1000E-02  0.1000E-02
    -22.659  0.0000E+00  0.0000E+00  0.1000E-02  0.1000E-02
    -22.553  0.0000E+00  0.0000E+00  0.1000E-02  0.1000E-02
    -22.446  0.3978E-10  0.3978E-10  0.1000E-02  0.1000E-02
    -22.340  0.2807E-04  0.2807E-04  0.1003E-02  0.1003E-02
    -22.234  0.5635E-02  0.5635E-02  0.1603E-02  0.1603E-02
    -22.127  0.3727E-02  0.3727E-02  0.1999E-02  0.1999E-02
    -22.021  0.5047E-05  0.5047E-05  0.2000E-02  0.2000E-02
    -21.914  0.7123E-11  0.7123E-11  0.2000E-02  0.2000E-02
    -21.808  0.6618E-05  0.6618E-05  0.2001E-02  0.2001E-02
    -21.701  0.2847E-02  0.2847E-02  0.2304E-02  0.2304E-02
    -21.595  0.8794E-02  0.8794E-02  0.3240E-02  0.3240E-02
    -21.489  0.4694E-02  0.4694E-02  0.3739E-02  0.3739E-02
    -21.382  0.4128E-02  0.4128E-02  0.4179E-02  0.4179E-02
    -21.276  0.9437E-02  0.9437E-02  0.5183E-02  0.5183E-02
    -21.169  0.6467E-02  0.6467E-02  0.5871E-02  0.5871E-02
    -21.063  0.3314E-02  0.3314E-02  0.6224E-02  0.6224E-02
    -20.956  0.2816E-02  0.2816E-02  0.6524E-02  0.6524E-02
    -20.850  0.1534E-01  0.1534E-01  0.8156E-02  0.8156E-02
    -20.744  0.5833E-02  0.5833E-02  0.8777E-02  0.8777E-02
    -20.637  0.4709E-02  0.4709E-02  0.9278E-02  0.9278E-02
    -20.531  0.4359E-02  0.4359E-02  0.9742E-02  0.9742E-02
    -20.424  0.2693E-02  0.2693E-02  0.1003E-01  0.1003E-01
    -20.318  0.9868E-02  0.9868E-02  0.1108E-01  0.1108E-01
    -20.211  0.1476E-01  0.1476E-01  0.1265E-01  0.1265E-01
    -20.105  0.4908E-02  0.4908E-02  0.1317E-01  0.1317E-01
    -19.998  0.4972E-02  0.4972E-02  0.1370E-01  0.1370E-01
    -19.892  0.4110E-02  0.4110E-02  0.1414E-01  0.1414E-01
    -19.786  0.3351E-02  0.3351E-02  0.1450E-01  0.1450E-01
    -19.679  0.9224E-02  0.9224E-02  0.1548E-01  0.1548E-01
    -19.573  0.3829E-02  0.3829E-02  0.1589E-01  0.1589E-01
    -19.466  0.1396E-01  0.1396E-01  0.1737E-01  0.1737E-01
    -19.360  0.1117E-01  0.1117E-01  0.1856E-01  0.1856E-01
    -19.253  0.4481E-02  0.4481E-02  0.1904E-01  0.1904E-01
    -19.147  0.5475E-02  0.5475E-02  0.1962E-01  0.1962E-01
    -19.041  0.3731E-02  0.3731E-02  0.2002E-01  0.2002E-01
    -18.934  0.8587E-02  0.8587E-02  0.2093E-01  0.2093E-01
    -18.828  0.5163E-02  0.5163E-02  0.2148E-01  0.2148E-01
    -18.721  0.5649E-02  0.5649E-02  0.2208E-01  0.2208E-01
    -18.615  0.4373E-02  0.4373E-02  0.2255E-01  0.2255E-01
    -18.508  0.1553E-01  0.1553E-01  0.2420E-01  0.2420E-01
    -18.402  0.9778E-02  0.9778E-02  0.2524E-01  0.2524E-01
    -18.296  0.4959E-02  0.4959E-02  0.2577E-01  0.2577E-01
    -18.189  0.7174E-02  0.7174E-02  0.2653E-01  0.2653E-01
    -18.083  0.6249E-02  0.6249E-02  0.2720E-01  0.2720E-01
    -17.976  0.8037E-02  0.8037E-02  0.2805E-01  0.2805E-01
    -17.870  0.6756E-02  0.6756E-02  0.2877E-01  0.2877E-01
    -17.763  0.5436E-02  0.5436E-02  0.2935E-01  0.2935E-01
    -17.657  0.2116E-02  0.2116E-02  0.2958E-01  0.2958E-01
    -17.550  0.6732E-02  0.6732E-02  0.3029E-01  0.3029E-01
    -17.444  0.1275E-01  0.1275E-01  0.3165E-01  0.3165E-01
    -17.338  0.1286E-01  0.1286E-01  0.3302E-01  0.3302E-01
    -17.231  0.8930E-02  0.8930E-02  0.3397E-01  0.3397E-01
    -17.125  0.1185E-01  0.1185E-01  0.3523E-01  0.3523E-01
    -17.018  0.6071E-02  0.6071E-02  0.3588E-01  0.3588E-01
    -16.912  0.5316E-02  0.5316E-02  0.3644E-01  0.3644E-01
    -16.805  0.1033E-01  0.1033E-01  0.3754E-01  0.3754E-01
    -16.699  0.4949E-02  0.4949E-02  0.3807E-01  0.3807E-01
    -16.593  0.2387E-02  0.2387E-02  0.3832E-01  0.3832E-01
    -16.486  0.6718E-02  0.6718E-02  0.3904E-01  0.3904E-01
    -16.380  0.1081E-01  0.1081E-01  0.4019E-01  0.4019E-01
    -16.273  0.1741E-01  0.1741E-01  0.4204E-01  0.4204E-01
    -16.167  0.5192E-02  0.5192E-02  0.4259E-01  0.4259E-01
    -16.060  0.3549E-02  0.3549E-02  0.4297E-01  0.4297E-01
    -15.954  0.8617E-03  0.8617E-03  0.4306E-01  0.4306E-01
    -15.847  0.4359E-02  0.4359E-02  0.4353E-01  0.4353E-01
    -15.741  0.4291E-02  0.4291E-02  0.4398E-01  0.4398E-01
    -15.635  0.2602E-02  0.2602E-02  0.4426E-01  0.4426E-01
    -15.528  0.2184E-02  0.2184E-02  0.4449E-01  0.4449E-01
    -15.422  0.6423E-02  0.6423E-02  0.4518E-01  0.4518E-01
    -15.315  0.7466E-02  0.7466E-02  0.4597E-01  0.4597E-01
    -15.209  0.7481E-02  0.7481E-02  0.4677E-01  0.4677E-01
    -15.102  0.6677E-02  0.6677E-02  0.4748E-01  0.4748E-01
    -14.996  0.7146E-02  0.7146E-02  0.4824E-01  0.4824E-01
    -14.890  0.1189E-01  0.1189E-01  0.4950E-01  0.4950E-01
    -14.783  0.1307E-01  0.1307E-01  0.5089E-01  0.5089E-01
    -14.677  0.3124E-02  0.3124E-02  0.5123E-01  0.5123E-01
    -14.570  0.8607E-02  0.8607E-02  0.5214E-01  0.5214E-01
    -14.464  0.1147E-01  0.1147E-01  0.5336E-01  0.5336E-01
    -14.357  0.8177E-02  0.8177E-02  0.5423E-01  0.5423E-01
    -14.251  0.6669E-02  0.6669E-02  0.5494E-01  0.5494E-01
    -14.145  0.1225E-01  0.1225E-01  0.5625E-01  0.5625E-01
    -14.038  0.9392E-02  0.9392E-02  0.5725E-01  0.5725E-01
    -13.932  0.6364E-02  0.6364E-02  0.5793E-01  0.5793E-01
    -13.825  0.6456E-02  0.6456E-02  0.5861E-01  0.5861E-01
    -13.719  0.2981E-02  0.2981E-02  0.5893E-01  0.5893E-01
    -13.612  0.5951E-02  0.5951E-02  0.5956E-01  0.5956E-01
    -13.506  0.6653E-02  0.6653E-02  0.6027E-01  0.6027E-01
    -13.399  0.1060E-01  0.1060E-01  0.6140E-01  0.6140E-01
    -13.293  0.7699E-02  0.7699E-02  0.6222E-01  0.6222E-01
    -13.187  0.8960E-02  0.8960E-02  0.6317E-01  0.6317E-01
    -13.080  0.4404E-02  0.4404E-02  0.6364E-01  0.6364E-01
    -12.974  0.7319E-02  0.7319E-02  0.6442E-01  0.6442E-01
    -12.867  0.7956E-03  0.7956E-03  0.6450E-01  0.6450E-01
    -12.761  0.6200E-02  0.6200E-02  0.6516E-01  0.6516E-01
    -12.654  0.7531E-02  0.7531E-02  0.6597E-01  0.6597E-01
    -12.548  0.7123E-02  0.7123E-02  0.6672E-01  0.6672E-01
    -12.442  0.1463E-01  0.1463E-01  0.6828E-01  0.6828E-01
    -12.335  0.1526E-01  0.1526E-01  0.6991E-01  0.6991E-01
    -12.229  0.1744E-01  0.1744E-01  0.7176E-01  0.7176E-01
    -12.122  0.7393E-02  0.7393E-02  0.7255E-01  0.7255E-01
    -12.016  0.2126E-02  0.2126E-02  0.7277E-01  0.7277E-01
    -11.909  0.3724E-02  0.3724E-02  0.7317E-01  0.7317E-01
    -11.803  0.1013E-01  0.1013E-01  0.7425E-01  0.7425E-01
    -11.697  0.6964E-02  0.6964E-02  0.7499E-01  0.7499E-01
    -11.590  0.7546E-02  0.7546E-02  0.7579E-01  0.7579E-01
    -11.484  0.8248E-02  0.8248E-02  0.7667E-01  0.7667E-01
    -11.377  0.1189E-01  0.1189E-01  0.7794E-01  0.7794E-01
    -11.271  0.1182E-01  0.1182E-01  0.7920E-01  0.7920E-01
    -11.164  0.1161E-01  0.1161E-01  0.8043E-01  0.8043E-01
    -11.058  0.1098E-01  0.1098E-01  0.8160E-01  0.8160E-01
    -10.951  0.6551E-02  0.6551E-02  0.8230E-01  0.8230E-01
    -10.845  0.1171E-01  0.1171E-01  0.8354E-01  0.8354E-01
    -10.739  0.1262E-01  0.1262E-01  0.8489E-01  0.8489E-01
    -10.632  0.8041E-02  0.8041E-02  0.8574E-01  0.8574E-01
    -10.526  0.6664E-02  0.6664E-02  0.8645E-01  0.8645E-01
    -10.419  0.5043E-02  0.5043E-02  0.8699E-01  0.8699E-01
    -10.313  0.2711E-02  0.2711E-02  0.8728E-01  0.8728E-01
    -10.206  0.5572E-02  0.5572E-02  0.8787E-01  0.8787E-01
    -10.100  0.1828E-01  0.1828E-01  0.8982E-01  0.8982E-01
     -9.994  0.1720E-01  0.1720E-01  0.9165E-01  0.9165E-01
     -9.887  0.1460E-01  0.1460E-01  0.9320E-01  0.9320E-01
     -9.781  0.1929E-01  0.1929E-01  0.9525E-01  0.9525E-01
     -9.674  0.1811E-01  0.1811E-01  0.9718E-01  0.9718E-01
     -9.568  0.1481E-01  0.1481E-01  0.9876E-01  0.9876E-01
     -9.461  0.1199E-01  0.1199E-01  0.1000E+00  0.1000E+00
     -9.355  0.1964E-01  0.1964E-01  0.1021E+00  0.1021E+00
     -9.248  0.1676E-01  0.1676E-01  0.1039E+00  0.1039E+00
     -9.142  0.1524E-01  0.1524E-01  0.1055E+00  0.1055E+00
     -9.036  0.1857E-01  0.1857E-01  0.1075E+00  0.1075E+00
     -8.929  0.2493E-01  0.2493E-01  0.1102E+00  0.1102E+00
     -8.823  0.3300E-01  0.3300E-01  0.1137E+00  0.1137E+00
     -8.716  0.2467E-01  0.2467E-01  0.1163E+00  0.1163E+00
     -8.610  0.1723E-01  0.1723E-01  0.1181E+00  0.1181E+00
     -8.503  0.1912E-01  0.1912E-01  0.1202E+00  0.1202E+00
     -8.397  0.2163E-01  0.2163E-01  0.1225E+00  0.1225E+00
     -8.291  0.1424E-01  0.1424E-01  0.1240E+00  0.1240E+00
     -8.184  0.2231E-01  0.2231E-01  0.1264E+00  0.1264E+00
     -8.078  0.2429E-01  0.2429E-01  0.1289E+00  0.1289E+00
     -7.971  0.2152E-01  0.2152E-01  0.1312E+00  0.1312E+00
     -7.865  0.1293E-01  0.1293E-01  0.1326E+00  0.1326E+00
     -7.758  0.1547E-01  0.1547E-01  0.1343E+00  0.1343E+00
     -7.652  0.2043E-01  0.2043E-01  0.1364E+00  0.1364E+00
     -7.546  0.1486E-01  0.1486E-01  0.1380E+00  0.1380E+00
     -7.439  0.8845E-02  0.8845E-02  0.1390E+00  0.1390E+00
     -7.333  0.4799E-02  0.4799E-02  0.1395E+00  0.1395E+00
     -7.226  0.2226E-01  0.2226E-01  0.1418E+00  0.1418E+00
     -7.120  0.2535E-01  0.2535E-01  0.1445E+00  0.1445E+00
     -7.013  0.1842E-01  0.1842E-01  0.1465E+00  0.1465E+00
     -6.907  0.1402E-01  0.1402E-01  0.1480E+00  0.1480E+00
     -6.800  0.1081E-01  0.1081E-01  0.1491E+00  0.1491E+00
     -6.694  0.1456E-01  0.1456E-01  0.1507E+00  0.1507E+00
     -6.588  0.1208E-01  0.1208E-01  0.1520E+00  0.1520E+00
     -6.481  0.6996E-02  0.6996E-02  0.1527E+00  0.1527E+00
     -6.375  0.1117E-01  0.1117E-01  0.1539E+00  0.1539E+00
     -6.268  0.1426E-01  0.1426E-01  0.1554E+00  0.1554E+00
     -6.162  0.1393E-01  0.1393E-01  0.1569E+00  0.1569E+00
     -6.055  0.2231E-01  0.2231E-01  0.1593E+00  0.1593E+00
     -5.949  0.1433E-01  0.1433E-01  0.1608E+00  0.1608E+00
     -5.843  0.1210E-01  0.1210E-01  0.1621E+00  0.1621E+00
     -5.736  0.1331E-01  0.1331E-01  0.1635E+00  0.1635E+00
     -5.630  0.1376E-01  0.1376E-01  0.1650E+00  0.1650E+00
     -5.523  0.1471E-01  0.1471E-01  0.1665E+00  0.1665E+00
     -5.417  0.6559E-02  0.6559E-02  0.1672E+00  0.1672E+00
     -5.310  0.4432E-02  0.4432E-02  0.1677E+00  0.1677E+00
     -5.204  0.2144E-02  0.2144E-02  0.1679E+00  0.1679E+00
     -5.097  0.2993E-02  0.2993E-02  0.1683E+00  0.1683E+00
     -4.991  0.1790E-01  0.1790E-01  0.1702E+00  0.1702E+00
     -4.885  0.1918E-01  0.1918E-01  0.1722E+00  0.1722E+00
     -4.778  0.1817E-01  0.1817E-01  0.1741E+00  0.1741E+00
     -4.672  0.9519E-02  0.9519E-02  0.1751E+00  0.1751E+00
     -4.565  0.8066E-02  0.8066E-02  0.1760E+00  0.1760E+00
     -4.459  0.1126E-01  0.1126E-01  0.1772E+00  0.1772E+00
     -4.352  0.4248E-03  0.4248E-03  0.1773E+00  0.1773E+00
     -4.246  0.3927E-02  0.3927E-02  0.1777E+00  0.1777E+00
     -4.140  0.9299E-02  0.9299E-02  0.1787E+00  0.1787E+00
     -4.033  0.7234E-02  0.7234E-02  0.1794E+00  0.1794E+00
     -3.927  0.7651E-02  0.7651E-02  0.1802E+00  0.1802E+00
     -3.820  0.7825E-02  0.7825E-02  0.1811E+00  0.1811E+00
     -3.714  0.5913E-02  0.5913E-02  0.1817E+00  0.1817E+00
     -3.607  0.2721E-02  0.2721E-02  0.1820E+00  0.1820E+00
     -3.501  0.4026E-04  0.4026E-04  0.1820E+00  0.1820E+00
     -3.395  0.3331E-03  0.3331E-03  0.1820E+00  0.1820E+00
     -3.288  0.2491E-02  0.2491E-02  0.1823E+00  0.1823E+00
     -3.182  0.6466E-02  0.6466E-02  0.1830E+00  0.1830E+00
     -3.075  0.2635E-02  0.2635E-02  0.1833E+00  0.1833E+00
     -2.969  0.2074E-02  0.2074E-02  0.1835E+00  0.1835E+00
     -2.862  0.9315E-04  0.9315E-04  0.1835E+00  0.1835E+00
     -2.756  0.5037E-07  0.5037E-07  0.1835E+00  0.1835E+00
     -2.649  0.3333E-03  0.3333E-03  0.1835E+00  0.1835E+00
     -2.543  0.3481E-02  0.3481E-02  0.1839E+00  0.1839E+00
     -2.437  0.8828E-03  0.8828E-03  0.1840E+00  0.1840E+00
     -2.330  0.1914E-05  0.1914E-05  0.1840E+00  0.1840E+00
     -2.224  0.1324E-02  0.1324E-02  0.1841E+00  0.1841E+00
     -2.117  0.3326E-02  0.3326E-02  0.1845E+00  0.1845E+00
     -2.011  0.4655E-04  0.4655E-04  0.1845E+00  0.1845E+00
     -1.904  0.1300E-04  0.1300E-04  0.1845E+00  0.1845E+00
     -1.798  0.1603E-02  0.1603E-02  0.1847E+00  0.1847E+00
     -1.692  0.2464E-02  0.2464E-02  0.1849E+00  0.1849E+00
     -1.585  0.4496E-02  0.4496E-02  0.1854E+00  0.1854E+00
     -1.479  0.5318E-02  0.5318E-02  0.1860E+00  0.1860E+00
     -1.372  0.3131E-03  0.3131E-03  0.1860E+00  0.1860E+00
     -1.266  0.3421E-02  0.3421E-02  0.1864E+00  0.1864E+00
     -1.159  0.5391E-02  0.5391E-02  0.1870E+00  0.1870E+00
     -1.053  0.5036E-02  0.5036E-02  0.1875E+00  0.1875E+00
     -0.947  0.9781E-03  0.9781E-03  0.1876E+00  0.1876E+00
     -0.840  0.8439E-02  0.8439E-02  0.1885E+00  0.1885E+00
     -0.734  0.1810E-01  0.1810E-01  0.1904E+00  0.1904E+00
     -0.627  0.6168E-02  0.6168E-02  0.1911E+00  0.1911E+00
     -0.521  0.9428E-02  0.9428E-02  0.1921E+00  0.1921E+00
     -0.414  0.1055E-01  0.1055E-01  0.1932E+00  0.1932E+00
     -0.308  0.6130E-02  0.6130E-02  0.1939E+00  0.1939E+00
     -0.201  0.3900E-02  0.3900E-02  0.1943E+00  0.1943E+00
     -0.095  0.7577E-02  0.7577E-02  0.1951E+00  0.1951E+00
      0.011  0.1001E-01  0.1001E-01  0.1961E+00  0.1961E+00
      0.118  0.1014E-01  0.1014E-01  0.1972E+00  0.1972E+00
      0.224  0.1043E-01  0.1043E-01  0.1983E+00  0.1983E+00
      0.331  0.1011E-01  0.1011E-01  0.1994E+00  0.1994E+00
      0.437  0.4391E-02  0.4391E-02  0.1999E+00  0.1999E+00
      0.544  0.4011E-02  0.4011E-02  0.2003E+00  0.2003E+00
      0.650  0.1179E-01  0.1179E-01  0.2016E+00  0.2016E+00
      0.756  0.6182E-02  0.6182E-02  0.2022E+00  0.2022E+00
      0.863  0.9198E-02  0.9198E-02  0.2032E+00  0.2032E+00
      0.969  0.5646E-02  0.5646E-02  0.2038E+00  0.2038E+00
      1.076  0.1116E-01  0.1116E-01  0.2050E+00  0.2050E+00
      1.182  0.7114E-02  0.7114E-02  0.2057E+00  0.2057E+00
      1.289  0.7674E-02  0.7674E-02  0.2066E+00  0.2066E+00
      1.395  0.1011E-01  0.1011E-01  0.2076E+00  0.2076E+00
      1.502  0.8878E-02  0.8878E-02  0.2086E+00  0.2086E+00
      1.608  0.2397E-01  0.2397E-01  0.2111E+00  0.2111E+00
      1.714  0.1543E-01  0.1543E-01  0.2128E+00  0.2128E+00
      1.821  0.9352E-02  0.9352E-02  0.2138E+00  0.2138E+00
      1.927  0.6897E-02  0.6897E-02  0.2145E+00  0.2145E+00
      2.034  0.1644E-01  0.1644E-01  0.2162E+00  0.2162E+00
      2.140  0.2436E-01  0.2436E-01  0.2188E+00  0.2188E+00
      2.247  0.1465E-01  0.1465E-01  0.2204E+00  0.2204E+00
      2.353  0.1625E-01  0.1625E-01  0.2221E+00  0.2221E+00
      2.459  0.3004E-01  0.3004E-01  0.2253E+00  0.2253E+00
      2.566  0.8464E-02  0.8464E-02  0.2262E+00  0.2262E+00
      2.672  0.9795E-02  0.9795E-02  0.2273E+00  0.2273E+00
      2.779  0.1447E-01  0.1447E-01  0.2288E+00  0.2288E+00
      2.885  0.3094E-01  0.3094E-01  0.2321E+00  0.2321E+00
      2.992  0.3925E-01  0.3925E-01  0.2363E+00  0.2363E+00
      3.098  0.2054E-01  0.2054E-01  0.2385E+00  0.2385E+00
      3.204  0.2098E-01  0.2098E-01  0.2407E+00  0.2407E+00
      3.311  0.2117E-01  0.2117E-01  0.2430E+00  0.2430E+00
      3.417  0.1583E-01  0.1583E-01  0.2446E+00  0.2446E+00
      3.524  0.2406E-01  0.2406E-01  0.2472E+00  0.2472E+00
      3.630  0.1903E-01  0.1903E-01  0.2492E+00  0.2492E+00
      3.737  0.1400E-01  0.1400E-01  0.2507E+00  0.2507E+00
      3.843  0.2947E-01  0.2947E-01  0.2538E+00  0.2538E+00
      3.950  0.1920E-01  0.1920E-01  0.2559E+00  0.2559E+00
      4.056  0.2633E-01  0.2633E-01  0.2587E+00  0.2587E+00
      4.162  0.1352E-01  0.1352E-01  0.2601E+00  0.2601E+00
      4.269  0.2148E-01  0.2148E-01  0.2624E+00  0.2624E+00
      4.375  0.3295E-01  0.3295E-01  0.2659E+00  0.2659E+00
      4.482  0.3166E-01  0.3167E-01  0.2693E+00  0.2693E+00
      4.588  0.6512E-02  0.6509E-02  0.2700E+00  0.2700E+00
      4.695  0.7550E-04  0.7545E-04  0.2700E+00  0.2700E+00
      4.801  0.9955E-09  0.9954E-09  0.2700E+00  0.2700E+00
      4.907  0.2608E-17  0.2608E-17  0.2700E+00  0.2700E+00
      5.014  0.0000E+00  0.0000E+00  0.2700E+00  0.2700E+00
      5.120  0.0000E+00  0.0000E+00  0.2700E+00  0.2700E+00
      5.227  0.0000E+00  0.0000E+00  0.2700E+00  0.2700E+00
      5.333  0.0000E+00  0.0000E+00  0.2700E+00  0.2700E+00
      5.440  0.0000E+00  0.0000E+00  0.2700E+00  0.2700E+00
      5.546  0.0000E+00  0.0000E+00  0.2700E+00  0.2700E+00
      5.652  0.0000E+00  0.0000E+00  0.2700E+00  0.2700E+00
      5.759  0.0000E+00  0.0000E+00  0.2700E+00  0.2700E+00
      5.865  0.0000E+00  0.0000E+00  0.2700E+00  0.2700E+00
      5.972  0.0000E+00  0.0000E+00  0.2700E+00  0.2700E+00
