 vasp.6.4.2 20Jul23 (build Aug 26 2025 15:10:52) complex                        
  
 POSCAR found type information on POSCAR C H N O 
 02/POSCAR found :  4 types and      98 ions
 Reading from existing POTCAR
 scaLAPACK will be used
 -----------------------------------------------------------------------------
|                                                                             |
|           W    W    AA    RRRRR   N    N  II  N    N   GGGG   !!!           |
|           W    W   A  A   R    R  NN   N  II  NN   N  G    G  !!!           |
|           W    W  A    A  R    R  N N  N  II  N N  N  G       !!!           |
|           W WW W  AAAAAA  RRRRR   N  N N  II  N  N N  G  GGG   !            |
|           WW  WW  A    A  R   R   N   NN  II  N   NN  G    G                |
|           W    W  A    A  R    R  N    N  II  N    N   GGGG   !!!           |
|                                                                             |
|     For optimal performance we recommend to set                             |
|       NCORE = 2 up to number-of-cores-per-socket                            |
|     NCORE specifies how many cores store one orbital (NPAR=cpu/NCORE).      |
|     This setting can greatly improve the performance of VASP for DFT.       |
|     The default, NCORE=1 might be grossly inefficient on modern             |
|     multi-core architectures or massively parallel machines. Do your        |
|     own testing! More info at https://www.vasp.at/wiki/index.php/NCORE      |
|     Unfortunately you need to use the default for GW and RPA                |
|     calculations (for HF NCORE is supported but not extensively tested      |
|     yet).                                                                   |
|                                                                             |
 -----------------------------------------------------------------------------

 Reading from existing POTCAR
 LDA part: xc-table for Pade appr. of Perdew
 POSCAR found type information on POSCAR C H N O 
 00/POSCAR found :  4 types and      98 ions
 POSCAR found type information on POSCAR C H N O 
 06/POSCAR found :  4 types and      98 ions
 Jacobian:    33.7254124986634     
 POSCAR found type information on POSCAR C H N O 
 00/POSCAR found :  4 types and      98 ions
 POSCAR found type information on POSCAR C H N O 
 06/POSCAR found :  4 types and      98 ions
 POSCAR, INCAR and KPOINTS ok, starting setup
 FFT: planning ... GRIDC
 FFT: planning ... GRID_SOFT
 FFT: planning ... GRID
 WAVECAR not read
 entering main loop
       N       E                     dE             d eps       ncg     rms          rms(c)
DAV:   1     0.325338022614E+04    0.32534E+04   -0.13710E+05  4630   0.103E+03
DAV:   2    -0.260603701890E+03   -0.35140E+04   -0.33009E+04  6530   0.255E+02
DAV:   3    -0.870178593553E+03   -0.60957E+03   -0.60683E+03  5430   0.109E+02
DAV:   4    -0.892170951649E+03   -0.21992E+02   -0.21914E+02  5610   0.260E+01
DAV:   5    -0.892786354948E+03   -0.61540E+00   -0.61460E+00  6190   0.373E+00    0.521E+01
DAV:   6    -0.874964215971E+03    0.17822E+02   -0.22259E+01  5310   0.716E+00    0.339E+01
DAV:   7    -0.852089330572E+03    0.22875E+02   -0.33234E+01  5160   0.859E+00    0.205E+01
DAV:   8    -0.847198328136E+03    0.48910E+01   -0.24942E+01  5310   0.740E+00    0.826E+00
DAV:   9    -0.847047343554E+03    0.15098E+00   -0.11793E+00  5130   0.200E+00    0.315E+00
DAV:  10    -0.846972105932E+03    0.75238E-01   -0.40730E-01  5030   0.111E+00    0.915E-01
DAV:  11    -0.846959576400E+03    0.12530E-01   -0.75823E-02  4920   0.482E-01    0.317E-01
DAV:  12    -0.846958233753E+03    0.13426E-02   -0.72464E-03  5440   0.161E-01    0.161E-01
DAV:  13    -0.846957928957E+03    0.30480E-03   -0.28276E-03  5280   0.113E-01    0.713E-02
DAV:  14    -0.846958047151E+03   -0.11819E-03   -0.51110E-04  4950   0.412E-02    0.525E-02
DAV:  15    -0.846958088899E+03   -0.41748E-04   -0.90524E-05  5260   0.189E-02    0.271E-02
DAV:  16    -0.846958097446E+03   -0.85469E-05   -0.33297E-05  4770   0.110E-02    0.104E-02
DAV:  17    -0.846958097116E+03    0.32946E-06   -0.91551E-06  5640   0.679E-03
   1 F= -.85478445E+03 E0= -.85478445E+03  d E =-.854784E+03  mag=     0.0002
quench:  g(F)=  0.000E+00 g(S)=  0.000E+00 dE (1.order)= 0.000E+00
 bond charge predicted
       N       E                     dE             d eps       ncg     rms          rms(c)
DAV:   1    -0.846958112864E+03   -0.15418E-04   -0.21352E-04  4640   0.288E-02    0.398E-03
DAV:   2    -0.846958112965E+03   -0.10100E-06   -0.46815E-06  4530   0.405E-03
   2 F= -.85478446E+03 E0= -.85478446E+03  d E =-.139991E-04  mag=    -0.0000
quench:  g(F)=  0.000E+00 g(S)=  0.000E+00 dE (1.order)= 0.000E+00
 bond charge predicted
       N       E                     dE             d eps       ncg     rms          rms(c)
DAV:   1    -0.846958139796E+03   -0.26932E-04   -0.50836E-04  4600   0.421E-02    0.637E-03
DAV:   2    -0.846958140010E+03   -0.21428E-06   -0.77573E-06  4700   0.510E-03
   3 F= -.85478448E+03 E0= -.85478448E+03  d E =-.239414E-04  mag=     0.0000
quench:  g(F)=  0.000E+00 g(S)=  0.000E+00 dE (1.order)= 0.000E+00
 bond charge predicted
       N       E                     dE             d eps       ncg     rms          rms(c)
DAV:   1    -0.846958183489E+03   -0.43693E-04   -0.10393E-03  4540   0.595E-02    0.887E-03
DAV:   2    -0.846958184169E+03   -0.67976E-06   -0.14900E-05  4800   0.704E-03    0.746E-03
DAV:   3    -0.846958183964E+03    0.20511E-06   -0.10769E-06  3180   0.238E-03
   4 F= -.85478452E+03 E0= -.85478452E+03  d E =-.395621E-04  mag=    -0.0000
quench:  g(F)=  0.000E+00 g(S)=  0.000E+00 dE (1.order)= 0.000E+00
 bond charge predicted
       N       E                     dE             d eps       ncg     rms          rms(c)
DAV:   1    -0.846958238553E+03   -0.54384E-04   -0.18691E-03  4500   0.798E-02    0.955E-03
DAV:   2    -0.846958240363E+03   -0.18104E-05   -0.26616E-05  4740   0.930E-03    0.818E-03
DAV:   3    -0.846958240128E+03    0.23490E-06   -0.99354E-07  3680   0.227E-03
   5 F= -.85478457E+03 E0= -.85478457E+03  d E =-.501721E-04  mag=     0.0000
quench:  g(F)=  0.000E+00 g(S)=  0.000E+00 dE (1.order)= 0.000E+00
 bond charge predicted
       N       E                     dE             d eps       ncg     rms          rms(c)
DAV:   1    -0.846958310721E+03   -0.70357E-04   -0.27537E-03  4500   0.960E-02    0.114E-02
DAV:   2    -0.846958313095E+03   -0.23744E-05   -0.36550E-05  4710   0.109E-02    0.975E-03
DAV:   3    -0.846958312804E+03    0.29095E-06   -0.14616E-06  3750   0.275E-03
   6 F= -.85478464E+03 E0= -.85478464E+03  d E =-.643942E-04  mag=    -0.0000
quench:  g(F)=  0.000E+00 g(S)=  0.000E+00 dE (1.order)= 0.000E+00
 bond charge predicted
       N       E                     dE             d eps       ncg     rms          rms(c)
DAV:   1    -0.846958397297E+03   -0.84202E-04   -0.40809E-03  4500   0.117E-01    0.139E-02
DAV:   2    -0.846958400943E+03   -0.36453E-05   -0.55294E-05  4710   0.134E-02    0.119E-02
DAV:   3    -0.846958400483E+03    0.46010E-06   -0.22944E-06  4250   0.333E-03
   7 F= -.85478472E+03 E0= -.85478472E+03  d E =-.773172E-04  mag=     0.0000
quench:  g(F)=  0.000E+00 g(S)=  0.000E+00 dE (1.order)= 0.000E+00
 bond charge predicted
       N       E                     dE             d eps       ncg     rms          rms(c)
DAV:   1    -0.846958507445E+03   -0.10650E-03   -0.69114E-03  4500   0.152E-01    0.180E-02
DAV:   2    -0.846958513401E+03   -0.59564E-05   -0.92344E-05  4740   0.173E-02    0.154E-02
DAV:   3    -0.846958512585E+03    0.81639E-06   -0.40042E-06  4970   0.435E-03
   8 F= -.85478482E+03 E0= -.85478482E+03  d E =-.999997E-04  mag=    -0.0000
quench:  g(F)=  0.000E+00 g(S)=  0.000E+00 dE (1.order)= 0.000E+00
 bond charge predicted
       N       E                     dE             d eps       ncg     rms          rms(c)
DAV:   1    -0.846958645768E+03   -0.13237E-03   -0.11678E-02  4500   0.198E-01    0.235E-02
DAV:   2    -0.846958656038E+03   -0.10269E-04   -0.15929E-04  4720   0.227E-02    0.201E-02
DAV:   3    -0.846958654527E+03    0.15110E-05   -0.68670E-06  5150   0.569E-03    0.125E-02
DAV:   4    -0.846958656481E+03   -0.19540E-05   -0.59453E-06  4600   0.503E-03    0.343E-03
DAV:   5    -0.846958656434E+03    0.46632E-07   -0.25535E-06  3820   0.286E-03
   9 F= -.85478495E+03 E0= -.85478495E+03  d E =-.130539E-03  mag=    -0.0000
quench:  g(F)=  0.000E+00 g(S)=  0.000E+00 dE (1.order)= 0.000E+00
 bond charge predicted
       N       E                     dE             d eps       ncg     rms          rms(c)
DAV:   1    -0.846958821733E+03   -0.16525E-03   -0.18834E-02  4460   0.252E-01    0.280E-02
DAV:   2    -0.846958838802E+03   -0.17069E-04   -0.27456E-04  4700   0.297E-02    0.241E-02
DAV:   3    -0.846958834608E+03    0.41943E-05   -0.11633E-05  5210   0.734E-03    0.156E-02
DAV:   4    -0.846958836646E+03   -0.20384E-05   -0.10464E-05  4620   0.673E-03    0.464E-03
DAV:   5    -0.846958836756E+03   -0.10977E-06   -0.49478E-06  4370   0.383E-03
  10 F= -.85478511E+03 E0= -.85478511E+03  d E =-.164332E-03  mag=     0.0000
quench:  g(F)=  0.000E+00 g(S)=  0.000E+00 dE (1.order)= 0.000E+00
 bond charge predicted
       N       E                     dE             d eps       ncg     rms          rms(c)
DAV:   1    -0.846959035378E+03   -0.19873E-03   -0.28392E-02  4430   0.309E-01    0.344E-02
DAV:   2    -0.846959060721E+03   -0.25344E-04   -0.41039E-04  4690   0.365E-02    0.298E-02
DAV:   3    -0.846959054440E+03    0.62816E-05   -0.17894E-05  5230   0.910E-03    0.191E-02
DAV:   4    -0.846959057742E+03   -0.33022E-05   -0.16271E-05  4620   0.838E-03    0.571E-03
DAV:   5    -0.846959057829E+03   -0.86569E-07   -0.80448E-06  4630   0.491E-03
  11 F= -.85478531E+03 E0= -.85478531E+03  d E =-.201061E-03  mag=    -0.0000
quench:  g(F)=  0.000E+00 g(S)=  0.000E+00 dE (1.order)= 0.000E+00
 bond charge predicted
       N       E                     dE             d eps       ncg     rms          rms(c)
DAV:   1    -0.846959278118E+03   -0.22038E-03   -0.44348E-02  4410   0.386E-01    0.429E-02
DAV:   2    -0.846959319319E+03   -0.41201E-04   -0.65862E-04  4660   0.460E-02    0.371E-02
DAV:   3    -0.846959309375E+03    0.99435E-05   -0.27532E-05  5330   0.112E-02    0.244E-02
DAV:   4    -0.846959314105E+03   -0.47299E-05   -0.25518E-05  4640   0.106E-02    0.724E-03
DAV:   5    -0.846959314435E+03   -0.32937E-06   -0.11980E-05  4620   0.589E-03    0.280E-03
DAV:   6    -0.846959314619E+03   -0.18445E-06   -0.50202E-07  3300   0.138E-03
  12 F= -.85478554E+03 E0= -.85478554E+03  d E =-.232019E-03  mag=    -0.0000
quench:  g(F)=  0.000E+00 g(S)=  0.000E+00 dE (1.order)= 0.000E+00
 bond charge predicted
       N       E                     dE             d eps       ncg     rms          rms(c)
DAV:   1    -0.846959529043E+03   -0.21461E-03   -0.65938E-02  4400   0.478E-01    0.527E-02
DAV:   2    -0.846959592495E+03   -0.63453E-04   -0.10146E-03  4660   0.576E-02    0.464E-02
DAV:   3    -0.846959575092E+03    0.17403E-04   -0.44983E-05  5370   0.141E-02    0.311E-02
DAV:   4    -0.846959580391E+03   -0.52988E-05   -0.43848E-05  4560   0.140E-02    0.978E-03
DAV:   5    -0.846959580909E+03   -0.51777E-06   -0.18260E-05  4640   0.735E-03    0.401E-03
DAV:   6    -0.846959581276E+03   -0.36739E-06   -0.10001E-06  3180   0.194E-03
  13 F= -.85478578E+03 E0= -.85478578E+03  d E =-.237000E-03  mag=     0.0000
quench:  g(F)=  0.000E+00 g(S)=  0.000E+00 dE (1.order)= 0.000E+00
 bond charge predicted
       N       E                     dE             d eps       ncg     rms          rms(c)
DAV:   1    -0.846959555464E+03    0.25445E-04   -0.11466E-01  4380   0.648E-01    0.701E-02
DAV:   2    -0.846959700440E+03   -0.14498E-03   -0.21462E-03  4640   0.834E-02    0.634E-02
DAV:   3    -0.846959664242E+03    0.36198E-04   -0.91140E-05  5630   0.187E-02    0.468E-02
DAV:   4    -0.846959657500E+03    0.67420E-05   -0.10186E-04  4530   0.215E-02    0.159E-02
DAV:   5    -0.846959659437E+03   -0.19377E-05   -0.28137E-05  4680   0.932E-03    0.802E-03
DAV:   6    -0.846959660422E+03   -0.98463E-06   -0.36344E-06  4120   0.328E-03
  14 F= -.85478582E+03 E0= -.85478582E+03  d E =-.440647E-04  mag=     0.0000
quench:  g(F)=  0.000E+00 g(S)=  0.000E+00 dE (1.order)= 0.000E+00
 bond charge predicted
       N       E                     dE             d eps       ncg     rms          rms(c)
DAV:   1    -0.846960002937E+03   -0.34350E-03   -0.18476E-02  4420   0.274E-01    0.312E-02
DAV:   2    -0.846960034424E+03   -0.31486E-04   -0.47387E-04  5380   0.402E-02    0.285E-02
DAV:   3    -0.846960024128E+03    0.10296E-04   -0.23156E-05  5780   0.888E-03    0.216E-02
DAV:   4    -0.846960015695E+03    0.84328E-05   -0.21088E-05  4460   0.968E-03    0.913E-03
DAV:   5    -0.846960015433E+03    0.26213E-06   -0.56874E-06  3990   0.429E-03
  15 F= -.85478618E+03 E0= -.85478618E+03  d E =-.352141E-03  mag=     0.0000
quench:  g(F)=  0.000E+00 g(S)=  0.000E+00 dE (1.order)= 0.000E+00
 bond charge predicted
       N       E                     dE             d eps       ncg     rms          rms(c)
DAV:   1    -0.846960020689E+03   -0.49936E-05   -0.17299E-05  4490   0.837E-03    0.186E-03
DAV:   2    -0.846960020700E+03   -0.11139E-07   -0.50282E-07  2460   0.139E-03
  16 F= -.85478618E+03 E0= -.85478618E+03  d E =-.459314E-05  mag=    -0.0000
quench:  g(F)=  0.000E+00 g(S)=  0.000E+00 dE (1.order)= 0.000E+00
 bond charge predicted
       N       E                     dE             d eps       ncg     rms          rms(c)
DAV:   1    -0.846960029757E+03   -0.90678E-05   -0.54112E-05  4480   0.146E-02    0.196E-03
DAV:   2    -0.846960029808E+03   -0.51215E-07   -0.92697E-07  2870   0.188E-03
  17 F= -.85478619E+03 E0= -.85478619E+03  d E =-.780158E-05  mag=    -0.0000
quench:  g(F)=  0.000E+00 g(S)=  0.000E+00 dE (1.order)= 0.000E+00
 bond charge predicted
       N       E                     dE             d eps       ncg     rms          rms(c)
DAV:   1    -0.846960041595E+03   -0.11838E-04   -0.97803E-05  4460   0.194E-02    0.290E-03
DAV:   2    -0.846960041665E+03   -0.70497E-07   -0.16005E-06  3470   0.243E-03
  18 F= -.85478620E+03 E0= -.85478620E+03  d E =-.100156E-04  mag=    -0.0000
quench:  g(F)=  0.000E+00 g(S)=  0.000E+00 dE (1.order)= 0.000E+00
 bond charge predicted
       N       E                     dE             d eps       ncg     rms          rms(c)
DAV:   1    -0.846960055963E+03   -0.14368E-04   -0.13357E-04  4480   0.223E-02    0.348E-03
DAV:   2    -0.846960056033E+03   -0.69675E-07   -0.18284E-06  3780   0.258E-03
  19 F= -.85478621E+03 E0= -.85478621E+03  d E =-.122267E-04  mag=     0.0000
quench:  g(F)=  0.000E+00 g(S)=  0.000E+00 dE (1.order)= 0.000E+00
 bond charge predicted
       N       E                     dE             d eps       ncg     rms          rms(c)
DAV:   1    -0.846960073454E+03   -0.17491E-04   -0.17383E-04  4480   0.250E-02    0.372E-03
DAV:   2    -0.846960073551E+03   -0.97287E-07   -0.21561E-06  3950   0.276E-03
  20 F= -.85478623E+03 E0= -.85478623E+03  d E =-.151315E-04  mag=     0.0000
quench:  g(F)=  0.000E+00 g(S)=  0.000E+00 dE (1.order)= 0.000E+00
 bond charge predicted
       N       E                     dE             d eps       ncg     rms          rms(c)
DAV:   1    -0.846960094167E+03   -0.20713E-04   -0.23028E-04  4480   0.286E-02    0.413E-03
DAV:   2    -0.846960094301E+03   -0.13402E-06   -0.28538E-06  4170   0.316E-03
  21 F= -.85478624E+03 E0= -.85478624E+03  d E =-.182101E-04  mag=     0.0000
quench:  g(F)=  0.000E+00 g(S)=  0.000E+00 dE (1.order)= 0.000E+00
 bond charge predicted
       N       E                     dE             d eps       ncg     rms          rms(c)
DAV:   1    -0.846960120405E+03   -0.26238E-04   -0.37402E-04  4480   0.364E-02    0.514E-03
DAV:   2    -0.846960120638E+03   -0.23297E-06   -0.48499E-06  4460   0.407E-03
  22 F= -.85478627E+03 E0= -.85478627E+03  d E =-.232255E-04  mag=     0.0000
quench:  g(F)=  0.000E+00 g(S)=  0.000E+00 dE (1.order)= 0.000E+00
 bond charge predicted
       N       E                     dE             d eps       ncg     rms          rms(c)
DAV:   1    -0.846960153103E+03   -0.32698E-04   -0.58439E-04  4420   0.453E-02    0.666E-03
DAV:   2    -0.846960153428E+03   -0.32505E-06   -0.75486E-06  4960   0.507E-03
  23 F= -.85478630E+03 E0= -.85478630E+03  d E =-.288423E-04  mag=     0.0000
quench:  g(F)=  0.000E+00 g(S)=  0.000E+00 dE (1.order)= 0.000E+00
 bond charge predicted
       N       E                     dE             d eps       ncg     rms          rms(c)
DAV:   1    -0.846960194084E+03   -0.40980E-04   -0.88726E-04  4460   0.554E-02    0.817E-03
DAV:   2    -0.846960194535E+03   -0.45103E-06   -0.10792E-05  4960   0.608E-03    0.703E-03
DAV:   3    -0.846960194570E+03   -0.35652E-07   -0.10729E-06  3000   0.247E-03
  24 F= -.85478633E+03 E0= -.85478633E+03  d E =-.361280E-04  mag=    -0.0000
quench:  g(F)=  0.000E+00 g(S)=  0.000E+00 dE (1.order)= 0.000E+00
 bond charge predicted
       N       E                     dE             d eps       ncg     rms          rms(c)
DAV:   1    -0.846960245785E+03   -0.51250E-04   -0.13913E-03  4460   0.690E-02    0.785E-03
DAV:   2    -0.846960246944E+03   -0.11587E-05   -0.17661E-05  4820   0.771E-03    0.692E-03
DAV:   3    -0.846960246828E+03    0.11610E-06   -0.68287E-07  3620   0.197E-03
  25 F= -.85478638E+03 E0= -.85478638E+03  d E =-.457441E-04  mag=    -0.0000
quench:  g(F)=  0.000E+00 g(S)=  0.000E+00 dE (1.order)= 0.000E+00
 bond charge predicted
       N       E                     dE             d eps       ncg     rms          rms(c)
DAV:   1    -0.846960309197E+03   -0.62254E-04   -0.21545E-03  4420   0.857E-02    0.980E-03
DAV:   2    -0.846960310868E+03   -0.16705E-05   -0.26810E-05  4740   0.947E-03    0.859E-03
DAV:   3    -0.846960310637E+03    0.23106E-06   -0.11075E-06  3720   0.248E-03
  26 F= -.85478643E+03 E0= -.85478643E+03  d E =-.561662E-04  mag=    -0.0000
quench:  g(F)=  0.000E+00 g(S)=  0.000E+00 dE (1.order)= 0.000E+00
 bond charge predicted
       N       E                     dE             d eps       ncg     rms          rms(c)
DAV:   1    -0.846960386571E+03   -0.75703E-04   -0.32392E-03  4400   0.105E-01    0.121E-02
DAV:   2    -0.846960389050E+03   -0.24797E-05   -0.40105E-05  4750   0.116E-02    0.106E-02
DAV:   3    -0.846960388731E+03    0.31960E-06   -0.18244E-06  4000   0.309E-03
  27 F= -.85478650E+03 E0= -.85478650E+03  d E =-.691424E-04  mag=    -0.0000
quench:  g(F)=  0.000E+00 g(S)=  0.000E+00 dE (1.order)= 0.000E+00
 bond charge predicted
       N       E                     dE             d eps       ncg     rms          rms(c)
DAV:   1    -0.846960480226E+03   -0.91175E-04   -0.48346E-03  4400   0.128E-01    0.148E-02
DAV:   2    -0.846960483888E+03   -0.36619E-05   -0.59485E-05  4730   0.141E-02    0.130E-02
DAV:   3    -0.846960483433E+03    0.45473E-06   -0.29216E-06  4620   0.383E-03
  28 F= -.85478659E+03 E0= -.85478659E+03  d E =-.843253E-04  mag=     0.0000
quench:  g(F)=  0.000E+00 g(S)=  0.000E+00 dE (1.order)= 0.000E+00
 bond charge predicted
       N       E                     dE             d eps       ncg     rms          rms(c)
DAV:   1    -0.846960595634E+03   -0.11175E-03   -0.72224E-03  4360   0.156E-01    0.181E-02
DAV:   2    -0.846960601357E+03   -0.57225E-05   -0.91323E-05  4710   0.174E-02    0.160E-02
DAV:   3    -0.846960600636E+03    0.72071E-06   -0.44625E-06  5000   0.461E-03
  29 F= -.85478669E+03 E0= -.85478669E+03  d E =-.103028E-03  mag=    -0.0000
quench:  g(F)=  0.000E+00 g(S)=  0.000E+00 dE (1.order)= 0.000E+00
 bond charge predicted
       N       E                     dE             d eps       ncg     rms          rms(c)
DAV:   1    -0.846960735066E+03   -0.13371E-03   -0.10740E-02  4360   0.189E-01    0.221E-02
DAV:   2    -0.846960743669E+03   -0.86028E-05   -0.13572E-04  4670   0.212E-02    0.194E-02
DAV:   3    -0.846960742608E+03    0.10612E-05   -0.63970E-06  5060   0.550E-03    0.118E-02
DAV:   4    -0.846960744616E+03   -0.20082E-05   -0.53525E-06  4540   0.471E-03    0.321E-03
DAV:   5    -0.846960744549E+03    0.67463E-07   -0.21707E-06  3700   0.272E-03
  30 F= -.85478682E+03 E0= -.85478682E+03  d E =-.126889E-03  mag=     0.0000
quench:  g(F)=  0.000E+00 g(S)=  0.000E+00 dE (1.order)= 0.000E+00
 bond charge predicted
       N       E                     dE             d eps       ncg     rms          rms(c)
DAV:   1    -0.846960902259E+03   -0.15764E-03   -0.15840E-02  4360   0.230E-01    0.251E-02
DAV:   2    -0.846960915679E+03   -0.13419E-04   -0.21588E-04  4660   0.266E-02    0.222E-02
DAV:   3    -0.846960912487E+03    0.31915E-05   -0.95789E-06  5200   0.667E-03    0.145E-02
DAV:   4    -0.846960914338E+03   -0.18509E-05   -0.86296E-06  4440   0.620E-03    0.413E-03
DAV:   5    -0.846960914429E+03   -0.90637E-07   -0.40019E-06  4280   0.346E-03
  31 F= -.85478697E+03 E0= -.85478697E+03  d E =-.149255E-03  mag=     0.0000
quench:  g(F)=  0.000E+00 g(S)=  0.000E+00 dE (1.order)= 0.000E+00
 bond charge predicted
       N       E                     dE             d eps       ncg     rms          rms(c)
DAV:   1    -0.846961092667E+03   -0.17833E-03   -0.22089E-02  4340   0.272E-01    0.303E-02
DAV:   2    -0.846961111996E+03   -0.19330E-04   -0.30631E-04  4700   0.317E-02    0.266E-02
DAV:   3    -0.846961107630E+03    0.43662E-05   -0.13712E-05  5380   0.808E-03    0.171E-02
DAV:   4    -0.846961110391E+03   -0.27611E-05   -0.12209E-05  4500   0.729E-03    0.504E-03
DAV:   5    -0.846961110501E+03   -0.10993E-06   -0.55029E-06  4740   0.413E-03
  32 F= -.85478714E+03 E0= -.85478714E+03  d E =-.176499E-03  mag=     0.0000
quench:  g(F)=  0.000E+00 g(S)=  0.000E+00 dE (1.order)= 0.000E+00
 bond charge predicted
       N       E                     dE             d eps       ncg     rms          rms(c)
DAV:   1    -0.846961325146E+03   -0.21475E-03   -0.30094E-02  4320   0.319E-01    0.359E-02
DAV:   2    -0.846961351238E+03   -0.26092E-04   -0.41769E-04  4660   0.373E-02    0.317E-02
DAV:   3    -0.846961345284E+03    0.59546E-05   -0.21007E-05  5320   0.102E-02    0.193E-02
DAV:   4    -0.846961349299E+03   -0.40152E-05   -0.16718E-05  4540   0.818E-03    0.606E-03
DAV:   5    -0.846961349236E+03    0.62915E-07   -0.64895E-06  4800   0.470E-03
  33 F= -.85478735E+03 E0= -.85478735E+03  d E =-.209742E-03  mag=     0.0000
quench:  g(F)=  0.000E+00 g(S)=  0.000E+00 dE (1.order)= 0.000E+00
 bond charge predicted
       N       E                     dE             d eps       ncg     rms          rms(c)
DAV:   1    -0.846961587988E+03   -0.23869E-03   -0.46005E-02  4340   0.394E-01    0.446E-02
DAV:   2    -0.846961632920E+03   -0.44932E-04   -0.69307E-04  4670   0.473E-02    0.390E-02
DAV:   3    -0.846961623065E+03    0.98543E-05   -0.29559E-05  5380   0.118E-02    0.254E-02
DAV:   4    -0.846961628582E+03   -0.55166E-05   -0.26985E-05  4500   0.109E-02    0.757E-03
DAV:   5    -0.846961628880E+03   -0.29783E-06   -0.12085E-05  4800   0.604E-03    0.317E-03
DAV:   6    -0.846961629148E+03   -0.26846E-06   -0.57828E-07  3020   0.154E-03
  34 F= -.85478760E+03 E0= -.85478760E+03  d E =-.244458E-03  mag=     0.0000
quench:  g(F)=  0.000E+00 g(S)=  0.000E+00 dE (1.order)= 0.000E+00
 bond charge predicted
       N       E                     dE             d eps       ncg     rms          rms(c)
DAV:   1    -0.846961852297E+03   -0.22342E-03   -0.67463E-02  4320   0.487E-01    0.546E-02
DAV:   2    -0.846961920894E+03   -0.68598E-04   -0.10683E-03  4590   0.595E-02    0.486E-02
DAV:   3    -0.846961902835E+03    0.18060E-04   -0.52470E-05  5410   0.152E-02    0.319E-02
DAV:   4    -0.846961907492E+03   -0.46579E-05   -0.42499E-05  4520   0.138E-02    0.105E-02
DAV:   5    -0.846961908032E+03   -0.53969E-06   -0.17423E-05  4760   0.729E-03    0.439E-03
DAV:   6    -0.846961908485E+03   -0.45286E-06   -0.11134E-06  3030   0.206E-03
  35 F= -.85478783E+03 E0= -.85478783E+03  d E =-.234555E-03  mag=     0.0000
quench:  g(F)=  0.000E+00 g(S)=  0.000E+00 dE (1.order)= 0.000E+00
 bond charge predicted
       N       E                     dE             d eps       ncg     rms          rms(c)
DAV:   1    -0.846962004412E+03   -0.96380E-04   -0.40118E-03  4400   0.128E-01    0.144E-02
DAV:   2    -0.846962011448E+03   -0.70358E-05   -0.10372E-04  5180   0.186E-02    0.132E-02
DAV:   3    -0.846962009386E+03    0.20621E-05   -0.43557E-06  4980   0.394E-03    0.102E-02
DAV:   4    -0.846962007574E+03    0.18112E-05   -0.58889E-06  4220   0.501E-03    0.379E-03
DAV:   5    -0.846962007579E+03   -0.49113E-08   -0.11782E-06  3140   0.201E-03
  36 F= -.85478793E+03 E0= -.85478793E+03  d E =-.975277E-04  mag=     0.0000
quench:  g(F)=  0.000E+00 g(S)=  0.000E+00 dE (1.order)= 0.000E+00
 bond charge predicted
       N       E                     dE             d eps       ncg     rms          rms(c)
DAV:   1    -0.846961971360E+03    0.36214E-04   -0.44144E-03  4380   0.133E-01    0.150E-02
DAV:   2    -0.846961979034E+03   -0.76742E-05   -0.10943E-04  5190   0.191E-02    0.134E-02
DAV:   3    -0.846961976945E+03    0.20888E-05   -0.46458E-06  5020   0.413E-03    0.103E-02
DAV:   4    -0.846961975520E+03    0.14258E-05   -0.59844E-06  4200   0.504E-03    0.388E-03
DAV:   5    -0.846961975534E+03   -0.14930E-07   -0.11988E-06  3160   0.208E-03
  37 F= -.85478789E+03 E0= -.85478789E+03  d E =0.367948E-04  mag=     0.0000
quench:  g(F)=  0.000E+00 g(S)=  0.000E+00 dE (1.order)= 0.000E+00
 bond charge predicted
       N       E                     dE             d eps       ncg     rms          rms(c)
DAV:   1    -0.846962005306E+03   -0.29786E-04   -0.18661E-04  4420   0.276E-02    0.312E-03
DAV:   2    -0.846962005639E+03   -0.33262E-06   -0.51112E-06  4680   0.414E-03
  38 F= -.85478792E+03 E0= -.85478792E+03  d E =-.294771E-04  mag=    -0.0000
quench:  g(F)=  0.000E+00 g(S)=  0.000E+00 dE (1.order)= 0.000E+00
 bond charge predicted
       N       E                     dE             d eps       ncg     rms          rms(c)
DAV:   1    -0.846962042046E+03   -0.36740E-04   -0.57495E-04  4400   0.484E-02    0.746E-03
DAV:   2    -0.846962042584E+03   -0.53800E-06   -0.14373E-05  5340   0.701E-03    0.659E-03
DAV:   3    -0.846962041848E+03    0.73663E-06   -0.12513E-06  2600   0.237E-03
  39 F= -.85478796E+03 E0= -.85478796E+03  d E =-.350437E-04  mag=     0.0000
quench:  g(F)=  0.000E+00 g(S)=  0.000E+00 dE (1.order)= 0.000E+00
 bond charge predicted
       N       E                     dE             d eps       ncg     rms          rms(c)
DAV:   1    -0.846962057439E+03   -0.14855E-04   -0.81070E-04  4400   0.574E-02    0.743E-03
DAV:   2    -0.846962058702E+03   -0.12627E-05   -0.18761E-05  5280   0.796E-03    0.665E-03
DAV:   3    -0.846962058228E+03    0.47323E-06   -0.81139E-07  2760   0.192E-03
  40 F= -.85478797E+03 E0= -.85478797E+03  d E =-.147628E-04  mag=     0.0000
quench:  g(F)=  0.000E+00 g(S)=  0.000E+00 dE (1.order)= 0.000E+00
 bond charge predicted
       N       E                     dE             d eps       ncg     rms          rms(c)
DAV:   1    -0.846962059005E+03   -0.30355E-06   -0.29167E-06  3820   0.354E-03    0.150E-03
DAV:   2    -0.846962059001E+03    0.43510E-08   -0.34250E-07  2340   0.114E-03
  41 F= -.85478797E+03 E0= -.85478797E+03  d E =-.685293E-06  mag=    -0.0000
quench:  g(F)=  0.000E+00 g(S)=  0.000E+00 dE (1.order)= 0.000E+00
 bond charge predicted
       N       E                     dE             d eps       ncg     rms          rms(c)
DAV:   1    -0.846962060891E+03   -0.18856E-05   -0.25729E-06  3840   0.318E-03    0.674E-04
DAV:   2    -0.846962060898E+03   -0.76616E-08   -0.74569E-08  2310   0.554E-04
  42 F= -.85478797E+03 E0= -.85478797E+03  d E =-.171706E-05  mag=    -0.0000
quench:  g(F)=  0.000E+00 g(S)=  0.000E+00 dE (1.order)= 0.000E+00
 bond charge predicted
       N       E                     dE             d eps       ncg     rms          rms(c)
DAV:   1    -0.846962063650E+03   -0.27591E-05   -0.54891E-06  4190   0.465E-03    0.700E-04
DAV:   2    -0.846962063656E+03   -0.64683E-08   -0.11541E-07  2340   0.669E-04
  43 F= -.85478798E+03 E0= -.85478798E+03  d E =-.248249E-05  mag=    -0.0000
quench:  g(F)=  0.000E+00 g(S)=  0.000E+00 dE (1.order)= 0.000E+00
 bond charge predicted
       N       E                     dE             d eps       ncg     rms          rms(c)
DAV:   1    -0.846962067119E+03   -0.34688E-05   -0.91050E-06  4180   0.595E-03    0.964E-04
DAV:   2    -0.846962067129E+03   -0.98880E-08   -0.19322E-07  2310   0.857E-04
  44 F= -.85478798E+03 E0= -.85478798E+03  d E =-.309541E-05  mag=    -0.0000
quench:  g(F)=  0.000E+00 g(S)=  0.000E+00 dE (1.order)= 0.000E+00
 bond charge predicted
       N       E                     dE             d eps       ncg     rms          rms(c)
DAV:   1    -0.846962071211E+03   -0.40924E-05   -0.12567E-05  4240   0.695E-03    0.113E-03
DAV:   2    -0.846962071223E+03   -0.12311E-07   -0.24253E-07  2280   0.952E-04
  45 F= -.85478798E+03 E0= -.85478798E+03  d E =-.357688E-05  mag=     0.0000
quench:  g(F)=  0.000E+00 g(S)=  0.000E+00 dE (1.order)= 0.000E+00
 bond charge predicted
       N       E                     dE             d eps       ncg     rms          rms(c)
DAV:   1    -0.846962075877E+03   -0.46656E-05   -0.16003E-05  4320   0.776E-03    0.125E-03
DAV:   2    -0.846962075891E+03   -0.14705E-07   -0.28611E-07  2420   0.101E-03
  46 F= -.85478799E+03 E0= -.85478799E+03  d E =-.398670E-05  mag=     0.0000
quench:  g(F)=  0.000E+00 g(S)=  0.000E+00 dE (1.order)= 0.000E+00
 bond charge predicted
       N       E                     dE             d eps       ncg     rms          rms(c)
DAV:   1    -0.846962081960E+03   -0.60835E-05   -0.24186E-05  4440   0.939E-03    0.148E-03
DAV:   2    -0.846962081977E+03   -0.17055E-07   -0.36425E-07  2540   0.115E-03
  47 F= -.85478799E+03 E0= -.85478799E+03  d E =-.514073E-05  mag=    -0.0000
quench:  g(F)=  0.000E+00 g(S)=  0.000E+00 dE (1.order)= 0.000E+00
 bond charge predicted
       N       E                     dE             d eps       ncg     rms          rms(c)
DAV:   1    -0.846962089683E+03   -0.77224E-05   -0.35717E-05  4400   0.113E-02    0.173E-03
DAV:   2    -0.846962089704E+03   -0.21711E-07   -0.48616E-07  2780   0.133E-03
  48 F= -.85478800E+03 E0= -.85478800E+03  d E =-.645400E-05  mag=     0.0000
quench:  g(F)=  0.000E+00 g(S)=  0.000E+00 dE (1.order)= 0.000E+00
 bond charge predicted
       N       E                     dE             d eps       ncg     rms          rms(c)
DAV:   1    -0.846962099488E+03   -0.98056E-05   -0.52488E-05  4400   0.135E-02    0.202E-03
DAV:   2    -0.846962099521E+03   -0.33011E-07   -0.68717E-07  3000   0.157E-03
  49 F= -.85478801E+03 E0= -.85478801E+03  d E =-.813263E-05  mag=     0.0000
quench:  g(F)=  0.000E+00 g(S)=  0.000E+00 dE (1.order)= 0.000E+00
 bond charge predicted
       N       E                     dE             d eps       ncg     rms          rms(c)
DAV:   1    -0.846962111987E+03   -0.12499E-04   -0.79274E-05  4380   0.166E-02    0.243E-03
DAV:   2    -0.846962112034E+03   -0.46668E-07   -0.99946E-07  2980   0.190E-03
  50 F= -.85478802E+03 E0= -.85478802E+03  d E =-.103958E-04  mag=    -0.0000
quench:  g(F)=  0.000E+00 g(S)=  0.000E+00 dE (1.order)= 0.000E+00
 bond charge predicted
       N       E                     dE             d eps       ncg     rms          rms(c)
DAV:   1    -0.846962127719E+03   -0.15732E-04   -0.12303E-04  4400   0.207E-02    0.297E-03
DAV:   2    -0.846962127804E+03   -0.85362E-07   -0.16658E-06  3400   0.239E-03
  51 F= -.85478803E+03 E0= -.85478803E+03  d E =-.130660E-04  mag=     0.0000
quench:  g(F)=  0.000E+00 g(S)=  0.000E+00 dE (1.order)= 0.000E+00
 bond charge predicted
       N       E                     dE             d eps       ncg     rms          rms(c)
DAV:   1    -0.846962147172E+03   -0.19453E-04   -0.19009E-04  4420   0.257E-02    0.381E-03
DAV:   2    -0.846962147283E+03   -0.11075E-06   -0.24572E-06  3720   0.292E-03
  52 F= -.85478805E+03 E0= -.85478805E+03  d E =-.160794E-04  mag=    -0.0000
quench:  g(F)=  0.000E+00 g(S)=  0.000E+00 dE (1.order)= 0.000E+00
 bond charge predicted
       N       E                     dE             d eps       ncg     rms          rms(c)
DAV:   1    -0.846962170834E+03   -0.23662E-04   -0.28847E-04  4420   0.316E-02    0.468E-03
DAV:   2    -0.846962171009E+03   -0.17502E-06   -0.37690E-06  4160   0.358E-03
  53 F= -.85478807E+03 E0= -.85478807E+03  d E =-.195269E-04  mag=     0.0000
quench:  g(F)=  0.000E+00 g(S)=  0.000E+00 dE (1.order)= 0.000E+00
 bond charge predicted
       N       E                     dE             d eps       ncg     rms          rms(c)
DAV:   1    -0.846962199666E+03   -0.28832E-04   -0.43346E-04  4420   0.385E-02    0.582E-03
DAV:   2    -0.846962199913E+03   -0.24751E-06   -0.56184E-06  4210   0.435E-03
  54 F= -.85478809E+03 E0= -.85478809E+03  d E =-.238794E-04  mag=    -0.0000
quench:  g(F)=  0.000E+00 g(S)=  0.000E+00 dE (1.order)= 0.000E+00
 bond charge predicted
       N       E                     dE             d eps       ncg     rms          rms(c)
DAV:   1    -0.846962235240E+03   -0.35574E-04   -0.64940E-04  4420   0.470E-02    0.712E-03
DAV:   2    -0.846962235603E+03   -0.36338E-06   -0.83767E-06  4620   0.528E-03
  55 F= -.85478812E+03 E0= -.85478812E+03  d E =-.298332E-04  mag=     0.0000
quench:  g(F)=  0.000E+00 g(S)=  0.000E+00 dE (1.order)= 0.000E+00
 bond charge predicted
       N       E                     dE             d eps       ncg     rms          rms(c)
DAV:   1    -0.846962278087E+03   -0.42848E-04   -0.98406E-04  4400   0.579E-02    0.877E-03
DAV:   2    -0.846962278629E+03   -0.54164E-06   -0.12798E-05  4620   0.653E-03    0.743E-03
DAV:   3    -0.846962278640E+03   -0.11016E-07   -0.10782E-06  3000   0.240E-03
  56 F= -.85478816E+03 E0= -.85478816E+03  d E =-.363150E-04  mag=    -0.0000
quench:  g(F)=  0.000E+00 g(S)=  0.000E+00 dE (1.order)= 0.000E+00
 reached required accuracy - stopping structural energy minimisation
