<?xml version="1.0" encoding="ISO-8859-1"?>
<modeling>
 <generator>
  <i name="program" type="string">vasp </i>
  <i name="version" type="string">6.4.2  </i>
  <i name="subversion" type="string">20Jul23 (build Aug 26 2025 15:10:52) complex                          parallel </i>
  <i name="platform" type="string">LinuxIFC </i>
  <i name="date" type="string">2025 12 19 </i>
  <i name="time" type="string">05:36:37 </i>
 </generator>
 <incar>
  <i type="int" name="ISTART">     0</i>
  <i type="string" name="ALGO">Normal</i>
  <i type="logical" name="ADDGRID"> T  </i>
  <i type="int" name="ISPIN">     2</i>
  <i type="int" name="IMIX">     4</i>
  <i name="AMIX">      0.20000000</i>
  <i name="BMIX">      0.00010000</i>
  <i name="AMIX_MAG">      0.80000000</i>
  <i name="BMIX_MAG">      0.00010000</i>
  <i type="int" name="ICHARG">     2</i>
  <i type="int" name="NELM">   200</i>
  <i type="int" name="IBRION">     3</i>
  <i name="EDIFF">      0.00000100</i>
  <i name="EDIFFG">     -0.03000000</i>
  <i type="int" name="NSW">  1000</i>
  <i type="int" name="ISIF">     2</i>
  <i type="int" name="ISYM">     0</i>
  <i name="ENCUT">    520.00000000</i>
  <i name="POTIM">      0.00000000</i>
  <v name="MAGMOM">      0.60000000      0.60000000      0.60000000      0.60000000      0.60000000      0.60000000      0.60000000      0.60000000      0.60000000      0.60000000      0.60000000      0.60000000      0.60000000      0.60000000      0.60000000      0.60000000      0.60000000      0.60000000      0.60000000      0.60000000
      0.60000000      0.60000000      0.60000000      0.60000000      0.60000000      0.60000000      0.60000000      0.60000000      0.60000000      0.60000000      0.60000000      0.60000000      0.60000000      0.60000000      0.60000000      0.60000000      0.60000000      0.60000000      0.60000000      0.60000000
      0.60000000      0.60000000      0.60000000      0.60000000      0.60000000      0.60000000      0.60000000      0.60000000      0.60000000      0.60000000      0.60000000      0.60000000      0.60000000      0.60000000      0.60000000      0.60000000      0.60000000      0.60000000      0.60000000      0.60000000
      0.60000000      0.60000000      0.60000000      0.60000000      0.60000000      0.60000000      0.60000000      0.60000000      0.60000000      0.60000000      0.60000000      0.60000000      0.60000000      0.60000000      0.60000000      0.60000000      0.60000000      0.60000000      0.60000000      0.60000000
      0.60000000      0.60000000      0.60000000      0.60000000      0.60000000      0.60000000      0.60000000      0.60000000      0.60000000      0.60000000      0.60000000      0.60000000      0.60000000      0.60000000      0.60000000      0.60000000      0.60000000      0.60000000</v>
  <i type="string" name="LREAL">Auto</i>
  <i type="int" name="ISMEAR">     0</i>
  <i name="SIGMA">      0.05000000</i>
  <i type="logical" name="LWAVE"> F  </i>
  <i type="logical" name="LCHARG"> F  </i>
  <i type="logical" name="LASPH"> T  </i>
  <i type="int" name="IVDW">    12</i>
  <i name="SPRING">     -5.00000000</i>
 </incar>
 <primitive_cell>
  <structure name="primitive_cell" >
   <crystal>
    <varray name="basis" >
     <v>      17.27103806       0.00000000       0.00000000 </v>
     <v>      -8.63551903      14.95715771       0.00000000 </v>
     <v>       0.00000000       0.00000000      15.00000000 </v>
    </varray>
    <i name="volume">   3874.88459904 </i>
    <varray name="rec_basis" >
     <v>       0.05790040       0.03342881       0.00000000 </v>
     <v>       0.00000000       0.06685762       0.00000000 </v>
     <v>       0.00000000       0.00000000       0.06666667 </v>
    </varray>
   </crystal>
   <varray name="positions" >
    <v>       0.99974408       0.99981381       0.50138279 </v>
    <v>       0.99926132       0.14237707       0.49998150 </v>
    <v>       0.99945304       0.28544067       0.49842544 </v>
    <v>       0.99992628       0.42847327       0.49770114 </v>
    <v>       0.00051663       0.57148538       0.49848619 </v>
    <v>       0.00132587       0.71468549       0.49945039 </v>
    <v>       0.00094436       0.85769781       0.50069158 </v>
    <v>       0.14307260       0.00041482       0.50361369 </v>
    <v>       0.14241414       0.14296078       0.50359588 </v>
    <v>       0.14193645       0.28549077       0.50253423 </v>
    <v>       0.14260749       0.42903171       0.50086963 </v>
    <v>       0.14318943       0.57154327       0.50013950 </v>
    <v>       0.14353422       0.71439334       0.50097197 </v>
    <v>       0.14332670       0.85749770       0.50225680 </v>
    <v>       0.28574116       0.00007685       0.50319134 </v>
    <v>       0.28553723       0.14279533       0.50507187 </v>
    <v>       0.28538570       0.28701748       0.50715140 </v>
    <v>       0.28434069       0.42852419       0.50715538 </v>
    <v>       0.28727135       0.57220299       0.50362643 </v>
    <v>       0.28624221       0.71509190       0.50162427 </v>
    <v>       0.28556173       0.85763472       0.50180010 </v>
    <v>       0.42858381       0.99982905       0.50082225 </v>
    <v>       0.42842676       0.14249069       0.50262182 </v>
    <v>       0.42681557       0.28227980       0.50542380 </v>
    <v>       0.42769791       0.85663869       0.50047865 </v>
    <v>       0.57080104       0.99933083       0.49816724 </v>
    <v>       0.57126301       0.14220911       0.49878684 </v>
    <v>       0.57234161       0.28587970       0.49982943 </v>
    <v>       0.56991360       0.85520650       0.49833272 </v>
    <v>       0.71303006       0.99860526       0.49667668 </v>
    <v>       0.71399010       0.14218828       0.49666846 </v>
    <v>       0.71430558       0.28527385       0.49663838 </v>
    <v>       0.71418024       0.42756721       0.49503315 </v>
    <v>       0.71881829       0.57335651       0.48681978 </v>
    <v>       0.71870843       0.71541183       0.48698483 </v>
    <v>       0.71230257       0.85576491       0.49518854 </v>
    <v>       0.85638472       0.99926808       0.49753271 </v>
    <v>       0.85630692       0.14206677       0.49693689 </v>
    <v>       0.85682000       0.28517430       0.49636362 </v>
    <v>       0.85749372       0.42829521       0.49599675 </v>
    <v>       0.85838420       0.57179601       0.49558186 </v>
    <v>       0.85967310       0.71516575       0.49507412 </v>
    <v>       0.85754996       0.85691070       0.49697448 </v>
    <v>       0.04724290       0.09508990       0.50179256 </v>
    <v>       0.04659573       0.23751448       0.50016690 </v>
    <v>       0.04712234       0.38084553       0.49875174 </v>
    <v>       0.04797524       0.52381456       0.49869389 </v>
    <v>       0.04837485       0.66683884       0.49977733 </v>
    <v>       0.04826136       0.80983239       0.50103897 </v>
    <v>       0.04785118       0.95259729       0.50224218 </v>
    <v>       0.19028419       0.09527270       0.50445370 </v>
    <v>       0.18968663       0.23810723       0.50426717 </v>
    <v>       0.18892871       0.38061766       0.50310928 </v>
    <v>       0.19105262       0.52455146       0.50121805 </v>
    <v>       0.19094628       0.66691557       0.50103890 </v>
    <v>       0.19072234       0.80981743       0.50183499 </v>
    <v>       0.19075850       0.95264043       0.50327492 </v>
    <v>       0.33332427       0.09540286       0.50389482 </v>
    <v>       0.33381451       0.23805940       0.50637558 </v>
    <v>       0.32969562       0.37979039       0.51000946 </v>
    <v>       0.33061331       0.52305356       0.50772036 </v>
    <v>       0.33700714       0.67048381       0.50236261 </v>
    <v>       0.33298206       0.80988477       0.50136340 </v>
    <v>       0.33323491       0.95255838       0.50204198 </v>
    <v>       0.47611535       0.09483546       0.50065616 </v>
    <v>       0.47549574       0.23760586       0.50290545 </v>
    <v>       0.47229197       0.80598382       0.50025984 </v>
    <v>       0.47586588       0.95203856       0.49970364 </v>
    <v>       0.61857584       0.09449696       0.49762126 </v>
    <v>       0.61918826       0.23759525       0.49821710 </v>
    <v>       0.62124183       0.37923156       0.49808845 </v>
    <v>       0.61893129       0.81087964       0.49708009 </v>
    <v>       0.61762438       0.95089958       0.49746061 </v>
    <v>       0.76114589       0.09433331       0.49650993 </v>
    <v>       0.76177828       0.23738019       0.49638706 </v>
    <v>       0.76223966       0.38046493       0.49569745 </v>
    <v>       0.76277862       0.52483456       0.49230503 </v>
    <v>       0.76468978       0.66736056       0.48912380 </v>
    <v>       0.76175624       0.80781977       0.49299327 </v>
    <v>       0.76084050       0.95126728       0.49628889 </v>
    <v>       0.90387858       0.09427744       0.49805008 </v>
    <v>       0.90412383       0.23743485       0.49700280 </v>
    <v>       0.90465370       0.38071968       0.49653274 </v>
    <v>       0.90541516       0.52389588       0.49688633 </v>
    <v>       0.90624970       0.66695757       0.49675600 </v>
    <v>       0.90579498       0.80994967       0.49770206 </v>
    <v>       0.90454904       0.95190400       0.49898302 </v>
    <v>       0.46297970       0.35481039       0.50611017 </v>
    <v>       0.40199393       0.41811190       0.51548867 </v>
    <v>       0.40300027       0.55980418       0.51245393 </v>
    <v>       0.64651962       0.67707324       0.48078606 </v>
    <v>       0.64643728       0.53978105       0.48348227 </v>
    <v>       0.58546488       0.41596483       0.49993384 </v>
    <v>       0.58010646       0.73825037       0.49800185 </v>
    <v>       0.51353247       0.56496027       0.48372369 </v>
    <v>       0.54259711       0.57761897       0.58241645 </v>
    <v>       0.42710903       0.71539935       0.50161536 </v>
    <v>       0.52715081       0.53654233       0.53249460 </v>
   </varray>
  </structure>
  <varray name="primitive_index" >
   <v type="int" >        1 </v>
   <v type="int" >        2 </v>
   <v type="int" >        3 </v>
   <v type="int" >        4 </v>
   <v type="int" >        5 </v>
   <v type="int" >        6 </v>
   <v type="int" >        7 </v>
   <v type="int" >        8 </v>
   <v type="int" >        9 </v>
   <v type="int" >       10 </v>
   <v type="int" >       11 </v>
   <v type="int" >       12 </v>
   <v type="int" >       13 </v>
   <v type="int" >       14 </v>
   <v type="int" >       15 </v>
   <v type="int" >       16 </v>
   <v type="int" >       17 </v>
   <v type="int" >       18 </v>
   <v type="int" >       19 </v>
   <v type="int" >       20 </v>
   <v type="int" >       21 </v>
   <v type="int" >       22 </v>
   <v type="int" >       23 </v>
   <v type="int" >       24 </v>
   <v type="int" >       25 </v>
   <v type="int" >       26 </v>
   <v type="int" >       27 </v>
   <v type="int" >       28 </v>
   <v type="int" >       29 </v>
   <v type="int" >       30 </v>
   <v type="int" >       31 </v>
   <v type="int" >       32 </v>
   <v type="int" >       33 </v>
   <v type="int" >       34 </v>
   <v type="int" >       35 </v>
   <v type="int" >       36 </v>
   <v type="int" >       37 </v>
   <v type="int" >       38 </v>
   <v type="int" >       39 </v>
   <v type="int" >       40 </v>
   <v type="int" >       41 </v>
   <v type="int" >       42 </v>
   <v type="int" >       43 </v>
   <v type="int" >       44 </v>
   <v type="int" >       45 </v>
   <v type="int" >       46 </v>
   <v type="int" >       47 </v>
   <v type="int" >       48 </v>
   <v type="int" >       49 </v>
   <v type="int" >       50 </v>
   <v type="int" >       51 </v>
   <v type="int" >       52 </v>
   <v type="int" >       53 </v>
   <v type="int" >       54 </v>
   <v type="int" >       55 </v>
   <v type="int" >       56 </v>
   <v type="int" >       57 </v>
   <v type="int" >       58 </v>
   <v type="int" >       59 </v>
   <v type="int" >       60 </v>
   <v type="int" >       61 </v>
   <v type="int" >       62 </v>
   <v type="int" >       63 </v>
   <v type="int" >       64 </v>
   <v type="int" >       65 </v>
   <v type="int" >       66 </v>
   <v type="int" >       67 </v>
   <v type="int" >       68 </v>
   <v type="int" >       69 </v>
   <v type="int" >       70 </v>
   <v type="int" >       71 </v>
   <v type="int" >       72 </v>
   <v type="int" >       73 </v>
   <v type="int" >       74 </v>
   <v type="int" >       75 </v>
   <v type="int" >       76 </v>
   <v type="int" >       77 </v>
   <v type="int" >       78 </v>
   <v type="int" >       79 </v>
   <v type="int" >       80 </v>
   <v type="int" >       81 </v>
   <v type="int" >       82 </v>
   <v type="int" >       83 </v>
   <v type="int" >       84 </v>
   <v type="int" >       85 </v>
   <v type="int" >       86 </v>
   <v type="int" >       87 </v>
   <v type="int" >       88 </v>
   <v type="int" >       89 </v>
   <v type="int" >       90 </v>
   <v type="int" >       91 </v>
   <v type="int" >       92 </v>
   <v type="int" >       93 </v>
   <v type="int" >       94 </v>
   <v type="int" >       95 </v>
   <v type="int" >       96 </v>
   <v type="int" >       97 </v>
   <v type="int" >       98 </v>
  </varray>
 </primitive_cell>
 <kpoints>
  <generation param="Gamma">
   <v type="int" name="divisions">       2        2        1 </v>
   <v name="usershift">      0.00000000       0.00000000       0.00000000 </v>
   <v name="genvec1">      0.50000000       0.00000000       0.00000000 </v>
   <v name="genvec2">      0.00000000       0.50000000       0.00000000 </v>
   <v name="genvec3">      0.00000000       0.00000000       1.00000000 </v>
   <v name="shift">      0.00000000       0.00000000       0.00000000 </v>
  </generation>
  <varray name="kpointlist" >
   <v>       0.00000000       0.00000000       0.00000000 </v>
   <v>       0.50000000       0.00000000       0.00000000 </v>
   <v>       0.00000000       0.50000000       0.00000000 </v>
   <v>       0.50000000       0.50000000       0.00000000 </v>
  </varray>
  <varray name="weights" >
   <v>       0.25000000 </v>
   <v>       0.25000000 </v>
   <v>       0.25000000 </v>
   <v>       0.25000000 </v>
  </varray>
 </kpoints>
 <parameters>
  <separator name="general" >
   <i type="string" name="SYSTEM">unknown system</i>
   <i type="logical" name="LCOMPAT"> F  </i>
  </separator>
  <separator name="electronic" >
   <i type="string" name="PREC">normal</i>
   <i name="ENMAX">    520.00000000</i>
   <i name="ENAUG">    644.87300000</i>
   <i name="EDIFF">      0.00000100</i>
   <i type="int" name="IALGO">    38</i>
   <i type="int" name="IWAVPR">    11</i>
   <i type="int" name="NBANDS">   270</i>
   <i type="int" name="NBANDSLOW">    -1</i>
   <i type="int" name="NBANDSHIGH">    -1</i>
   <i name="NELECT">    368.00000000</i>
   <i type="int" name="TURBO">     0</i>
   <i type="int" name="IRESTART">     0</i>
   <i type="int" name="NREBOOT">     0</i>
   <i type="int" name="NMIN">     0</i>
   <i name="EREF">      0.00000000</i>
   <separator name="electronic smearing" >
    <i type="int" name="ISMEAR">     0</i>
    <i name="SIGMA">      0.05000000</i>
    <i name="KSPACING">      0.50000000</i>
    <i type="logical" name="KGAMMA"> T  </i>
    <i type="logical" name="KBLOWUP"> T  </i>
   </separator>
   <separator name="electronic projectors" >
    <i type="logical" name="LREAL"> T  </i>
    <v name="ROPT">     -0.00050000     -0.00050000     -0.00050000     -0.00050000</v>
    <i type="int" name="LMAXPAW">  -100</i>
    <i type="int" name="LMAXMIX">     2</i>
    <i type="logical" name="NLSPLINE"> F  </i>
   </separator>
   <separator name="electronic startup" >
    <i type="int" name="ISTART">     0</i>
    <i type="int" name="ICHARG">     2</i>
    <i type="int" name="INIWAV">     1</i>
   </separator>
   <separator name="electronic spin" >
    <i type="int" name="ISPIN">     2</i>
    <i type="logical" name="LNONCOLLINEAR"> F  </i>
    <v name="MAGMOM">      0.60000000      0.60000000      0.60000000      0.60000000      0.60000000      0.60000000      0.60000000      0.60000000      0.60000000      0.60000000      0.60000000      0.60000000      0.60000000      0.60000000      0.60000000      0.60000000      0.60000000      0.60000000      0.60000000      0.60000000
      0.60000000      0.60000000      0.60000000      0.60000000      0.60000000      0.60000000      0.60000000      0.60000000      0.60000000      0.60000000      0.60000000      0.60000000      0.60000000      0.60000000      0.60000000      0.60000000      0.60000000      0.60000000      0.60000000      0.60000000
      0.60000000      0.60000000      0.60000000      0.60000000      0.60000000      0.60000000      0.60000000      0.60000000      0.60000000      0.60000000      0.60000000      0.60000000      0.60000000      0.60000000      0.60000000      0.60000000      0.60000000      0.60000000      0.60000000      0.60000000
      0.60000000      0.60000000      0.60000000      0.60000000      0.60000000      0.60000000      0.60000000      0.60000000      0.60000000      0.60000000      0.60000000      0.60000000      0.60000000      0.60000000      0.60000000      0.60000000      0.60000000      0.60000000      0.60000000      0.60000000
      0.60000000      0.60000000      0.60000000      0.60000000      0.60000000      0.60000000      0.60000000      0.60000000      0.60000000      0.60000000      0.60000000      0.60000000      0.60000000      0.60000000      0.60000000      0.60000000      0.60000000      0.60000000</v>
    <i name="NUPDOWN">     -1.00000000</i>
    <i type="logical" name="LSORBIT"> F  </i>
    <v name="SAXIS">      0.00000000      0.00000000      1.00000000</v>
    <i type="logical" name="LSPIRAL"> F  </i>
    <v name="QSPIRAL">      0.00000000      0.00000000      0.00000000</v>
    <i type="logical" name="LZEROZ"> F  </i>
   </separator>
   <separator name="electronic exchange-correlation" >
    <i type="logical" name="LASPH"> T  </i>
    <i type="logical" name="LMETAGGA"> F  </i>
   </separator>
   <separator name="electronic convergence" >
    <i type="int" name="NELM">   200</i>
    <i type="int" name="NELMDL">    -5</i>
    <i type="int" name="NELMIN">     2</i>
    <i name="ENINI">    520.00000000</i>
    <separator name="electronic convergence detail" >
     <i type="logical" name="LDIAG"> T  </i>
     <i type="logical" name="LSUBROT"> F  </i>
     <i name="WEIMIN">      0.00100000</i>
     <i name="EBREAK">      0.00000000</i>
     <i name="DEPER">      0.30000000</i>
     <i type="int" name="NRMM">     4</i>
     <i name="TIME">      0.40000000</i>
    </separator>
   </separator>
   <separator name="electronic mixer" >
    <i name="AMIX">      0.20000000</i>
    <i name="BMIX">      0.00010000</i>
    <i name="AMIN">      0.10000000</i>
    <i name="AMIX_MAG">      0.80000000</i>
    <i name="BMIX_MAG">      0.00010000</i>
    <separator name="electronic mixer details" >
     <i type="int" name="IMIX">     4</i>
     <i type="logical" name="MIXFIRST"> F  </i>
     <i type="int" name="MAXMIX">   -45</i>
     <i name="WC">    100.00000000</i>
     <i type="int" name="INIMIX">     1</i>
     <i type="int" name="MIXPRE">     1</i>
     <i type="int" name="MREMOVE">     5</i>
    </separator>
   </separator>
   <separator name="electronic dipolcorrection" >
    <i type="logical" name="LDIPOL"> F  </i>
    <i type="logical" name="LMONO"> F  </i>
    <i type="int" name="IDIPOL">     0</i>
    <i name="EPSILON">      1.00000000</i>
    <v name="DIPOL">   -100.00000000   -100.00000000   -100.00000000</v>
    <i name="EFIELD">      0.00000000</i>
   </separator>
  </separator>
  <separator name="grids" >
   <i type="int" name="NGX">    96</i>
   <i type="int" name="NGY">    96</i>
   <i type="int" name="NGZ">    84</i>
   <i type="int" name="NGXF">   192</i>
   <i type="int" name="NGYF">   192</i>
   <i type="int" name="NGZF">   168</i>
   <i type="logical" name="ADDGRID"> T  </i>
  </separator>
  <separator name="ionic" >
   <i type="int" name="NSW">  1000</i>
   <i type="int" name="IBRION">     3</i>
   <i type="int" name="MDALGO">     0</i>
   <i type="int" name="ISIF">     2</i>
   <i name="PSTRESS">      0.00000000</i>
   <i name="EDIFFG">     -0.03000000</i>
   <i type="int" name="NFREE">     0</i>
   <i name="POTIM">      0.00000000</i>
   <i name="SMASS">     -3.00000000</i>
   <i name="SCALEE">      1.00000000</i>
  </separator>
  <separator name="ionic md" >
   <i name="TEBEG">      0.00010000</i>
   <i name="TEEND">      0.00010000</i>
   <i type="int" name="NBLOCK">     1</i>
   <i type="int" name="KBLOCK">  1000</i>
   <i type="int" name="NPACO">   256</i>
   <i name="APACO">     10.00000000</i>
  </separator>
  <separator name="symmetry" >
   <i type="int" name="ISYM">     0</i>
   <i name="SYMPREC">      0.00001000</i>
  </separator>
  <separator name="dos" >
   <i type="int" name="LORBIT">     0</i>
   <v name="RWIGS">     -1.00000000     -1.00000000     -1.00000000     -1.00000000</v>
   <i type="int" name="NEDOS">   301</i>
   <i name="EMIN">     10.00000000</i>
   <i name="EMAX">    -10.00000000</i>
   <i name="EFERMI">      0.00000000</i>
  </separator>
  <separator name="writing" >
   <i type="int" name="NWRITE">     2</i>
   <i type="logical" name="LWAVE"> F  </i>
   <i type="logical" name="LDOWNSAMPLE"> F  </i>
   <i type="logical" name="LCHARG"> F  </i>
   <i type="logical" name="LPARD"> F  </i>
   <i type="logical" name="LVTOT"> F  </i>
   <i type="logical" name="LVHAR"> F  </i>
   <i type="logical" name="LELF"> F  </i>
   <i type="logical" name="LOPTICS"> F  </i>
   <v name="STM">      0.00000000      0.00000000      0.00000000      0.00000000      0.00000000      0.00000000      0.00000000</v>
  </separator>
  <separator name="performance" >
   <i type="int" name="NPAR">    10</i>
   <i type="int" name="NSIM">     4</i>
   <i type="int" name="NBLK">    -1</i>
   <i type="logical" name="LPLANE"> T  </i>
   <i type="logical" name="LSCALAPACK"> T  </i>
   <i type="logical" name="LSCAAWARE"> F  </i>
   <i type="logical" name="LSCALU"> F  </i>
   <i type="logical" name="LASYNC"> F  </i>
   <i type="logical" name="LORBITALREAL"> F  </i>
  </separator>
  <separator name="miscellaneous" >
   <i type="int" name="IDIOT">     3</i>
   <i type="int" name="PHON_NSTRUCT">    -1</i>
   <i type="logical" name="LMUSIC"> F  </i>
   <v name="POMASS">     12.01100000      1.00000000     14.00100000     16.00000000</v>
   <v name="DARWINR">      0.00000000      0.00000000      0.00000000      0.00000000</v>
   <v name="DARWINV">      1.00000000      1.00000000      1.00000000      1.00000000</v>
   <i type="logical" name="LCORR"> T  </i>
  </separator>
  <i type="logical" name="GGA_COMPAT"> T  </i>
  <i type="logical" name="LBERRY"> F  </i>
  <i type="int" name="ICORELEVEL">     0</i>
  <i type="logical" name="LDAU"> F  </i>
  <i type="int" name="I_CONSTRAINED_M">     0</i>
  <separator name="electronic exchange-correlation" >
   <i type="string" name="GGA">--</i>
   <i type="int" name="VOSKOWN">     0</i>
   <i type="logical" name="LHFCALC"> F  </i>
   <i type="string" name="PRECFOCK"></i>
   <i type="logical" name="LSYMGRAD"> F  </i>
   <i type="logical" name="LHFONE"> F  </i>
   <i type="logical" name="LRHFCALC"> F  </i>
   <i type="logical" name="LTHOMAS"> F  </i>
   <i type="logical" name="LMODELHF"> F  </i>
   <i type="logical" name="LFOCKACE"> F  </i>
   <i name="ENCUT4O">     -1.00000000</i>
   <i type="int" name="EXXOEP">     0</i>
   <i type="int" name="FOURORBIT">     0</i>
   <i name="AEXX">      0.00000000</i>
   <i name="HFALPHA">      0.00000000</i>
   <i name="MCALPHA">      0.00000000</i>
   <i name="ALDAX">      1.00000000</i>
   <i name="AGGAX">      1.00000000</i>
   <i name="ALDAC">      1.00000000</i>
   <i name="AGGAC">      1.00000000</i>
   <i type="int" name="NKREDX">     1</i>
   <i type="int" name="NKREDY">     1</i>
   <i type="int" name="NKREDZ">     1</i>
   <i type="logical" name="SHIFTRED"> F  </i>
   <i type="logical" name="ODDONLY"> F  </i>
   <i type="logical" name="EVENONLY"> F  </i>
   <i type="int" name="LMAXFOCK">     0</i>
   <i type="int" name="NMAXFOCKAE">     0</i>
   <i type="logical" name="LFOCKAEDFT"> F  </i>
   <i name="HFSCREEN">      0.00000000</i>
   <i name="HFSCREENC">      0.00000000</i>
   <i type="int" name="NBANDSGWLOW">     0</i>
  </separator>
  <separator name="vdW DFT" >
   <i type="logical" name="LUSE_VDW"> F  </i>
   <i type="int" name="IVDW_NL">     1</i>
   <i type="logical" name="LSPIN_VDW"> F  </i>
   <i name="Zab_VDW">     -0.84910000</i>
   <i name="PARAM1">      0.12340000</i>
   <i name="PARAM2">      1.00000000</i>
   <i name="PARAM3">      0.00000000</i>
  </separator>
  <separator name="model GW" >
   <i type="int" name="MODEL_GW">     0</i>
   <i name="MODEL_EPS0">     23.72378326</i>
   <i name="MODEL_ALPHA">      1.00000000</i>
  </separator>
  <separator name="linear response parameters" >
   <i type="logical" name="LEPSILON"> F  </i>
   <i type="logical" name="LRPA"> F  </i>
   <i type="logical" name="LNABLA"> F  </i>
   <i type="logical" name="LVEL"> F  </i>
   <i name="CSHIFT">      0.10000000</i>
   <i name="OMEGAMAX">     -1.00000000</i>
   <i name="DEG_THRESHOLD">      0.00200000</i>
   <i name="RTIME">     -0.10000000</i>
   <i name="WPLASMAI">      0.00000000</i>
   <v name="DFIELD">      0.00000000      0.00000000      0.00000000</v>
   <v name="WPLASMA">      0.00000000      0.00000000      0.00000000      0.00000000      0.00000000      0.00000000      0.00000000      0.00000000      0.00000000</v>
  </separator>
  <separator name="orbital magnetization" >
   <i type="logical" name="NUCIND"> F  </i>
   <v name="MAGPOS">      0.00000000      0.00000000      0.00000000</v>
   <i type="logical" name="LNICSALL"> T  </i>
   <i type="logical" name="ORBITALMAG"> F  </i>
   <i type="logical" name="LMAGBLOCH"> F  </i>
   <i type="logical" name="LCHIMAG"> F  </i>
   <i type="logical" name="LGAUGE"> T  </i>
   <i type="int" name="MAGATOM">     0</i>
   <v name="MAGDIPOL">      0.00000000      0.00000000      0.00000000</v>
   <v name="AVECCONST">      0.00000000      0.00000000      0.00000000</v>
  </separator>
  <separator name="response functions" >
   <i type="logical" name="LALL_IN_ONE"> F  </i>
   <i type="int" name="IALL_IN_ONE">    -1</i>
   <i type="int" name="NBANDS_WAVE">    -1</i>
   <i type="logical" name="LFINITE_TEMPERATURE"> F  </i>
   <i type="logical" name="LADDER"> F  </i>
   <i type="logical" name="LRPAFORCE"> F  </i>
   <i type="logical" name="LFXC"> F  </i>
   <i type="logical" name="LHARTREE"> T  </i>
   <i type="int" name="IBSE">     0</i>
   <v type="int" name="KPOINT">    -1     0     0     0</v>
   <i type="logical" name="LTCTC"> F  </i>
   <i type="logical" name="LTCTE"> F  </i>
   <i type="logical" name="LTETE"> F  </i>
   <i type="logical" name="LTRIPLET"> F  </i>
   <i type="logical" name="LFXCEPS"> F  </i>
   <i type="logical" name="LFXHEG"> F  </i>
   <i type="int" name="NATURALO">     2</i>
   <i type="logical" name="LHOLEGF"> F  </i>
   <i type="logical" name="L2ORDER"> F  </i>
   <i type="logical" name="LDMP1"> F  </i>
   <i type="logical" name="LMP2LT"> F  </i>
   <i type="logical" name="LSMP2LT"> F  </i>
   <i type="logical" name="LGWLF"> F  </i>
   <i name="ENCUTGW">     -1.60000002</i>
   <i name="ENCUTGWSOFT">     -1.60000002</i>
   <i name="ENCUTLF">     -1.00000000</i>
   <i type="logical" name="LESF_SPLINES"> F  </i>
   <i type="int" name="LMAXMP2">    -1</i>
   <i name="SCISSOR">      0.00000000</i>
   <i type="int" name="NOMEGA">     0</i>
   <i type="int" name="NOMEGAR">     0</i>
   <i type="int" name="NBANDSGW">    -1</i>
   <i type="int" name="NBANDSO">    -1</i>
   <i type="int" name="NBANDSV">    -1</i>
   <i type="int" name="NELMGW">     1</i>
   <i type="int" name="NELMHF">     1</i>
   <i type="int" name="DIM">     3</i>
   <i type="int" name="IESPILON">     4</i>
   <i type="int" name="ANTIRES">     0</i>
   <i name="OMEGAMAX">    -30.00000000</i>
   <i name="OMEGAMIN">    -30.00000000</i>
   <i name="OMEGATL">   -200.00000000</i>
   <i type="int" name="OMEGAGRID">     0</i>
   <i name="CSHIFT">     -0.10000000</i>
   <i type="logical" name="LSELFENERGY"> F  </i>
   <i type="logical" name="LSPECTRAL"> F  </i>
   <i type="logical" name="LSPECTRALGW"> F  </i>
   <i type="logical" name="LSINGLES"> F  </i>
   <i type="logical" name="LFERMIGW"> F  </i>
   <i type="logical" name="ODDONLYGW"> F  </i>
   <i type="logical" name="EVENONLYGW"> F  </i>
   <i type="int" name="NKREDLFX">     1</i>
   <i type="int" name="NKREDLFY">     1</i>
   <i type="int" name="NKREDLFZ">     1</i>
   <i type="int" name="MAXMEM">  2800</i>
   <i type="int" name="TELESCOPE">     0</i>
   <i type="int" name="NTAUPAR">    -1</i>
   <i type="int" name="NOMEGAPAR">    -1</i>
   <i name="DAMP_NEWTON">      0.80000001</i>
   <i name="LAMBDA">      1.00000000</i>
  </separator>
  <separator name="External order field" >
   <i name="OFIELD_KAPPA">      0.00000000</i>
   <v name="OFIELD_K">      0.00000000      0.00000000      0.00000000</v>
   <i name="OFIELD_Q6_NEAR">      0.00000000</i>
   <i name="OFIELD_Q6_FAR">      0.00000000</i>
   <i name="OFIELD_A">      0.00000000</i>
  </separator>
  <separator name="optional k-points parameters" >
   <i type="int" name="KPOINTS_OPT_MODE">     1</i>
   <i type="logical" name="LKPOINTS_OPT"> F  </i>
  </separator>
 </parameters>
 <atominfo>
  <atoms>      98 </atoms>
  <types>       4 </types>
  <array name="atoms" >
   <dimension dim="1">ion</dimension>
   <field type="string">element</field>
   <field type="int">atomtype</field>
   <set>
    <rc><c>C </c><c>   1</c></rc>
    <rc><c>C </c><c>   1</c></rc>
    <rc><c>C </c><c>   1</c></rc>
    <rc><c>C </c><c>   1</c></rc>
    <rc><c>C </c><c>   1</c></rc>
    <rc><c>C </c><c>   1</c></rc>
    <rc><c>C </c><c>   1</c></rc>
    <rc><c>C </c><c>   1</c></rc>
    <rc><c>C </c><c>   1</c></rc>
    <rc><c>C </c><c>   1</c></rc>
    <rc><c>C </c><c>   1</c></rc>
    <rc><c>C </c><c>   1</c></rc>
    <rc><c>C </c><c>   1</c></rc>
    <rc><c>C </c><c>   1</c></rc>
    <rc><c>C </c><c>   1</c></rc>
    <rc><c>C </c><c>   1</c></rc>
    <rc><c>C </c><c>   1</c></rc>
    <rc><c>C </c><c>   1</c></rc>
    <rc><c>C </c><c>   1</c></rc>
    <rc><c>C </c><c>   1</c></rc>
    <rc><c>C </c><c>   1</c></rc>
    <rc><c>C </c><c>   1</c></rc>
    <rc><c>C </c><c>   1</c></rc>
    <rc><c>C </c><c>   1</c></rc>
    <rc><c>C </c><c>   1</c></rc>
    <rc><c>C </c><c>   1</c></rc>
    <rc><c>C </c><c>   1</c></rc>
    <rc><c>C </c><c>   1</c></rc>
    <rc><c>C </c><c>   1</c></rc>
    <rc><c>C </c><c>   1</c></rc>
    <rc><c>C </c><c>   1</c></rc>
    <rc><c>C </c><c>   1</c></rc>
    <rc><c>C </c><c>   1</c></rc>
    <rc><c>C </c><c>   1</c></rc>
    <rc><c>C </c><c>   1</c></rc>
    <rc><c>C </c><c>   1</c></rc>
    <rc><c>C </c><c>   1</c></rc>
    <rc><c>C </c><c>   1</c></rc>
    <rc><c>C </c><c>   1</c></rc>
    <rc><c>C </c><c>   1</c></rc>
    <rc><c>C </c><c>   1</c></rc>
    <rc><c>C </c><c>   1</c></rc>
    <rc><c>C </c><c>   1</c></rc>
    <rc><c>C </c><c>   1</c></rc>
    <rc><c>C </c><c>   1</c></rc>
    <rc><c>C </c><c>   1</c></rc>
    <rc><c>C </c><c>   1</c></rc>
    <rc><c>C </c><c>   1</c></rc>
    <rc><c>C </c><c>   1</c></rc>
    <rc><c>C </c><c>   1</c></rc>
    <rc><c>C </c><c>   1</c></rc>
    <rc><c>C </c><c>   1</c></rc>
    <rc><c>C </c><c>   1</c></rc>
    <rc><c>C </c><c>   1</c></rc>
    <rc><c>C </c><c>   1</c></rc>
    <rc><c>C </c><c>   1</c></rc>
    <rc><c>C </c><c>   1</c></rc>
    <rc><c>C </c><c>   1</c></rc>
    <rc><c>C </c><c>   1</c></rc>
    <rc><c>C </c><c>   1</c></rc>
    <rc><c>C </c><c>   1</c></rc>
    <rc><c>C </c><c>   1</c></rc>
    <rc><c>C </c><c>   1</c></rc>
    <rc><c>C </c><c>   1</c></rc>
    <rc><c>C </c><c>   1</c></rc>
    <rc><c>C </c><c>   1</c></rc>
    <rc><c>C </c><c>   1</c></rc>
    <rc><c>C </c><c>   1</c></rc>
    <rc><c>C </c><c>   1</c></rc>
    <rc><c>C </c><c>   1</c></rc>
    <rc><c>C </c><c>   1</c></rc>
    <rc><c>C </c><c>   1</c></rc>
    <rc><c>C </c><c>   1</c></rc>
    <rc><c>C </c><c>   1</c></rc>
    <rc><c>C </c><c>   1</c></rc>
    <rc><c>C </c><c>   1</c></rc>
    <rc><c>C </c><c>   1</c></rc>
    <rc><c>C </c><c>   1</c></rc>
    <rc><c>C </c><c>   1</c></rc>
    <rc><c>C </c><c>   1</c></rc>
    <rc><c>C </c><c>   1</c></rc>
    <rc><c>C </c><c>   1</c></rc>
    <rc><c>C </c><c>   1</c></rc>
    <rc><c>C </c><c>   1</c></rc>
    <rc><c>C </c><c>   1</c></rc>
    <rc><c>C </c><c>   1</c></rc>
    <rc><c>C </c><c>   1</c></rc>
    <rc><c>H </c><c>   2</c></rc>
    <rc><c>H </c><c>   2</c></rc>
    <rc><c>H </c><c>   2</c></rc>
    <rc><c>H </c><c>   2</c></rc>
    <rc><c>H </c><c>   2</c></rc>
    <rc><c>H </c><c>   2</c></rc>
    <rc><c>H </c><c>   2</c></rc>
    <rc><c>H </c><c>   2</c></rc>
    <rc><c>H </c><c>   2</c></rc>
    <rc><c>N </c><c>   3</c></rc>
    <rc><c>O </c><c>   4</c></rc>
   </set>
  </array>
  <array name="atomtypes" >
   <dimension dim="1">type</dimension>
   <field type="int">atomspertype</field>
   <field type="string">element</field>
   <field>mass</field>
   <field>valence</field>
   <field type="string">pseudopotential</field>
   <set>
    <rc><c>  87</c><c>C </c><c>     12.01100000</c><c>      4.00000000</c><c>  PAW_PBE C 08Apr2002                   </c></rc>
    <rc><c>   9</c><c>H </c><c>      1.00000000</c><c>      1.00000000</c><c>  PAW_PBE H 15Jun2001                   </c></rc>
    <rc><c>   1</c><c>N </c><c>     14.00100000</c><c>      5.00000000</c><c>  PAW_PBE N 08Apr2002                   </c></rc>
    <rc><c>   1</c><c>O </c><c>     16.00000000</c><c>      6.00000000</c><c>  PAW_PBE O 08Apr2002                   </c></rc>
   </set>
  </array>
 </atominfo>
 <structure name="initialpos" >
  <crystal>
   <varray name="basis" >
    <v>      17.27103806       0.00000000       0.00000000 </v>
    <v>      -8.63551903      14.95715771       0.00000000 </v>
    <v>       0.00000000       0.00000000      15.00000000 </v>
   </varray>
   <i name="volume">   3874.88459904 </i>
   <varray name="rec_basis" >
    <v>       0.05790040       0.03342881       0.00000000 </v>
    <v>       0.00000000       0.06685762       0.00000000 </v>
    <v>       0.00000000       0.00000000       0.06666667 </v>
   </varray>
  </crystal>
  <varray name="positions" >
   <v>       0.99974408       0.99981381       0.50138279 </v>
   <v>       0.99926132       0.14237707       0.49998150 </v>
   <v>       0.99945304       0.28544067       0.49842544 </v>
   <v>       0.99992628       0.42847327       0.49770114 </v>
   <v>       0.00051663       0.57148538       0.49848619 </v>
   <v>       0.00132587       0.71468549       0.49945039 </v>
   <v>       0.00094436       0.85769781       0.50069158 </v>
   <v>       0.14307260       0.00041482       0.50361369 </v>
   <v>       0.14241414       0.14296078       0.50359588 </v>
   <v>       0.14193645       0.28549077       0.50253423 </v>
   <v>       0.14260749       0.42903171       0.50086963 </v>
   <v>       0.14318943       0.57154327       0.50013950 </v>
   <v>       0.14353422       0.71439334       0.50097197 </v>
   <v>       0.14332670       0.85749770       0.50225680 </v>
   <v>       0.28574116       0.00007685       0.50319134 </v>
   <v>       0.28553723       0.14279533       0.50507187 </v>
   <v>       0.28538570       0.28701748       0.50715140 </v>
   <v>       0.28434069       0.42852419       0.50715538 </v>
   <v>       0.28727135       0.57220299       0.50362643 </v>
   <v>       0.28624221       0.71509190       0.50162427 </v>
   <v>       0.28556173       0.85763472       0.50180010 </v>
   <v>       0.42858381       0.99982905       0.50082225 </v>
   <v>       0.42842676       0.14249069       0.50262182 </v>
   <v>       0.42681557       0.28227980       0.50542380 </v>
   <v>       0.42769791       0.85663869       0.50047865 </v>
   <v>       0.57080104       0.99933083       0.49816724 </v>
   <v>       0.57126301       0.14220911       0.49878684 </v>
   <v>       0.57234161       0.28587970       0.49982943 </v>
   <v>       0.56991360       0.85520650       0.49833272 </v>
   <v>       0.71303006       0.99860526       0.49667668 </v>
   <v>       0.71399010       0.14218828       0.49666846 </v>
   <v>       0.71430558       0.28527385       0.49663838 </v>
   <v>       0.71418024       0.42756721       0.49503315 </v>
   <v>       0.71881829       0.57335651       0.48681978 </v>
   <v>       0.71870843       0.71541183       0.48698483 </v>
   <v>       0.71230257       0.85576491       0.49518854 </v>
   <v>       0.85638472       0.99926808       0.49753271 </v>
   <v>       0.85630692       0.14206677       0.49693689 </v>
   <v>       0.85682000       0.28517430       0.49636362 </v>
   <v>       0.85749372       0.42829521       0.49599675 </v>
   <v>       0.85838420       0.57179601       0.49558186 </v>
   <v>       0.85967310       0.71516575       0.49507412 </v>
   <v>       0.85754996       0.85691070       0.49697448 </v>
   <v>       0.04724290       0.09508990       0.50179256 </v>
   <v>       0.04659573       0.23751448       0.50016690 </v>
   <v>       0.04712234       0.38084553       0.49875174 </v>
   <v>       0.04797524       0.52381456       0.49869389 </v>
   <v>       0.04837485       0.66683884       0.49977733 </v>
   <v>       0.04826136       0.80983239       0.50103897 </v>
   <v>       0.04785118       0.95259729       0.50224218 </v>
   <v>       0.19028419       0.09527270       0.50445370 </v>
   <v>       0.18968663       0.23810723       0.50426717 </v>
   <v>       0.18892871       0.38061766       0.50310928 </v>
   <v>       0.19105262       0.52455146       0.50121805 </v>
   <v>       0.19094628       0.66691557       0.50103890 </v>
   <v>       0.19072234       0.80981743       0.50183499 </v>
   <v>       0.19075850       0.95264043       0.50327492 </v>
   <v>       0.33332427       0.09540286       0.50389482 </v>
   <v>       0.33381451       0.23805940       0.50637558 </v>
   <v>       0.32969562       0.37979039       0.51000946 </v>
   <v>       0.33061331       0.52305356       0.50772036 </v>
   <v>       0.33700714       0.67048381       0.50236261 </v>
   <v>       0.33298206       0.80988477       0.50136340 </v>
   <v>       0.33323491       0.95255838       0.50204198 </v>
   <v>       0.47611535       0.09483546       0.50065616 </v>
   <v>       0.47549574       0.23760586       0.50290545 </v>
   <v>       0.47229197       0.80598382       0.50025984 </v>
   <v>       0.47586588       0.95203856       0.49970364 </v>
   <v>       0.61857584       0.09449696       0.49762126 </v>
   <v>       0.61918826       0.23759525       0.49821710 </v>
   <v>       0.62124183       0.37923156       0.49808845 </v>
   <v>       0.61893129       0.81087964       0.49708009 </v>
   <v>       0.61762438       0.95089958       0.49746061 </v>
   <v>       0.76114589       0.09433331       0.49650993 </v>
   <v>       0.76177828       0.23738019       0.49638706 </v>
   <v>       0.76223966       0.38046493       0.49569745 </v>
   <v>       0.76277862       0.52483456       0.49230503 </v>
   <v>       0.76468978       0.66736056       0.48912380 </v>
   <v>       0.76175624       0.80781977       0.49299327 </v>
   <v>       0.76084050       0.95126728       0.49628889 </v>
   <v>       0.90387858       0.09427744       0.49805008 </v>
   <v>       0.90412383       0.23743485       0.49700280 </v>
   <v>       0.90465370       0.38071968       0.49653274 </v>
   <v>       0.90541516       0.52389588       0.49688633 </v>
   <v>       0.90624970       0.66695757       0.49675600 </v>
   <v>       0.90579498       0.80994967       0.49770206 </v>
   <v>       0.90454904       0.95190400       0.49898302 </v>
   <v>       0.46297970       0.35481039       0.50611017 </v>
   <v>       0.40199393       0.41811190       0.51548867 </v>
   <v>       0.40300027       0.55980418       0.51245393 </v>
   <v>       0.64651962       0.67707324       0.48078606 </v>
   <v>       0.64643728       0.53978105       0.48348227 </v>
   <v>       0.58546488       0.41596483       0.49993384 </v>
   <v>       0.58010646       0.73825037       0.49800185 </v>
   <v>       0.51353247       0.56496027       0.48372369 </v>
   <v>       0.54259711       0.57761897       0.58241645 </v>
   <v>       0.42710903       0.71539935       0.50161536 </v>
   <v>       0.52715081       0.53654233       0.53249460 </v>
  </varray>
  <varray name="selective"  type="logical" >
   <v type="logical" >  T  T  T </v>
   <v type="logical" >  T  T  T </v>
   <v type="logical" >  T  T  T </v>
   <v type="logical" >  T  T  T </v>
   <v type="logical" >  T  T  T </v>
   <v type="logical" >  T  T  T </v>
   <v type="logical" >  T  T  T </v>
   <v type="logical" >  T  T  T </v>
   <v type="logical" >  T  T  T </v>
   <v type="logical" >  T  T  T </v>
   <v type="logical" >  T  T  T </v>
   <v type="logical" >  T  T  T </v>
   <v type="logical" >  T  T  T </v>
   <v type="logical" >  T  T  T </v>
   <v type="logical" >  T  T  T </v>
   <v type="logical" >  T  T  T </v>
   <v type="logical" >  T  T  T </v>
   <v type="logical" >  T  T  T </v>
   <v type="logical" >  T  T  T </v>
   <v type="logical" >  T  T  T </v>
   <v type="logical" >  T  T  T </v>
   <v type="logical" >  T  T  T </v>
   <v type="logical" >  T  T  T </v>
   <v type="logical" >  T  T  T </v>
   <v type="logical" >  T  T  T </v>
   <v type="logical" >  T  T  T </v>
   <v type="logical" >  T  T  T </v>
   <v type="logical" >  T  T  T </v>
   <v type="logical" >  T  T  T </v>
   <v type="logical" >  T  T  T </v>
   <v type="logical" >  T  T  T </v>
   <v type="logical" >  T  T  T </v>
   <v type="logical" >  T  T  T </v>
   <v type="logical" >  T  T  T </v>
   <v type="logical" >  T  T  T </v>
   <v type="logical" >  T  T  T </v>
   <v type="logical" >  T  T  T </v>
   <v type="logical" >  T  T  T </v>
   <v type="logical" >  T  T  T </v>
   <v type="logical" >  T  T  T </v>
   <v type="logical" >  T  T  T </v>
   <v type="logical" >  T  T  T </v>
   <v type="logical" >  T  T  T </v>
   <v type="logical" >  T  T  T </v>
   <v type="logical" >  T  T  T </v>
   <v type="logical" >  T  T  T </v>
   <v type="logical" >  T  T  T </v>
   <v type="logical" >  T  T  T </v>
   <v type="logical" >  T  T  T </v>
   <v type="logical" >  T  T  T </v>
   <v type="logical" >  T  T  T </v>
   <v type="logical" >  T  T  T </v>
   <v type="logical" >  T  T  T </v>
   <v type="logical" >  T  T  T </v>
   <v type="logical" >  T  T  T </v>
   <v type="logical" >  T  T  T </v>
   <v type="logical" >  T  T  T </v>
   <v type="logical" >  T  T  T </v>
   <v type="logical" >  T  T  T </v>
   <v type="logical" >  T  T  T </v>
   <v type="logical" >  T  T  T </v>
   <v type="logical" >  T  T  T </v>
   <v type="logical" >  T  T  T </v>
   <v type="logical" >  T  T  T </v>
   <v type="logical" >  T  T  T </v>
   <v type="logical" >  T  T  T </v>
   <v type="logical" >  T  T  T </v>
   <v type="logical" >  T  T  T </v>
   <v type="logical" >  T  T  T </v>
   <v type="logical" >  T  T  T </v>
   <v type="logical" >  T  T  T </v>
   <v type="logical" >  T  T  T </v>
   <v type="logical" >  T  T  T </v>
   <v type="logical" >  T  T  T </v>
   <v type="logical" >  T  T  T </v>
   <v type="logical" >  T  T  T </v>
   <v type="logical" >  T  T  T </v>
   <v type="logical" >  T  T  T </v>
   <v type="logical" >  T  T  T </v>
   <v type="logical" >  T  T  T </v>
   <v type="logical" >  T  T  T </v>
   <v type="logical" >  T  T  T </v>
   <v type="logical" >  T  T  T </v>
   <v type="logical" >  T  T  T </v>
   <v type="logical" >  T  T  T </v>
   <v type="logical" >  T  T  T </v>
   <v type="logical" >  T  T  T </v>
   <v type="logical" >  T  T  T </v>
   <v type="logical" >  T  T  T </v>
   <v type="logical" >  T  T  T </v>
   <v type="logical" >  T  T  T </v>
   <v type="logical" >  T  T  T </v>
   <v type="logical" >  T  T  T </v>
   <v type="logical" >  T  T  T </v>
   <v type="logical" >  T  T  T </v>
   <v type="logical" >  T  T  T </v>
   <v type="logical" >  T  T  T </v>
   <v type="logical" >  T  T  T </v>
  </varray>
  <nose>
   <v>      -3.00000000       0.00000000       0.00010000       0.00010000 </v>
  </nose>
 </structure>
 <calculation>
  <scstep>
   <time name="dav">   42.10   43.01</time>
   <time name="total">   44.97   46.09</time>
   <energy>
    <i name="alphaZ">    176.01131809 </i>
    <i name="ewald">  36651.78827973 </i>
    <i name="hartreedc"> -46741.39999054 </i>
    <i name="XCdc">   1220.80824776 </i>
    <i name="pawpsdc">  10007.03170968 </i>
    <i name="pawaedc"> -10059.36457306 </i>
    <i name="eentropy">     -0.03612410 </i>
    <i name="bandstr">  -1612.68915437 </i>
    <i name="atom">  13611.23051297 </i>
    <i name="e_fr_energy">   3253.38022614 </i>
    <i name="e_wo_entrp">   3253.41635024 </i>
    <i name="e_0_energy">   3253.39828819 </i>
   </energy>
  </scstep>
  <scstep>
   <time name="dav">   54.85   56.15</time>
   <time name="total">   54.85   56.17</time>
   <energy>
    <i name="e_fr_energy">   -260.60370189 </i>
    <i name="e_wo_entrp">   -260.60110130 </i>
    <i name="e_0_energy">   -260.60240159 </i>
   </energy>
  </scstep>
  <scstep>
   <time name="dav">   46.92   48.41</time>
   <time name="total">   46.92   48.43</time>
   <energy>
    <i name="e_fr_energy">   -870.17859355 </i>
    <i name="e_wo_entrp">   -870.17858498 </i>
    <i name="e_0_energy">   -870.17858927 </i>
   </energy>
  </scstep>
  <scstep>
   <time name="dav">   48.84   49.92</time>
   <time name="total">   48.84   49.96</time>
   <energy>
    <i name="e_fr_energy">   -892.17095165 </i>
    <i name="e_wo_entrp">   -892.17093630 </i>
    <i name="e_0_energy">   -892.17094398 </i>
   </energy>
  </scstep>
  <scstep>
   <time name="dav">   52.41   53.73</time>
   <time name="total">   55.57   56.99</time>
   <energy>
    <i name="e_fr_energy">   -892.78635495 </i>
    <i name="e_wo_entrp">   -892.78633860 </i>
    <i name="e_0_energy">   -892.78634677 </i>
   </energy>
  </scstep>
  <scstep>
   <time name="dav">   45.70   46.69</time>
   <time name="total">   51.92   53.06</time>
   <energy>
    <i name="e_fr_energy">   -874.96421597 </i>
    <i name="e_wo_entrp">   -874.96172811 </i>
    <i name="e_0_energy">   -874.96297204 </i>
   </energy>
  </scstep>
  <scstep>
   <time name="dav">   45.29   46.22</time>
   <time name="total">   51.34   52.45</time>
   <energy>
    <i name="e_fr_energy">   -852.08933057 </i>
    <i name="e_wo_entrp">   -852.08931434 </i>
    <i name="e_0_energy">   -852.08932246 </i>
   </energy>
  </scstep>
  <scstep>
   <time name="dav">   46.06   46.99</time>
   <time name="total">   52.43   53.60</time>
   <energy>
    <i name="e_fr_energy">   -847.19832814 </i>
    <i name="e_wo_entrp">   -847.19832796 </i>
    <i name="e_0_energy">   -847.19832805 </i>
   </energy>
  </scstep>
  <scstep>
   <time name="dav">   45.96   46.97</time>
   <time name="total">   52.08   53.33</time>
   <energy>
    <i name="e_fr_energy">   -847.04734355 </i>
    <i name="e_wo_entrp">   -847.04734341 </i>
    <i name="e_0_energy">   -847.04734348 </i>
   </energy>
  </scstep>
  <scstep>
   <time name="dav">   43.95   45.09</time>
   <time name="total">   50.08   51.39</time>
   <energy>
    <i name="e_fr_energy">   -846.97210593 </i>
    <i name="e_wo_entrp">   -846.97210583 </i>
    <i name="e_0_energy">   -846.97210588 </i>
   </energy>
  </scstep>
  <scstep>
   <time name="dav">   43.91   44.97</time>
   <time name="total">   49.96   51.32</time>
   <energy>
    <i name="e_fr_energy">   -846.95957640 </i>
    <i name="e_wo_entrp">   -846.95957630 </i>
    <i name="e_0_energy">   -846.95957635 </i>
   </energy>
  </scstep>
  <scstep>
   <time name="dav">   45.96   47.00</time>
   <time name="total">   52.14   53.37</time>
   <energy>
    <i name="e_fr_energy">   -846.95823375 </i>
    <i name="e_wo_entrp">   -846.95823366 </i>
    <i name="e_0_energy">   -846.95823371 </i>
   </energy>
  </scstep>
  <scstep>
   <time name="dav">   45.75   46.69</time>
   <time name="total">   51.85   52.97</time>
   <energy>
    <i name="e_fr_energy">   -846.95792896 </i>
    <i name="e_wo_entrp">   -846.95792886 </i>
    <i name="e_0_energy">   -846.95792891 </i>
   </energy>
  </scstep>
  <scstep>
   <time name="dav">   44.32   45.33</time>
   <time name="total">   50.50   51.66</time>
   <energy>
    <i name="e_fr_energy">   -846.95804715 </i>
    <i name="e_wo_entrp">   -846.95804705 </i>
    <i name="e_0_energy">   -846.95804710 </i>
   </energy>
  </scstep>
  <scstep>
   <time name="dav">   44.82   45.87</time>
   <time name="total">   51.05   52.28</time>
   <energy>
    <i name="e_fr_energy">   -846.95808890 </i>
    <i name="e_wo_entrp">   -846.95808880 </i>
    <i name="e_0_energy">   -846.95808885 </i>
   </energy>
  </scstep>
  <scstep>
   <time name="dav">   43.05   43.95</time>
   <time name="total">   49.31   50.38</time>
   <energy>
    <i name="e_fr_energy">   -846.95809745 </i>
    <i name="e_wo_entrp">   -846.95809735 </i>
    <i name="e_0_energy">   -846.95809740 </i>
   </energy>
  </scstep>
  <scstep>
   <time name="dav">   45.02   45.77</time>
   <time name="total">   47.99   48.83</time>
   <energy>
    <i name="alphaZ">    176.01131809 </i>
    <i name="ewald">  36651.78827973 </i>
    <i name="hartreedc"> -48282.98651344 </i>
    <i name="XCdc">   1271.34730733 </i>
    <i name="pawpsdc">  37397.33493947 </i>
    <i name="pawaedc"> -37460.57400795 </i>
    <i name="eentropy">     -0.00000010 </i>
    <i name="bandstr">  -4211.10993321 </i>
    <i name="atom">  13611.23051297 </i>
    <i name="e_fr_energy">   -846.95809712 </i>
    <i name="e_wo_entrp">   -846.95809702 </i>
    <i name="e_0_energy">   -846.95809707 </i>
   </energy>
  </scstep>
  <structure>
   <crystal>
    <varray name="basis" >
     <v>      17.27103806       0.00000000       0.00000000 </v>
     <v>      -8.63551903      14.95715771       0.00000000 </v>
     <v>       0.00000000       0.00000000      15.00000000 </v>
    </varray>
    <i name="volume">   3874.88459904 </i>
    <varray name="rec_basis" >
     <v>       0.05790040       0.03342881       0.00000000 </v>
     <v>       0.00000000       0.06685762       0.00000000 </v>
     <v>       0.00000000       0.00000000       0.06666667 </v>
    </varray>
   </crystal>
   <varray name="positions" >
    <v>       0.99974408       0.99981381       0.50138279 </v>
    <v>       0.99926132       0.14237707       0.49998150 </v>
    <v>       0.99945304       0.28544067       0.49842544 </v>
    <v>       0.99992628       0.42847327       0.49770114 </v>
    <v>       0.00051663       0.57148538       0.49848619 </v>
    <v>       0.00132587       0.71468549       0.49945039 </v>
    <v>       0.00094436       0.85769781       0.50069158 </v>
    <v>       0.14307260       0.00041482       0.50361369 </v>
    <v>       0.14241414       0.14296078       0.50359588 </v>
    <v>       0.14193645       0.28549077       0.50253423 </v>
    <v>       0.14260749       0.42903171       0.50086963 </v>
    <v>       0.14318943       0.57154327       0.50013950 </v>
    <v>       0.14353422       0.71439334       0.50097197 </v>
    <v>       0.14332670       0.85749770       0.50225680 </v>
    <v>       0.28574116       0.00007685       0.50319134 </v>
    <v>       0.28553723       0.14279533       0.50507187 </v>
    <v>       0.28538570       0.28701748       0.50715140 </v>
    <v>       0.28434069       0.42852419       0.50715538 </v>
    <v>       0.28727135       0.57220299       0.50362643 </v>
    <v>       0.28624221       0.71509190       0.50162427 </v>
    <v>       0.28556173       0.85763472       0.50180010 </v>
    <v>       0.42858381       0.99982905       0.50082225 </v>
    <v>       0.42842676       0.14249069       0.50262182 </v>
    <v>       0.42681557       0.28227980       0.50542380 </v>
    <v>       0.42769791       0.85663869       0.50047865 </v>
    <v>       0.57080104       0.99933083       0.49816724 </v>
    <v>       0.57126301       0.14220911       0.49878684 </v>
    <v>       0.57234161       0.28587970       0.49982943 </v>
    <v>       0.56991360       0.85520650       0.49833272 </v>
    <v>       0.71303006       0.99860526       0.49667668 </v>
    <v>       0.71399010       0.14218828       0.49666846 </v>
    <v>       0.71430558       0.28527385       0.49663838 </v>
    <v>       0.71418024       0.42756721       0.49503315 </v>
    <v>       0.71881829       0.57335651       0.48681978 </v>
    <v>       0.71870843       0.71541183       0.48698483 </v>
    <v>       0.71230257       0.85576491       0.49518854 </v>
    <v>       0.85638472       0.99926808       0.49753271 </v>
    <v>       0.85630692       0.14206677       0.49693689 </v>
    <v>       0.85682000       0.28517430       0.49636362 </v>
    <v>       0.85749372       0.42829521       0.49599675 </v>
    <v>       0.85838420       0.57179601       0.49558186 </v>
    <v>       0.85967310       0.71516575       0.49507412 </v>
    <v>       0.85754996       0.85691070       0.49697448 </v>
    <v>       0.04724290       0.09508990       0.50179256 </v>
    <v>       0.04659573       0.23751448       0.50016690 </v>
    <v>       0.04712234       0.38084553       0.49875174 </v>
    <v>       0.04797524       0.52381456       0.49869389 </v>
    <v>       0.04837485       0.66683884       0.49977733 </v>
    <v>       0.04826136       0.80983239       0.50103897 </v>
    <v>       0.04785118       0.95259729       0.50224218 </v>
    <v>       0.19028419       0.09527270       0.50445370 </v>
    <v>       0.18968663       0.23810723       0.50426717 </v>
    <v>       0.18892871       0.38061766       0.50310928 </v>
    <v>       0.19105262       0.52455146       0.50121805 </v>
    <v>       0.19094628       0.66691557       0.50103890 </v>
    <v>       0.19072234       0.80981743       0.50183499 </v>
    <v>       0.19075850       0.95264043       0.50327492 </v>
    <v>       0.33332427       0.09540286       0.50389482 </v>
    <v>       0.33381451       0.23805940       0.50637558 </v>
    <v>       0.32969562       0.37979039       0.51000946 </v>
    <v>       0.33061331       0.52305356       0.50772036 </v>
    <v>       0.33700714       0.67048381       0.50236261 </v>
    <v>       0.33298206       0.80988477       0.50136340 </v>
    <v>       0.33323491       0.95255838       0.50204198 </v>
    <v>       0.47611535       0.09483546       0.50065616 </v>
    <v>       0.47549574       0.23760586       0.50290545 </v>
    <v>       0.47229197       0.80598382       0.50025984 </v>
    <v>       0.47586588       0.95203856       0.49970364 </v>
    <v>       0.61857584       0.09449696       0.49762126 </v>
    <v>       0.61918826       0.23759525       0.49821710 </v>
    <v>       0.62124183       0.37923156       0.49808845 </v>
    <v>       0.61893129       0.81087964       0.49708009 </v>
    <v>       0.61762438       0.95089958       0.49746061 </v>
    <v>       0.76114589       0.09433331       0.49650993 </v>
    <v>       0.76177828       0.23738019       0.49638706 </v>
    <v>       0.76223966       0.38046493       0.49569745 </v>
    <v>       0.76277862       0.52483456       0.49230503 </v>
    <v>       0.76468978       0.66736056       0.48912380 </v>
    <v>       0.76175624       0.80781977       0.49299327 </v>
    <v>       0.76084050       0.95126728       0.49628889 </v>
    <v>       0.90387858       0.09427744       0.49805008 </v>
    <v>       0.90412383       0.23743485       0.49700280 </v>
    <v>       0.90465370       0.38071968       0.49653274 </v>
    <v>       0.90541516       0.52389588       0.49688633 </v>
    <v>       0.90624970       0.66695757       0.49675600 </v>
    <v>       0.90579498       0.80994967       0.49770206 </v>
    <v>       0.90454904       0.95190400       0.49898302 </v>
    <v>       0.46297970       0.35481039       0.50611017 </v>
    <v>       0.40199393       0.41811190       0.51548867 </v>
    <v>       0.40300027       0.55980418       0.51245393 </v>
    <v>       0.64651962       0.67707324       0.48078606 </v>
    <v>       0.64643728       0.53978105       0.48348227 </v>
    <v>       0.58546488       0.41596483       0.49993384 </v>
    <v>       0.58010646       0.73825037       0.49800185 </v>
    <v>       0.51353247       0.56496027       0.48372369 </v>
    <v>       0.54259711       0.57761897       0.58241645 </v>
    <v>       0.42710903       0.71539935       0.50161536 </v>
    <v>       0.52715081       0.53654233       0.53249460 </v>
   </varray>
  </structure>
  <varray name="forces" >
   <v>       0.00071274       0.00063354      -0.00139229 </v>
   <v>       0.00100119       0.00136844      -0.00069290 </v>
   <v>       0.00098121       0.00097003       0.00004191 </v>
   <v>       0.00074265       0.00049722      -0.00003245 </v>
   <v>       0.00092613       0.00056580      -0.00145088 </v>
   <v>       0.00199261       0.00015297      -0.00301151 </v>
   <v>       0.00019309      -0.00038319      -0.00237879 </v>
   <v>      -0.00138129       0.00076891       0.00071669 </v>
   <v>       0.00009635       0.00094460       0.00085265 </v>
   <v>       0.00035596       0.00027903       0.00013015 </v>
   <v>       0.00149623       0.00023843      -0.00078700 </v>
   <v>      -0.00014044       0.00028299      -0.00011875 </v>
   <v>      -0.00097185      -0.00304099      -0.00059861 </v>
   <v>      -0.00072929      -0.00242536       0.00044755 </v>
   <v>      -0.00174852      -0.00065036       0.00234618 </v>
   <v>      -0.00149291       0.00027174       0.00199106 </v>
   <v>      -0.00434561      -0.00254249       0.00185214 </v>
   <v>      -0.00190122      -0.00328729       0.00150930 </v>
   <v>      -0.00138784      -0.00055043       0.00076199 </v>
   <v>      -0.00073492      -0.00149954       0.00065273 </v>
   <v>      -0.00083021      -0.00279974       0.00176683 </v>
   <v>       0.00075395      -0.00010465       0.00310077 </v>
   <v>      -0.00037743       0.00043076       0.00339848 </v>
   <v>      -0.00022213      -0.00054845       0.00198892 </v>
   <v>      -0.00012594      -0.00064155       0.00154882 </v>
   <v>      -0.00301695       0.00000595       0.00256392 </v>
   <v>       0.00035777       0.00032577       0.00481186 </v>
   <v>      -0.00005414       0.00116882       0.00344925 </v>
   <v>       0.00012933      -0.00002490      -0.00132185 </v>
   <v>      -0.00399175      -0.00019231      -0.00168341 </v>
   <v>      -0.00191823       0.00074315       0.00136874 </v>
   <v>      -0.00066324      -0.00049917       0.00214679 </v>
   <v>      -0.00357335      -0.00125605      -0.00194139 </v>
   <v>      -0.00102902      -0.00019786      -0.01219560 </v>
   <v>      -0.00047300      -0.00086040      -0.01276725 </v>
   <v>      -0.00021585      -0.00333749      -0.00645875 </v>
   <v>      -0.00233077       0.00029720      -0.00365156 </v>
   <v>      -0.00120318       0.00098727      -0.00056814 </v>
   <v>      -0.00011610       0.00049586       0.00050849 </v>
   <v>       0.00038916      -0.00016518      -0.00077643 </v>
   <v>       0.00020217       0.00116733      -0.00529507 </v>
   <v>       0.00040872      -0.00005714      -0.00856541 </v>
   <v>      -0.00020149      -0.00115996      -0.00492411 </v>
   <v>      -0.00029363      -0.00107496      -0.00043332 </v>
   <v>      -0.00021377      -0.00095759      -0.00014631 </v>
   <v>      -0.00009713      -0.00055540       0.00021397 </v>
   <v>      -0.00011927      -0.00053425      -0.00045483 </v>
   <v>       0.00000292       0.00017125      -0.00148243 </v>
   <v>       0.00003949       0.00111195      -0.00146101 </v>
   <v>      -0.00007030      -0.00007878      -0.00078380 </v>
   <v>       0.00086345      -0.00060888       0.00125071 </v>
   <v>       0.00189102       0.00061125       0.00076431 </v>
   <v>       0.00145878       0.00120750       0.00036246 </v>
   <v>       0.00123502      -0.00004870       0.00032271 </v>
   <v>       0.00132028       0.00062951       0.00033681 </v>
   <v>       0.00136071       0.00765342      -0.00025235 </v>
   <v>       0.00427879       0.00018650       0.00158375 </v>
   <v>       0.00133170      -0.00080082       0.00234708 </v>
   <v>       0.00193065      -0.00011476       0.00190786 </v>
   <v>       0.00302318       0.00197375       0.00229875 </v>
   <v>       0.00108980       0.00112209       0.00191482 </v>
   <v>       0.00111356       0.00131142       0.00150182 </v>
   <v>       0.00041794       0.00133759       0.00145711 </v>
   <v>       0.00001121       0.00056831       0.00248541 </v>
   <v>       0.00003506      -0.00043504       0.00423555 </v>
   <v>       0.00017975      -0.00068843       0.00367742 </v>
   <v>       0.00035613       0.00018762       0.00027697 </v>
   <v>       0.00032789      -0.00000929       0.00159554 </v>
   <v>       0.00131267       0.00026647       0.00358337 </v>
   <v>       0.00111042       0.00023333       0.00412394 </v>
   <v>       0.00278545       0.00019298       0.00009797 </v>
   <v>       0.00058679       0.00140112      -0.00433946 </v>
   <v>       0.00268695      -0.00016018       0.00023112 </v>
   <v>       0.00537045      -0.00068410      -0.00028167 </v>
   <v>       0.00146985       0.00036022       0.00114762 </v>
   <v>       0.00156459       0.00020774      -0.00065101 </v>
   <v>       0.00175839       0.00047868      -0.00679131 </v>
   <v>       0.00118033       0.00049759      -0.01220364 </v>
   <v>       0.00015412       0.00131081      -0.00819223 </v>
   <v>       0.00233542       0.00149207      -0.00344582 </v>
   <v>       0.00052419      -0.00113887      -0.00152578 </v>
   <v>       0.00003316      -0.00287877      -0.00100669 </v>
   <v>      -0.00020048      -0.00015099       0.00020160 </v>
   <v>      -0.00048111      -0.00062211      -0.00226251 </v>
   <v>      -0.00256671      -0.00233093      -0.00694250 </v>
   <v>      -0.00065948       0.00049968      -0.00532071 </v>
   <v>       0.00041200      -0.00012055      -0.00320745 </v>
   <v>       0.00025841      -0.00002008       0.00381959 </v>
   <v>      -0.00081061      -0.00080007       0.00285160 </v>
   <v>      -0.00100698       0.00034667       0.00326238 </v>
   <v>       0.00049074      -0.00060111      -0.01388852 </v>
   <v>       0.00024133       0.00052241      -0.01343681 </v>
   <v>      -0.00040889       0.00083273       0.00001651 </v>
   <v>       0.00068592      -0.00020321      -0.00506677 </v>
   <v>      -0.01690818       0.00602910       0.02987347 </v>
   <v>      -0.00039817      -0.00463077       0.03003931 </v>
   <v>       0.00019598      -0.00080416       0.00003852 </v>
   <v>       0.00124757       0.00193772       0.01841387 </v>
  </varray>
  <varray name="stress" >
   <v>       4.52636985      -0.34223790      -0.00204450 </v>
   <v>      -0.34223791      -0.02004710      -0.01445692 </v>
   <v>      -0.00204389      -0.01445676      -0.28032307 </v>
  </varray>
  <energy>
   <i name="e_fr_energy">   -854.78444581 </i>
   <i name="e_wo_entrp">   -854.78444571 </i>
   <i name="e_0_energy">   -854.78444576 </i>
  </energy>
  <time name="totalsc">  945.98  968.77</time>
 </calculation>
 <calculation>
  <scstep>
   <time name="dav">   41.14   42.73</time>
   <time name="total">   46.71   48.49</time>
   <energy>
    <i name="alphaZ">    176.01131809 </i>
    <i name="ewald">  36651.77762544 </i>
    <i name="hartreedc"> -48282.96398440 </i>
    <i name="XCdc">   1271.34732293 </i>
    <i name="pawpsdc">  37397.06139242 </i>
    <i name="pawaedc"> -37460.30030535 </i>
    <i name="eentropy">     -0.00000010 </i>
    <i name="bandstr">  -4211.12199486 </i>
    <i name="atom">  13611.23051297 </i>
    <i name="e_fr_energy">   -846.95811286 </i>
    <i name="e_wo_entrp">   -846.95811277 </i>
    <i name="e_0_energy">   -846.95811281 </i>
   </energy>
  </scstep>
  <scstep>
   <time name="dav">   40.12   41.03</time>
   <time name="total">   42.98   44.06</time>
   <energy>
    <i name="alphaZ">    176.01131809 </i>
    <i name="ewald">  36651.77762544 </i>
    <i name="hartreedc"> -48282.95651947 </i>
    <i name="XCdc">   1271.34723402 </i>
    <i name="pawpsdc">  37397.01238001 </i>
    <i name="pawaedc"> -37460.25129777 </i>
    <i name="eentropy">     -0.00000010 </i>
    <i name="bandstr">  -4211.12936615 </i>
    <i name="atom">  13611.23051297 </i>
    <i name="e_fr_energy">   -846.95811296 </i>
    <i name="e_wo_entrp">   -846.95811287 </i>
    <i name="e_0_energy">   -846.95811292 </i>
   </energy>
  </scstep>
  <structure>
   <crystal>
    <varray name="basis" >
     <v>      17.27103806       0.00000000       0.00000000 </v>
     <v>      -8.63551903      14.95715771       0.00000000 </v>
     <v>       0.00000000       0.00000000      15.00000000 </v>
    </varray>
    <i name="volume">   3874.88459904 </i>
    <varray name="rec_basis" >
     <v>       0.05790040       0.03342881       0.00000000 </v>
     <v>       0.00000000       0.06685762       0.00000000 </v>
     <v>       0.00000000       0.00000000       0.06666667 </v>
    </varray>
   </crystal>
   <varray name="positions" >
    <v>       0.99974473       0.99981427       0.50138206 </v>
    <v>       0.99926236       0.14237802       0.49998118 </v>
    <v>       0.99945392       0.28544134       0.49842549 </v>
    <v>       0.99992686       0.42847363       0.49770107 </v>
    <v>       0.00051736       0.57148579       0.49848529 </v>
    <v>       0.00132712       0.71468565       0.49944880 </v>
    <v>       0.00094439       0.85769762       0.50069046 </v>
    <v>       0.14307209       0.00041539       0.50361381 </v>
    <v>       0.14241453       0.14296145       0.50359634 </v>
    <v>       0.14193674       0.28549098       0.50253434 </v>
    <v>       0.14260842       0.42903190       0.50086903 </v>
    <v>       0.14318942       0.57154350       0.50013911 </v>
    <v>       0.14353265       0.71439135       0.50097107 </v>
    <v>       0.14332550       0.85749614       0.50225662 </v>
    <v>       0.28573995       0.00007646       0.50319233 </v>
    <v>       0.28553648       0.14279556       0.50507293 </v>
    <v>       0.28538233       0.28701581       0.50715259 </v>
    <v>       0.28433848       0.42852203       0.50715628 </v>
    <v>       0.28727030       0.57220265       0.50362675 </v>
    <v>       0.28624127       0.71509094       0.50162427 </v>
    <v>       0.28556033       0.85763290       0.50180063 </v>
    <v>       0.42858423       0.99982901       0.50082392 </v>
    <v>       0.42842670       0.14249101       0.50262388 </v>
    <v>       0.42681526       0.28227946       0.50542517 </v>
    <v>       0.42769763       0.85663828       0.50047946 </v>
    <v>       0.57079931       0.99933085       0.49816903 </v>
    <v>       0.57126334       0.14220934       0.49879010 </v>
    <v>       0.57234198       0.28588050       0.49983239 </v>
    <v>       0.56991368       0.85520649       0.49833252 </v>
    <v>       0.71302769       0.99860514       0.49667624 </v>
    <v>       0.71398924       0.14218879       0.49666952 </v>
    <v>       0.71430503       0.28527355       0.49664038 </v>
    <v>       0.71417778       0.42756641       0.49503411 </v>
    <v>       0.71881768       0.57335643       0.48681810 </v>
    <v>       0.71870786       0.71541126       0.48698271 </v>
    <v>       0.71230134       0.85576270       0.49518652 </v>
    <v>       0.85638348       0.99926830       0.49753123 </v>
    <v>       0.85630655       0.14206745       0.49693680 </v>
    <v>       0.85682009       0.28517465       0.49636411 </v>
    <v>       0.85749389       0.42829514       0.49599702 </v>
    <v>       0.85838474       0.57179684       0.49558023 </v>
    <v>       0.85967339       0.71516578       0.49507119 </v>
    <v>       0.85754949       0.85690996       0.49697312 </v>
    <v>       0.04724239       0.09508922       0.50179229 </v>
    <v>       0.04659528       0.23751387       0.50016685 </v>
    <v>       0.04712208       0.38084518       0.49875181 </v>
    <v>       0.04797498       0.52381423       0.49869341 </v>
    <v>       0.04837493       0.66683900       0.49977624 </v>
    <v>       0.04826180       0.80983320       0.50103806 </v>
    <v>       0.04785116       0.95259730       0.50224166 </v>
    <v>       0.19028452       0.09527235       0.50445425 </v>
    <v>       0.18968793       0.23810767       0.50426767 </v>
    <v>       0.18892994       0.38061850       0.50310953 </v>
    <v>       0.19105328       0.52455146       0.50121809 </v>
    <v>       0.19094725       0.66691603       0.50103864 </v>
    <v>       0.19072571       0.80982260       0.50183420 </v>
    <v>       0.19076107       0.95264061       0.50327544 </v>
    <v>       0.33332479       0.09540237       0.50389600 </v>
    <v>       0.33381560       0.23805937       0.50637675 </v>
    <v>       0.32969802       0.37979173       0.51001086 </v>
    <v>       0.33061424       0.52305434       0.50772134 </v>
    <v>       0.33700820       0.67048472       0.50236340 </v>
    <v>       0.33298276       0.80988570       0.50136389 </v>
    <v>       0.33323513       0.95255881       0.50204304 </v>
    <v>       0.47611524       0.09483520       0.50065878 </v>
    <v>       0.47549562       0.23760543       0.50290802 </v>
    <v>       0.47229224       0.80598396       0.50026015 </v>
    <v>       0.47586608       0.95203857       0.49970451 </v>
    <v>       0.61857670       0.09449715       0.49762372 </v>
    <v>       0.61918899       0.23759542       0.49822030 </v>
    <v>       0.62124352       0.37923170       0.49809010 </v>
    <v>       0.61893211       0.81088059       0.49707876 </v>
    <v>       0.61762589       0.95089948       0.49746127 </v>
    <v>       0.76114877       0.09433286       0.49651007 </v>
    <v>       0.76177925       0.23738045       0.49638803 </v>
    <v>       0.76224064       0.38046510       0.49569823 </v>
    <v>       0.76277984       0.52483493       0.49230413 </v>
    <v>       0.76469068       0.66736095       0.48912115 </v>
    <v>       0.76175679       0.80782068       0.49299141 </v>
    <v>       0.76084236       0.95126830       0.49628792 </v>
    <v>       0.90387850       0.09427670       0.49804949 </v>
    <v>       0.90412288       0.23743295       0.49700223 </v>
    <v>       0.90465352       0.38071960       0.49653310 </v>
    <v>       0.90541469       0.52389551       0.49688560 </v>
    <v>       0.90624748       0.66695606       0.49675307 </v>
    <v>       0.90579481       0.80995007       0.49770023 </v>
    <v>       0.90454927       0.95190397       0.49898177 </v>
    <v>       0.46297986       0.35481041       0.50611278 </v>
    <v>       0.40199322       0.41811136       0.51548964 </v>
    <v>       0.40299974       0.55980464       0.51245507 </v>
    <v>       0.64651966       0.67707266       0.48078563 </v>
    <v>       0.64643766       0.53978152       0.48348158 </v>
    <v>       0.58546491       0.41596537       0.49993536 </v>
    <v>       0.58010685       0.73825026       0.49800000 </v>
    <v>       0.51352549       0.56496138       0.48372861 </v>
    <v>       0.54258653       0.57761364       0.58242200 </v>
    <v>       0.42710885       0.71539882       0.50161547 </v>
    <v>       0.52715205       0.53654373       0.53249456 </v>
   </varray>
  </structure>
  <varray name="forces" >
   <v>      -0.00002672      -0.00021365      -0.00150094 </v>
   <v>       0.00014222      -0.00025913      -0.00079074 </v>
   <v>      -0.00000481      -0.00043103      -0.00009797 </v>
   <v>       0.00011963      -0.00018935      -0.00009388 </v>
   <v>      -0.00000077      -0.00042167      -0.00156644 </v>
   <v>      -0.00014788      -0.00017420      -0.00324120 </v>
   <v>      -0.00033909      -0.00009490      -0.00249277 </v>
   <v>       0.00030305      -0.00026326       0.00069916 </v>
   <v>       0.00008761      -0.00011953       0.00077004 </v>
   <v>       0.00017195       0.00012527       0.00010210 </v>
   <v>      -0.00068650      -0.00031049       0.00071009 </v>
   <v>       0.00026218      -0.00028555      -0.00015339 </v>
   <v>       0.00094860       0.00044675       0.00081796 </v>
   <v>       0.00013379       0.00022168       0.00036121 </v>
   <v>       0.00028287      -0.00030965       0.00233294 </v>
   <v>       0.00025305      -0.00042051       0.00196431 </v>
   <v>       0.00271076       0.00112305       0.00102470 </v>
   <v>       0.00092456       0.00188475       0.00024079 </v>
   <v>       0.00019424       0.00023803       0.00084457 </v>
   <v>       0.00056288      -0.00004063       0.00070090 </v>
   <v>       0.00033683       0.00030949       0.00166434 </v>
   <v>       0.00000615      -0.00027811       0.00312893 </v>
   <v>       0.00000811      -0.00040264       0.00348966 </v>
   <v>       0.00021863      -0.00019046       0.00217270 </v>
   <v>       0.00036725      -0.00047928       0.00148929 </v>
   <v>       0.00170393       0.00005048       0.00256820 </v>
   <v>       0.00027388       0.00001911       0.00489524 </v>
   <v>       0.00017483      -0.00001720       0.00352413 </v>
   <v>      -0.00007025      -0.00010656      -0.00136418 </v>
   <v>       0.00197706       0.00023480      -0.00044632 </v>
   <v>       0.00080419       0.00002076       0.00141243 </v>
   <v>       0.00049114       0.00000123       0.00214544 </v>
   <v>      -0.00020036      -0.00007454      -0.00207586 </v>
   <v>       0.00025235      -0.00012620      -0.01224868 </v>
   <v>       0.00004415      -0.00012672      -0.01281048 </v>
   <v>      -0.00055849       0.00238149      -0.00366829 </v>
   <v>      -0.00064826       0.00006301      -0.00365193 </v>
   <v>       0.00063253      -0.00041261      -0.00071102 </v>
   <v>       0.00048577      -0.00017835       0.00039622 </v>
   <v>       0.00010247      -0.00017599      -0.00085159 </v>
   <v>       0.00010843      -0.00018097      -0.00548108 </v>
   <v>       0.00017911       0.00007644      -0.00875524 </v>
   <v>      -0.00009869       0.00000594      -0.00511382 </v>
   <v>       0.00032651       0.00006787      -0.00048332 </v>
   <v>       0.00043162       0.00009027      -0.00019612 </v>
   <v>       0.00053147      -0.00002445       0.00009333 </v>
   <v>       0.00017311      -0.00001399      -0.00053717 </v>
   <v>       0.00031491      -0.00018507      -0.00162563 </v>
   <v>      -0.00009575      -0.00035400      -0.00161524 </v>
   <v>       0.00001475      -0.00019375      -0.00087451 </v>
   <v>      -0.00026450      -0.00011542       0.00124147 </v>
   <v>      -0.00023432      -0.00013638       0.00074393 </v>
   <v>       0.00016174      -0.00039346       0.00023060 </v>
   <v>      -0.00020266      -0.00039703       0.00016334 </v>
   <v>      -0.00025155      -0.00041900       0.00020819 </v>
   <v>      -0.00053568       0.00013525       0.00109744 </v>
   <v>       0.00067295      -0.00052307       0.00152197 </v>
   <v>      -0.00019334      -0.00029225       0.00241739 </v>
   <v>      -0.00022863      -0.00033218       0.00193598 </v>
   <v>      -0.00070741      -0.00054936       0.00056244 </v>
   <v>      -0.00029778      -0.00050408       0.00180325 </v>
   <v>      -0.00010097      -0.00096254      -0.00011158 </v>
   <v>      -0.00016993      -0.00046916       0.00142988 </v>
   <v>       0.00029986      -0.00128665       0.00107507 </v>
   <v>       0.00027491      -0.00011913       0.00430355 </v>
   <v>       0.00025332       0.00006692       0.00368560 </v>
   <v>       0.00025534      -0.00036003       0.00024392 </v>
   <v>      -0.00008826      -0.00014757       0.00175246 </v>
   <v>      -0.00000930      -0.00000411       0.00362219 </v>
   <v>       0.00015191      -0.00000121       0.00422474 </v>
   <v>      -0.00023856       0.00017581       0.00027761 </v>
   <v>       0.00033217      -0.00034212      -0.00451538 </v>
   <v>      -0.00048494       0.00014777       0.00018005 </v>
   <v>       0.00097648      -0.00023593      -0.00034334 </v>
   <v>       0.00011228       0.00011929       0.00121054 </v>
   <v>       0.00004995      -0.00027031      -0.00057350 </v>
   <v>      -0.00016336      -0.00008649      -0.00693904 </v>
   <v>       0.00007869      -0.00004542      -0.01240875 </v>
   <v>      -0.00032089      -0.00064709      -0.00845556 </v>
   <v>      -0.00025312      -0.00022044      -0.00369441 </v>
   <v>       0.00026258       0.00006696      -0.00163746 </v>
   <v>       0.00058420       0.00100955       0.00052517 </v>
   <v>       0.00034354      -0.00004655       0.00015982 </v>
   <v>       0.00025386       0.00001953      -0.00235269 </v>
   <v>       0.00192641       0.00158173      -0.00562516 </v>
   <v>       0.00002874      -0.00023107      -0.00548777 </v>
   <v>       0.00010285      -0.00031756      -0.00334371 </v>
   <v>       0.00018784      -0.00035913       0.00373858 </v>
   <v>       0.00031824      -0.00016987       0.00292169 </v>
   <v>      -0.00045615       0.00052666       0.00327212 </v>
   <v>       0.00022248      -0.00089711      -0.01397187 </v>
   <v>      -0.00018951       0.00022822      -0.01352295 </v>
   <v>       0.00036671       0.00027019      -0.00006493 </v>
   <v>       0.00061686       0.00010415      -0.00514969 </v>
   <v>      -0.01677200       0.00581774       0.03003165 </v>
   <v>      -0.00036457      -0.00492033       0.02967889 </v>
   <v>       0.00001618      -0.00003972       0.00002917 </v>
   <v>      -0.00050166       0.00526605       0.01880825 </v>
  </varray>
  <varray name="stress" >
   <v>       4.52616076      -0.34055636      -0.00189523 </v>
   <v>      -0.34055635      -0.02357002      -0.01513128 </v>
   <v>      -0.00189463      -0.01513110      -0.28004884 </v>
  </varray>
  <energy>
   <i name="e_fr_energy">   -854.78445980 </i>
   <i name="e_wo_entrp">   -854.78445971 </i>
   <i name="e_0_energy">   -854.78445976 </i>
  </energy>
  <time name="totalsc">  201.14  205.98</time>
 </calculation>
 <calculation>
  <scstep>
   <time name="dav">   41.43   42.32</time>
   <time name="total">   46.89   47.99</time>
   <energy>
    <i name="alphaZ">    176.01131809 </i>
    <i name="ewald">  36651.76166416 </i>
    <i name="hartreedc"> -48282.93115358 </i>
    <i name="XCdc">   1271.34704721 </i>
    <i name="pawpsdc">  37396.91887916 </i>
    <i name="pawaedc"> -37460.15778829 </i>
    <i name="eentropy">     -0.00000010 </i>
    <i name="bandstr">  -4211.13861941 </i>
    <i name="atom">  13611.23051297 </i>
    <i name="e_fr_energy">   -846.95813980 </i>
    <i name="e_wo_entrp">   -846.95813970 </i>
    <i name="e_0_energy">   -846.95813975 </i>
   </energy>
  </scstep>
  <scstep>
   <time name="dav">   41.82   42.73</time>
   <time name="total">   44.85   45.87</time>
   <energy>
    <i name="alphaZ">    176.01131809 </i>
    <i name="ewald">  36651.76166416 </i>
    <i name="hartreedc"> -48282.92834067 </i>
    <i name="XCdc">   1271.34703068 </i>
    <i name="pawpsdc">  37396.86068054 </i>
    <i name="pawaedc"> -37460.09958268 </i>
    <i name="eentropy">     -0.00000010 </i>
    <i name="bandstr">  -4211.14142300 </i>
    <i name="atom">  13611.23051297 </i>
    <i name="e_fr_energy">   -846.95814001 </i>
    <i name="e_wo_entrp">   -846.95813991 </i>
    <i name="e_0_energy">   -846.95813996 </i>
   </energy>
  </scstep>
  <structure>
   <crystal>
    <varray name="basis" >
[...]
       <r>   -14.1445    12.2521    56.2481 </r>
       <r>   -14.0381     9.3920    57.2477 </r>
       <r>   -13.9316     6.3642    57.9251 </r>
       <r>   -13.8252     6.4557    58.6122 </r>
       <r>   -13.7188     2.9809    58.9295 </r>
       <r>   -13.6123     5.9515    59.5629 </r>
       <r>   -13.5059     6.6532    60.2711 </r>
       <r>   -13.3995    10.5967    61.3989 </r>
       <r>   -13.2930     7.6994    62.2184 </r>
       <r>   -13.1866     8.9600    63.1721 </r>
       <r>   -13.0802     4.4036    63.6408 </r>
       <r>   -12.9737     7.3186    64.4197 </r>
       <r>   -12.8673     0.7956    64.5044 </r>
       <r>   -12.7609     6.1998    65.1643 </r>
       <r>   -12.6544     7.5306    65.9658 </r>
       <r>   -12.5480     7.1227    66.7239 </r>
       <r>   -12.4416    14.6284    68.2809 </r>
       <r>   -12.3351    15.2624    69.9054 </r>
       <r>   -12.2287    17.4408    71.7617 </r>
       <r>   -12.1222     7.3929    72.5486 </r>
       <r>   -12.0158     2.1261    72.7749 </r>
       <r>   -11.9094     3.7235    73.1712 </r>
       <r>   -11.8029    10.1326    74.2496 </r>
       <r>   -11.6965     6.9636    74.9908 </r>
       <r>   -11.5901     7.5462    75.7940 </r>
       <r>   -11.4836     8.2485    76.6719 </r>
       <r>   -11.3772    11.8907    77.9375 </r>
       <r>   -11.2708    11.8219    79.1958 </r>
       <r>   -11.1643    11.6055    80.4310 </r>
       <r>   -11.0579    10.9816    81.5999 </r>
       <r>   -10.9515     6.5514    82.2972 </r>
       <r>   -10.8450    11.7123    83.5438 </r>
       <r>   -10.7386    12.6157    84.8865 </r>
       <r>   -10.6321     8.0413    85.7424 </r>
       <r>   -10.5257     6.6635    86.4516 </r>
       <r>   -10.4193     5.0432    86.9884 </r>
       <r>   -10.3128     2.7106    87.2769 </r>
       <r>   -10.2064     5.5722    87.8700 </r>
       <r>   -10.1000    18.2758    89.8152 </r>
       <r>    -9.9935    17.1978    91.6457 </r>
       <r>    -9.8871    14.6037    93.2000 </r>
       <r>    -9.7807    19.2866    95.2528 </r>
       <r>    -9.6742    18.1051    97.1798 </r>
       <r>    -9.5678    14.8099    98.7561 </r>
       <r>    -9.4614    11.9947   100.0328 </r>
       <r>    -9.3549    19.6403   102.1232 </r>
       <r>    -9.2485    16.7649   103.9076 </r>
       <r>    -9.1420    15.2353   105.5292 </r>
       <r>    -9.0356    18.5683   107.5055 </r>
       <r>    -8.9292    24.9278   110.1587 </r>
       <r>    -8.8227    33.0037   113.6715 </r>
       <r>    -8.7163    24.6696   116.2972 </r>
       <r>    -8.6099    17.2346   118.1316 </r>
       <r>    -8.5034    19.1210   120.1667 </r>
       <r>    -8.3970    21.6326   122.4692 </r>
       <r>    -8.2906    14.2365   123.9845 </r>
       <r>    -8.1841    22.3128   126.3594 </r>
       <r>    -8.0777    24.2853   128.9442 </r>
       <r>    -7.9713    21.5192   131.2346 </r>
       <r>    -7.8648    12.9269   132.6105 </r>
       <r>    -7.7584    15.4692   134.2569 </r>
       <r>    -7.6519    20.4278   136.4312 </r>
       <r>    -7.5455    14.8623   138.0131 </r>
       <r>    -7.4391     8.8454   138.9545 </r>
       <r>    -7.3326     4.7992   139.4653 </r>
       <r>    -7.2262    22.2623   141.8348 </r>
       <r>    -7.1198    25.3495   144.5329 </r>
       <r>    -7.0133    18.4158   146.4930 </r>
       <r>    -6.9069    14.0183   147.9851 </r>
       <r>    -6.8005    10.8099   149.1356 </r>
       <r>    -6.6940    14.5609   150.6854 </r>
       <r>    -6.5876    12.0815   151.9713 </r>
       <r>    -6.4812     6.9956   152.7159 </r>
       <r>    -6.3747    11.1721   153.9050 </r>
       <r>    -6.2683    14.2616   155.4230 </r>
       <r>    -6.1619    13.9306   156.9057 </r>
       <r>    -6.0554    22.3132   159.2806 </r>
       <r>    -5.9490    14.3289   160.8057 </r>
       <r>    -5.8425    12.0972   162.0933 </r>
       <r>    -5.7361    13.3112   163.5101 </r>
       <r>    -5.6297    13.7630   164.9749 </r>
       <r>    -5.5232    14.7052   166.5401 </r>
       <r>    -5.4168     6.5587   167.2382 </r>
       <r>    -5.3104     4.4321   167.7099 </r>
       <r>    -5.2039     2.1435   167.9381 </r>
       <r>    -5.0975     2.9926   168.2566 </r>
       <r>    -4.9911    17.8954   170.1613 </r>
       <r>    -4.8846    19.1757   172.2023 </r>
       <r>    -4.7782    18.1725   174.1365 </r>
       <r>    -4.6718     9.5189   175.1496 </r>
       <r>    -4.5653     8.0656   176.0081 </r>
       <r>    -4.4589    11.2621   177.2068 </r>
       <r>    -4.3524     0.4248   177.2520 </r>
       <r>    -4.2460     3.9270   177.6699 </r>
       <r>    -4.1396     9.2987   178.6597 </r>
       <r>    -4.0331     7.2341   179.4296 </r>
       <r>    -3.9267     7.6508   180.2439 </r>
       <r>    -3.8203     7.8247   181.0768 </r>
       <r>    -3.7138     5.9131   181.7061 </r>
       <r>    -3.6074     2.7209   181.9957 </r>
       <r>    -3.5010     0.0403   182.0000 </r>
       <r>    -3.3945     0.3331   182.0355 </r>
       <r>    -3.2881     2.4914   182.3006 </r>
       <r>    -3.1817     6.4661   182.9889 </r>
       <r>    -3.0752     2.6354   183.2694 </r>
       <r>    -2.9688     2.0738   183.4901 </r>
       <r>    -2.8623     0.0931   183.5000 </r>
       <r>    -2.7559     0.0001   183.5000 </r>
       <r>    -2.6495     0.3333   183.5355 </r>
       <r>    -2.5430     3.4808   183.9060 </r>
       <r>    -2.4366     0.8828   183.9999 </r>
       <r>    -2.3302     0.0019   184.0001 </r>
       <r>    -2.2237     1.3244   184.1411 </r>
       <r>    -2.1173     3.3257   184.4950 </r>
       <r>    -2.0109     0.0465   184.5000 </r>
       <r>    -1.9044     0.0130   184.5014 </r>
       <r>    -1.7980     1.6029   184.6720 </r>
       <r>    -1.6916     2.4643   184.9343 </r>
       <r>    -1.5851     4.4957   185.4128 </r>
       <r>    -1.4787     5.3177   185.9788 </r>
       <r>    -1.3723     0.3131   186.0121 </r>
       <r>    -1.2658     3.4210   186.3762 </r>
       <r>    -1.1594     5.3911   186.9500 </r>
       <r>    -1.0529     5.0359   187.4860 </r>
       <r>    -0.9465     0.9781   187.5901 </r>
       <r>    -0.8401     8.4387   188.4883 </r>
       <r>    -0.7336    18.1009   190.4149 </r>
       <r>    -0.6272     6.1685   191.0714 </r>
       <r>    -0.5208     9.4277   192.0749 </r>
       <r>    -0.4143    10.5526   193.1980 </r>
       <r>    -0.3079     6.1298   193.8505 </r>
       <r>    -0.2015     3.8995   194.2655 </r>
       <r>    -0.0950     7.5768   195.0720 </r>
       <r>     0.0114    10.0116   196.1376 </r>
       <r>     0.1178    10.1393   197.2167 </r>
       <r>     0.2243    10.4343   198.3273 </r>
       <r>     0.3307    10.1088   199.4033 </r>
       <r>     0.4372     4.3909   199.8706 </r>
       <r>     0.5436     4.0110   200.2975 </r>
       <r>     0.6500    11.7942   201.5528 </r>
       <r>     0.7565     6.1821   202.2108 </r>
       <r>     0.8629     9.1979   203.1898 </r>
       <r>     0.9693     5.6462   203.7908 </r>
       <r>     1.0758    11.1642   204.9790 </r>
       <r>     1.1822     7.1138   205.7362 </r>
       <r>     1.2886     7.6741   206.5530 </r>
       <r>     1.3951    10.1107   207.6291 </r>
       <r>     1.5015     8.8783   208.5741 </r>
       <r>     1.6079    23.9703   211.1254 </r>
       <r>     1.7144    15.4260   212.7673 </r>
       <r>     1.8208     9.3520   213.7627 </r>
       <r>     1.9273     6.8965   214.4967 </r>
       <r>     2.0337    16.4428   216.2468 </r>
       <r>     2.1401    24.3626   218.8398 </r>
       <r>     2.2466    14.6520   220.3993 </r>
       <r>     2.3530    16.2477   222.1287 </r>
       <r>     2.4594    30.0386   225.3258 </r>
       <r>     2.5659     8.4641   226.2267 </r>
       <r>     2.6723     9.7955   227.2693 </r>
       <r>     2.7787    14.4665   228.8091 </r>
       <r>     2.8852    30.9368   232.1018 </r>
       <r>     2.9916    39.2485   236.2793 </r>
       <r>     3.0980    20.5359   238.4650 </r>
       <r>     3.2045    20.9769   240.6977 </r>
       <r>     3.3109    21.1686   242.9508 </r>
       <r>     3.4173    15.8335   244.6360 </r>
       <r>     3.5238    24.0617   247.1971 </r>
       <r>     3.6302    19.0327   249.2228 </r>
       <r>     3.7367    14.0014   250.7131 </r>
       <r>     3.8431    29.4686   253.8496 </r>
       <r>     3.9495    19.1959   255.8927 </r>
       <r>     4.0560    26.3346   258.6956 </r>
       <r>     4.1624    13.5200   260.1346 </r>
       <r>     4.2688    21.4844   262.4213 </r>
       <r>     4.3753    32.9541   265.9288 </r>
       <r>     4.4817    31.6653   269.2991 </r>
       <r>     4.5881     6.5093   269.9920 </r>
       <r>     4.6946     0.0755   270.0000 </r>
       <r>     4.8010     0.0000   270.0000 </r>
       <r>     4.9074     0.0000   270.0000 </r>
       <r>     5.0139     0.0000   270.0000 </r>
       <r>     5.1203     0.0000   270.0000 </r>
       <r>     5.2268     0.0000   270.0000 </r>
       <r>     5.3332     0.0000   270.0000 </r>
       <r>     5.4396     0.0000   270.0000 </r>
       <r>     5.5461     0.0000   270.0000 </r>
       <r>     5.6525     0.0000   270.0000 </r>
       <r>     5.7589     0.0000   270.0000 </r>
       <r>     5.8654     0.0000   270.0000 </r>
       <r>     5.9718     0.0000   270.0000 </r>
      </set>
     </set>
    </array>
   </total>
  </dos>
 </calculation>
 <structure name="finalpos" >
  <crystal>
   <varray name="basis" >
    <v>      17.27103806       0.00000000       0.00000000 </v>
    <v>      -8.63551903      14.95715771       0.00000000 </v>
    <v>       0.00000000       0.00000000      15.00000000 </v>
   </varray>
   <i name="volume">   3874.88459904 </i>
   <varray name="rec_basis" >
    <v>       0.05790040       0.03342881       0.00000000 </v>
    <v>       0.00000000       0.06685762       0.00000000 </v>
    <v>       0.00000000       0.00000000       0.06666667 </v>
   </varray>
  </crystal>
  <varray name="positions" >
   <v>       0.99978389       0.99981472       0.50110573 </v>
   <v>       0.99931210       0.14238876       0.49990695 </v>
   <v>       0.99948914       0.28543661       0.49840532 </v>
   <v>       0.99995174       0.42846090       0.49757283 </v>
   <v>       0.00051875       0.57146820       0.49815768 </v>
   <v>       0.00133148       0.71467295       0.49892445 </v>
   <v>       0.00096183       0.85769296       0.50021736 </v>
   <v>       0.14309577       0.00040682       0.50366905 </v>
   <v>       0.14246456       0.14296869       0.50374017 </v>
   <v>       0.14198537       0.28550390       0.50266616 </v>
   <v>       0.14264294       0.42903473       0.50091072 </v>
   <v>       0.14319074       0.57153689       0.49998986 </v>
   <v>       0.14352590       0.71437520       0.50080090 </v>
   <v>       0.14332978       0.85747772       0.50213399 </v>
   <v>       0.28574505       0.00006013       0.50354394 </v>
   <v>       0.28556723       0.14278455       0.50553043 </v>
   <v>       0.28544528       0.28703108       0.50749342 </v>
   <v>       0.28439553       0.42854002       0.50747227 </v>
   <v>       0.28726070       0.57221224       0.50376578 </v>
   <v>       0.28624218       0.71508387       0.50167658 </v>
   <v>       0.28557253       0.85762510       0.50201820 </v>
   <v>       0.42860205       0.99981492       0.50134136 </v>
   <v>       0.42844708       0.14246921       0.50316146 </v>
   <v>       0.42685030       0.28226016       0.50592815 </v>
   <v>       0.42771515       0.85662810       0.50079123 </v>
   <v>       0.57082880       0.99932813       0.49860486 </v>
   <v>       0.57129408       0.14220310       0.49933012 </v>
   <v>       0.57237676       0.28588397       0.50044315 </v>
   <v>       0.56993983       0.85519567       0.49837746 </v>
   <v>       0.71305893       0.99860962       0.49670835 </v>
   <v>       0.71400737       0.14218557       0.49695868 </v>
   <v>       0.71432581       0.28527856       0.49692738 </v>
   <v>       0.71419204       0.42758171       0.49518941 </v>
   <v>       0.71882599       0.57336908       0.48634883 </v>
   <v>       0.71869603       0.71541891       0.48627997 </v>
   <v>       0.71234619       0.85579406       0.49481639 </v>
   <v>       0.85644052       0.99929824       0.49730347 </v>
   <v>       0.85633772       0.14207282       0.49693163 </v>
   <v>       0.85684152       0.28517133       0.49639991 </v>
   <v>       0.85750808       0.42829348       0.49589709 </v>
   <v>       0.85838767       0.57180643       0.49518660 </v>
   <v>       0.85969399       0.71519143       0.49434458 </v>
   <v>       0.85756755       0.85692017       0.49643667 </v>
   <v>       0.04728686       0.09509236       0.50171745 </v>
   <v>       0.04664560       0.23752234       0.50017600 </v>
   <v>       0.04715284       0.38083542       0.49872241 </v>
   <v>       0.04798276       0.52380257       0.49846797 </v>
   <v>       0.04836433       0.66681538       0.49942395 </v>
   <v>       0.04827520       0.80981799       0.50060979 </v>
   <v>       0.04788351       0.95259243       0.50199737 </v>
   <v>       0.19032108       0.09526471       0.50471807 </v>
   <v>       0.18974113       0.23812640       0.50450756 </v>
   <v>       0.18898044       0.38063724       0.50328500 </v>
   <v>       0.19105401       0.52455141       0.50121653 </v>
   <v>       0.19094646       0.66691041       0.50094416 </v>
   <v>       0.19073267       0.80980693       0.50181066 </v>
   <v>       0.19076817       0.95262123       0.50339146 </v>
   <v>       0.33334443       0.09537999       0.50440132 </v>
   <v>       0.33385600       0.23805117       0.50682669 </v>
   <v>       0.32977019       0.37982075       0.51030403 </v>
   <v>       0.33057650       0.52305965       0.50805480 </v>
   <v>       0.33700514       0.67048371       0.50245942 </v>
   <v>       0.33299442       0.80987675       0.50157671 </v>
   <v>       0.33324960       0.95255417       0.50241517 </v>
   <v>       0.47614632       0.09482279       0.50123924 </v>
   <v>       0.47552812       0.23758384       0.50346820 </v>
   <v>       0.47231638       0.80597293       0.50043286 </v>
   <v>       0.47588565       0.95202554       0.50017911 </v>
   <v>       0.61860672       0.09449147       0.49811098 </v>
   <v>       0.61921755       0.23759396       0.49870093 </v>
   <v>       0.62126949       0.37924045       0.49861252 </v>
   <v>       0.61896912       0.81088905       0.49682229 </v>
   <v>       0.61765626       0.95089759       0.49764796 </v>
   <v>       0.76117331       0.09433493       0.49661499 </v>
   <v>       0.76179711       0.23738293       0.49658929 </v>
   <v>       0.76225431       0.38047366       0.49578399 </v>
   <v>       0.76277886       0.52485169       0.49206973 </v>
   <v>       0.76471493       0.66739598       0.48843034 </v>
   <v>       0.76176679       0.80782529       0.49239211 </v>
   <v>       0.76089350       0.95129536       0.49610254 </v>
   <v>       0.90392458       0.09429739       0.49793578 </v>
   <v>       0.90415247       0.23743432       0.49699148 </v>
   <v>       0.90467503       0.38071728       0.49645899 </v>
   <v>       0.90541648       0.52389605       0.49661299 </v>
   <v>       0.90625639       0.66696945       0.49613270 </v>
   <v>       0.90581488       0.80996638       0.49707728 </v>
   <v>       0.90459280       0.95191924       0.49859200 </v>
   <v>       0.46302177       0.35479291       0.50667493 </v>
   <v>       0.40209164       0.41812756       0.51567549 </v>
   <v>       0.40294698       0.55999269       0.51286832 </v>
   <v>       0.64649343       0.67693703       0.48035726 </v>
   <v>       0.64645446       0.53984316       0.48297450 </v>
   <v>       0.58550998       0.41599238       0.50053125 </v>
   <v>       0.58022144       0.73825590       0.49754588 </v>
   <v>       0.51156408       0.56521386       0.48536812 </v>
   <v>       0.53969996       0.57582890       0.58423750 </v>
   <v>       0.42711081       0.71538203       0.50173256 </v>
   <v>       0.52782249       0.53739495       0.53261528 </v>
  </varray>
  <varray name="selective"  type="logical" >
   <v type="logical" >  T  T  T </v>
   <v type="logical" >  T  T  T </v>
   <v type="logical" >  T  T  T </v>
   <v type="logical" >  T  T  T </v>
   <v type="logical" >  T  T  T </v>
   <v type="logical" >  T  T  T </v>
   <v type="logical" >  T  T  T </v>
   <v type="logical" >  T  T  T </v>
   <v type="logical" >  T  T  T </v>
   <v type="logical" >  T  T  T </v>
   <v type="logical" >  T  T  T </v>
   <v type="logical" >  T  T  T </v>
   <v type="logical" >  T  T  T </v>
   <v type="logical" >  T  T  T </v>
   <v type="logical" >  T  T  T </v>
   <v type="logical" >  T  T  T </v>
   <v type="logical" >  T  T  T </v>
   <v type="logical" >  T  T  T </v>
   <v type="logical" >  T  T  T </v>
   <v type="logical" >  T  T  T </v>
   <v type="logical" >  T  T  T </v>
   <v type="logical" >  T  T  T </v>
   <v type="logical" >  T  T  T </v>
   <v type="logical" >  T  T  T </v>
   <v type="logical" >  T  T  T </v>
   <v type="logical" >  T  T  T </v>
   <v type="logical" >  T  T  T </v>
   <v type="logical" >  T  T  T </v>
   <v type="logical" >  T  T  T </v>
   <v type="logical" >  T  T  T </v>
   <v type="logical" >  T  T  T </v>
   <v type="logical" >  T  T  T </v>
   <v type="logical" >  T  T  T </v>
   <v type="logical" >  T  T  T </v>
   <v type="logical" >  T  T  T </v>
   <v type="logical" >  T  T  T </v>
   <v type="logical" >  T  T  T </v>
   <v type="logical" >  T  T  T </v>
   <v type="logical" >  T  T  T </v>
   <v type="logical" >  T  T  T </v>
   <v type="logical" >  T  T  T </v>
   <v type="logical" >  T  T  T </v>
   <v type="logical" >  T  T  T </v>
   <v type="logical" >  T  T  T </v>
   <v type="logical" >  T  T  T </v>
   <v type="logical" >  T  T  T </v>
   <v type="logical" >  T  T  T </v>
   <v type="logical" >  T  T  T </v>
   <v type="logical" >  T  T  T </v>
   <v type="logical" >  T  T  T </v>
   <v type="logical" >  T  T  T </v>
   <v type="logical" >  T  T  T </v>
   <v type="logical" >  T  T  T </v>
   <v type="logical" >  T  T  T </v>
   <v type="logical" >  T  T  T </v>
   <v type="logical" >  T  T  T </v>
   <v type="logical" >  T  T  T </v>
   <v type="logical" >  T  T  T </v>
   <v type="logical" >  T  T  T </v>
   <v type="logical" >  T  T  T </v>
   <v type="logical" >  T  T  T </v>
   <v type="logical" >  T  T  T </v>
   <v type="logical" >  T  T  T </v>
   <v type="logical" >  T  T  T </v>
   <v type="logical" >  T  T  T </v>
   <v type="logical" >  T  T  T </v>
   <v type="logical" >  T  T  T </v>
   <v type="logical" >  T  T  T </v>
   <v type="logical" >  T  T  T </v>
   <v type="logical" >  T  T  T </v>
   <v type="logical" >  T  T  T </v>
   <v type="logical" >  T  T  T </v>
   <v type="logical" >  T  T  T </v>
   <v type="logical" >  T  T  T </v>
   <v type="logical" >  T  T  T </v>
   <v type="logical" >  T  T  T </v>
   <v type="logical" >  T  T  T </v>
   <v type="logical" >  T  T  T </v>
   <v type="logical" >  T  T  T </v>
   <v type="logical" >  T  T  T </v>
   <v type="logical" >  T  T  T </v>
   <v type="logical" >  T  T  T </v>
   <v type="logical" >  T  T  T </v>
   <v type="logical" >  T  T  T </v>
   <v type="logical" >  T  T  T </v>
   <v type="logical" >  T  T  T </v>
   <v type="logical" >  T  T  T </v>
   <v type="logical" >  T  T  T </v>
   <v type="logical" >  T  T  T </v>
   <v type="logical" >  T  T  T </v>
   <v type="logical" >  T  T  T </v>
   <v type="logical" >  T  T  T </v>
   <v type="logical" >  T  T  T </v>
   <v type="logical" >  T  T  T </v>
   <v type="logical" >  T  T  T </v>
   <v type="logical" >  T  T  T </v>
   <v type="logical" >  T  T  T </v>
   <v type="logical" >  T  T  T </v>
  </varray>
  <nose>
   <v>      -3.00000000       0.00000000       0.00010000       0.00010000 </v>
  </nose>
 </structure>
</modeling>
