unknown system                          
           1
    17.271038    0.000000    0.000000
    -8.635519   14.957158    0.000000
     0.000000    0.000000   15.000000
   C    H    N    O 
    87     9     1     1
Direct configuration=     1
   0.99974473  0.99981427  0.50138206
   0.99926236  0.14237802  0.49998118
   0.99945392  0.28544134  0.49842549
   0.99992686  0.42847363  0.49770107
   0.00051736  0.57148579  0.49848529
   0.00132712  0.71468565  0.49944880
   0.00094439  0.85769762  0.50069046
   0.14307209  0.00041539  0.50361381
   0.14241453  0.14296145  0.50359634
   0.14193674  0.28549098  0.50253434
   0.14260842  0.42903190  0.50086903
   0.14318942  0.57154350  0.50013911
   0.14353265  0.71439135  0.50097107
   0.14332550  0.85749614  0.50225662
   0.28573995  0.00007646  0.50319233
   0.28553648  0.14279556  0.50507293
   0.28538233  0.28701581  0.50715259
   0.28433848  0.42852203  0.50715628
   0.28727030  0.57220265  0.50362675
   0.28624127  0.71509094  0.50162427
   0.28556033  0.85763290  0.50180063
   0.42858423  0.99982901  0.50082392
   0.42842670  0.14249101  0.50262388
   0.42681526  0.28227946  0.50542517
   0.42769763  0.85663828  0.50047946
   0.57079931  0.99933085  0.49816903
   0.57126334  0.14220934  0.49879010
   0.57234198  0.28588050  0.49983239
   0.56991368  0.85520649  0.49833252
   0.71302769  0.99860514  0.49667624
   0.71398924  0.14218879  0.49666952
   0.71430503  0.28527355  0.49664038
   0.71417778  0.42756641  0.49503411
   0.71881768  0.57335643  0.48681810
   0.71870786  0.71541126  0.48698271
   0.71230134  0.85576270  0.49518652
   0.85638348  0.99926830  0.49753123
   0.85630655  0.14206745  0.49693680
   0.85682009  0.28517465  0.49636411
   0.85749389  0.42829514  0.49599702
   0.85838474  0.57179684  0.49558023
   0.85967339  0.71516578  0.49507119
   0.85754949  0.85690996  0.49697312
   0.04724239  0.09508922  0.50179229
   0.04659528  0.23751387  0.50016685
   0.04712208  0.38084518  0.49875181
   0.04797498  0.52381423  0.49869341
   0.04837493  0.66683900  0.49977624
   0.04826180  0.80983320  0.50103806
   0.04785116  0.95259730  0.50224166
   0.19028452  0.09527235  0.50445425
   0.18968793  0.23810767  0.50426767
   0.18892994  0.38061850  0.50310953
   0.19105328  0.52455146  0.50121809
   0.19094725  0.66691603  0.50103864
   0.19072571  0.80982260  0.50183420
   0.19076107  0.95264061  0.50327544
   0.33332479  0.09540237  0.50389600
   0.33381560  0.23805937  0.50637675
   0.32969802  0.37979173  0.51001086
   0.33061424  0.52305434  0.50772134
   0.33700820  0.67048472  0.50236340
   0.33298276  0.80988570  0.50136389
   0.33323513  0.95255881  0.50204304
   0.47611524  0.09483520  0.50065878
   0.47549562  0.23760543  0.50290802
   0.47229224  0.80598396  0.50026015
   0.47586608  0.95203857  0.49970451
   0.61857670  0.09449715  0.49762372
   0.61918899  0.23759542  0.49822030
   0.62124352  0.37923170  0.49809010
   0.61893211  0.81088059  0.49707876
   0.61762589  0.95089948  0.49746127
   0.76114877  0.09433286  0.49651007
   0.76177925  0.23738045  0.49638803
   0.76224064  0.38046510  0.49569823
   0.76277984  0.52483493  0.49230413
   0.76469068  0.66736095  0.48912115
   0.76175679  0.80782068  0.49299141
   0.76084236  0.95126830  0.49628792
   0.90387850  0.09427670  0.49804949
   0.90412288  0.23743295  0.49700223
   0.90465352  0.38071960  0.49653310
   0.90541469  0.52389551  0.49688560
   0.90624748  0.66695606  0.49675307
   0.90579481  0.80995007  0.49770023
   0.90454927  0.95190397  0.49898177
   0.46297986  0.35481041  0.50611278
   0.40199322  0.41811136  0.51548964
   0.40299974  0.55980464  0.51245507
   0.64651966  0.67707266  0.48078563
   0.64643766  0.53978152  0.48348158
   0.58546491  0.41596537  0.49993536
   0.58010685  0.73825026  0.49800000
   0.51352549  0.56496138  0.48372861
   0.54258653  0.57761364  0.58242200
   0.42710885  0.71539882  0.50161547
   0.52715205  0.53654373  0.53249456
Direct configuration=     2
   0.99974525  0.99981459  0.50138049
   0.99926329  0.14237871  0.49998047
   0.99945455  0.28544165  0.49842549
   0.99992739  0.42847383  0.49770090
   0.00051787  0.57148590  0.49848338
   0.00132812  0.71468572  0.49944543
   0.00094423  0.85769745  0.50068811
   0.14307178  0.00041578  0.50361403
   0.14241489  0.14296200  0.50359720
   0.14193716  0.28549130  0.50253454
   0.14260868  0.42903186  0.50086892
   0.14318945  0.57154352  0.50013830
   0.14353204  0.71438995  0.50097032
   0.14332463  0.85749496  0.50225618
   0.28573896  0.00007594  0.50319433
   0.28553584  0.14279551  0.50507506
   0.28538145  0.28701517  0.50715437
   0.28433778  0.42852152  0.50715715
   0.28726951  0.57220257  0.50362746
   0.28624078  0.71509008  0.50162430
   0.28555943  0.85763153  0.50180163
   0.42858453  0.99982880  0.50082732
   0.42842652  0.14249102  0.50262812
   0.42681507  0.28227905  0.50542807
   0.42769745  0.85663758  0.50048104
   0.57079888  0.99933092  0.49817264
   0.57126383  0.14220960  0.49879672
   0.57234244  0.28588121  0.49983842
   0.56991367  0.85520641  0.49833208
   0.71302693  0.99860523  0.49667628
   0.71398899  0.14218928  0.49667169
   0.71430487  0.28527330  0.49664442
   0.71417543  0.42756567  0.49503595
   0.71881729  0.57335632  0.48681468
   0.71870732  0.71541065  0.48697837
   0.71230079  0.85576252  0.49518453
   0.85638197  0.99926858  0.49752825
   0.85630647  0.14206777  0.49693652
   0.85682041  0.28517486  0.49636501
   0.85749406  0.42829498  0.49599750
   0.85838528  0.57179750  0.49557681
   0.85967386  0.71516593  0.49506512
   0.85754904  0.85690936  0.49697024
   0.04724217  0.09508870  0.50179171
   0.04659518  0.23751342  0.50016670
   0.04712217  0.38084487  0.49875187
   0.04797484  0.52381395  0.49869240
   0.04837515  0.66683905  0.49977394
   0.04826204  0.80983372  0.50103612
   0.04785113  0.95259723  0.50224054
   0.19028463  0.09527200  0.50445536
   0.18968889  0.23810799  0.50426867
   0.18893100  0.38061899  0.50310993
   0.19105354  0.52455118  0.50121806
   0.19094781  0.66691617  0.50103804
   0.19072848  0.80982740  0.50183362
   0.19076366  0.95264045  0.50327644
   0.33332505  0.09540176  0.50389842
   0.33381632  0.23805913  0.50637913
   0.32969950  0.37979256  0.51001238
   0.33061460  0.52305469  0.50772323
   0.33700871  0.67048486  0.50236380
   0.33298311  0.80988623  0.50136485
   0.33323506  0.95255828  0.50204413
   0.47611528  0.09483490  0.50066413
   0.47549571  0.23760511  0.50291320
   0.47229252  0.80598384  0.50026075
   0.47586616  0.95203850  0.49970638
   0.61857747  0.09449734  0.49762871
   0.61918976  0.23759560  0.49822682
   0.62124497  0.37923197  0.49809354
   0.61893295  0.81088122  0.49707595
   0.61762700  0.95089951  0.49746256
   0.76115191  0.09433229  0.49651031
   0.76178023  0.23738079  0.49639005
   0.76224147  0.38046509  0.49569984
   0.76278084  0.52483525  0.49230221
   0.76469159  0.66736134  0.48911564
   0.76175686  0.80782103  0.49298744
   0.76084379  0.95126908  0.49628579
   0.90387863  0.09427611  0.49804823
   0.90412277  0.23743200  0.49700221
   0.90465355  0.38071951  0.49653379
   0.90541445  0.52389523  0.49688405
   0.90624737  0.66695595  0.49674815
   0.90579466  0.80995033  0.49769640
   0.90454944  0.95190374  0.49897915
   0.46298001  0.35481020  0.50611798
   0.40199276  0.41811075  0.51549165
   0.40299909  0.55980570  0.51245737
   0.64651945  0.67707126  0.48078467
   0.64643804  0.53978225  0.48348010
   0.58546527  0.41596605  0.49993835
   0.58010770  0.73825025  0.49799621
   0.51351141  0.56496348  0.48373868
   0.54256516  0.57760269  0.58243296
   0.42710866  0.71539832  0.50161570
   0.52715465  0.53654905  0.53249480
Direct configuration=     3
   0.99974510  0.99981437  0.50137811
   0.99926337  0.14237832  0.49997936
   0.99945440  0.28544112  0.49842542
   0.99992750  0.42847360  0.49770063
   0.00051761  0.57148541  0.49848049
   0.00132827  0.71468593  0.49944029
   0.00094395  0.85769757  0.50068455
   0.14307240  0.00041538  0.50361441
   0.14241401  0.14295920  0.50359755
   0.14193770  0.28549161  0.50253488
   0.14260837  0.42903163  0.50086931
   0.14318960  0.57154318  0.50013708
   0.14353370  0.71439145  0.50096962
   0.14332532  0.85749587  0.50225551
   0.28573961  0.00007549  0.50319723
   0.28553607  0.14279497  0.50507823
   0.28538435  0.28701643  0.50715679
   0.28433988  0.42852335  0.50715815
   0.28726977  0.57220280  0.50362860
   0.28624156  0.71509035  0.50162440
   0.28556051  0.85763251  0.50180299
   0.42858434  0.99982840  0.50083234
   0.42842643  0.14249049  0.50263458
   0.42681541  0.28227887  0.50543272
   0.42769759  0.85663711  0.50048332
   0.57080029  0.99933093  0.49817797
   0.57126435  0.14220979  0.49880669
   0.57234288  0.28588120  0.49984748
   0.56991386  0.85520642  0.49833143
   0.71302908  0.99860552  0.49667672
   0.71399064  0.14218930  0.49667505
   0.71430582  0.28527360  0.49665044
   0.71417754  0.42756647  0.49503835
   0.71881806  0.57335653  0.48680957
   0.71870746  0.71541061  0.48697190
   0.71230194  0.85576491  0.49518231
   0.85638333  0.99926849  0.49752479
   0.85630765  0.14206737  0.49693602
   0.85682125  0.28517481  0.49636632
   0.85749421  0.42829492  0.49599815
   0.85838566  0.57179754  0.49557162
   0.85967458  0.71516640  0.49505602
   0.85754897  0.85690956  0.49696571
   0.04724294  0.09508914  0.50179085
   0.04659606  0.23751385  0.50016647
   0.04712283  0.38084496  0.49875189
   0.04797520  0.52381409  0.49869085
   0.04837576  0.66683896  0.49977048
   0.04826175  0.80983333  0.50103309
   0.04785129  0.95259719  0.50223882
   0.19028429  0.09527203  0.50445703
   0.18968881  0.23810811  0.50427015
   0.18893108  0.38061873  0.50311043
   0.19105305  0.52455083  0.50121793
   0.19094742  0.66691576  0.50103711
   0.19072641  0.80982418  0.50183392
   0.19076194  0.95264006  0.50327735
   0.33332464  0.09540158  0.50390217
   0.33381590  0.23805873  0.50638271
   0.32969858  0.37979190  0.51001400
   0.33061350  0.52305432  0.50772594
   0.33700818  0.67048410  0.50236383
   0.33298268  0.80988528  0.50136629
   0.33323490  0.95255702  0.50204548
   0.47611704  0.09483563  0.50067143
   0.47549632  0.23760535  0.50292091
   0.47229275  0.80598341  0.50026161
   0.47586615  0.95203820  0.49970947
   0.61857786  0.09449756  0.49763616
   0.61918918  0.23759458  0.49823546
   0.62124447  0.37923231  0.49809893
   0.61893311  0.81088105  0.49707177
   0.61762666  0.95089979  0.49746450
   0.76115093  0.09433261  0.49651127
   0.76178060  0.23738099  0.49639319
   0.76224124  0.38046487  0.49570242
   0.76278065  0.52483533  0.49229922
   0.76469200  0.66736155  0.48910727
   0.76175600  0.80782027  0.49298146
   0.76084322  0.95126902  0.49628258
   0.90387923  0.09427652  0.49804624
   0.90412390  0.23743304  0.49700276
   0.90465419  0.38071958  0.49653481
   0.90541501  0.52389550  0.49688168
   0.90624861  0.66695721  0.49674182
   0.90579473  0.80995024  0.49769056
   0.90454932  0.95190354  0.49897516
   0.46298017  0.35480978  0.50612558
   0.40199330  0.41811054  0.51549468
   0.40299862  0.55980751  0.51246081
   0.64651886  0.67706904  0.48078318
   0.64643814  0.53978314  0.48347782
   0.58546621  0.41596665  0.49994272
   0.58010916  0.73825063  0.49799057
   0.51349066  0.56496664  0.48375338
   0.54253376  0.57758668  0.58244925
   0.42710889  0.71539815  0.50161604
   0.52715870  0.53655780  0.53249518
Direct configuration=     4
   0.99974464  0.99981375  0.50137489
   0.99926337  0.14237760  0.49997786
   0.99945438  0.28544037  0.49842534
   0.99992770  0.42847315  0.49770029
   0.00051737  0.57148489  0.49847658
   0.00132808  0.71468607  0.49943342
   0.00094381  0.85769771  0.50067973
   0.14307322  0.00041433  0.50361498
   0.14241408  0.14295857  0.50359849
   0.14193854  0.28549167  0.50253539
   0.14260793  0.42903108  0.50087019
   0.14318975  0.57154267  0.50013545
   0.14353615  0.71439391  0.50096887
   0.14332630  0.85749725  0.50225461
   0.28574103  0.00007491  0.50320097
   0.28553667  0.14279418  0.50508252
   0.28538542  0.28701686  0.50716059
   0.28434304  0.42852593  0.50715933
   0.28727032  0.57220297  0.50363013
   0.28624266  0.71509082  0.50162458
   0.28556212  0.85763371  0.50180469
   0.42858444  0.99982806  0.50083887
   0.42842699  0.14248978  0.50264338
   0.42681611  0.28227867  0.50543949
   0.42769803  0.85663684  0.50048627
   0.57080085  0.99933073  0.49818500
   0.57126558  0.14221077  0.49881890
   0.57234329  0.28588061  0.49985959
   0.56991422  0.85520630  0.49833058
   0.71303046  0.99860564  0.49667645
   0.71399299  0.14218895  0.49667983
   0.71430699  0.28527376  0.49665847
   0.71418051  0.42756760  0.49504154
   0.71881938  0.57335693  0.48680269
   0.71870773  0.71541062  0.48696312
   0.71230382  0.85576800  0.49517938
   0.85638679  0.99926807  0.49752075
   0.85630952  0.14206688  0.49693531
   0.85682244  0.28517471  0.49636812
   0.85749458  0.42829489  0.49599894
   0.85838615  0.57179737  0.49556471
   0.85967545  0.71516704  0.49504393
   0.85754899  0.85690989  0.49695920
   0.04724376  0.09508939  0.50178962
   0.04659730  0.23751452  0.50016615
   0.04712356  0.38084504  0.49875189
   0.04797581  0.52381418  0.49868877
   0.04837663  0.66683882  0.49976585
   0.04826142  0.80983269  0.50102888
   0.04785164  0.95259714  0.50223648
   0.19028401  0.09527162  0.50445927
   0.18968837  0.23810734  0.50427209
   0.18893096  0.38061847  0.50311107
   0.19105231  0.52455052  0.50121776
   0.19094707  0.66691520  0.50103591
   0.19072370  0.80981988  0.50183439
   0.19075784  0.95263975  0.50327823
   0.33332403  0.09540130  0.50390743
   0.33381536  0.23805827  0.50638753
   0.32969727  0.37979107  0.51001595
   0.33061209  0.52305395  0.50772944
   0.33700739  0.67048290  0.50236361
   0.33298223  0.80988373  0.50136824
   0.33323502  0.95255593  0.50204743
   0.47611916  0.09483647  0.50068100
   0.47549715  0.23760561  0.50293125
   0.47229294  0.80598265  0.50026273
   0.47586626  0.95203755  0.49971412
   0.61857956  0.09449795  0.49764499
   0.61918839  0.23759332  0.49824655
   0.62124342  0.37923262  0.49810640
   0.61893308  0.81088080  0.49706635
   0.61762614  0.95090013  0.49746715
   0.76114776  0.09433352  0.49651296
   0.76178100  0.23738105  0.49639761
   0.76224078  0.38046470  0.49570615
   0.76278013  0.52483518  0.49229513
   0.76469232  0.66736167  0.48909597
   0.76175497  0.80781934  0.49297360
   0.76084235  0.95126889  0.49627851
   0.90388038  0.09427726  0.49804352
   0.90412582  0.23743485  0.49700382
   0.90465520  0.38071968  0.49653612
   0.90541590  0.52389592  0.49687840
   0.90625063  0.66695893  0.49673372
   0.90579348  0.80995033  0.49768314
   0.90454920  0.95190340  0.49896981
   0.46298042  0.35480920  0.50613556
   0.40199443  0.41811043  0.51549863
   0.40299808  0.55980989  0.51246540
   0.64651805  0.67706594  0.48078118
   0.64643822  0.53978424  0.48347475
   0.58546752  0.41596733  0.49994851
   0.58011120  0.73825112  0.49798302
   0.51346305  0.56497100  0.48377254
   0.54249224  0.57756577  0.58247138
   0.42710931  0.71539797  0.50161651
   0.52716445  0.53657002  0.53249562
Direct configuration=     5
   0.99974481  0.99981332  0.50137082
   0.99926441  0.14237780  0.49997592
   0.99945565  0.28544057  0.49842529
   0.99992851  0.42847306  0.49769986
   0.00051823  0.57148514  0.49847160
   0.00132865  0.71468602  0.49942487
   0.00094355  0.85769760  0.50067357
   0.14307274  0.00041372  0.50361572
   0.14241528  0.14296036  0.50360005
   0.14193955  0.28549159  0.50253611
   0.14260780  0.42903045  0.50087140
   0.14318976  0.57154248  0.50013336
   0.14353687  0.71439397  0.50096780
   0.14332563  0.85749694  0.50225343
   0.28574082  0.00007400  0.50320543
   0.28553659  0.14279353  0.50508803
   0.28538323  0.28701544  0.50716562
   0.28434282  0.42852460  0.50716204
   0.28726973  0.57220278  0.50363194
   0.28624254  0.71509000  0.50162480
   0.28556192  0.85763239  0.50180670
   0.42858562  0.99982818  0.50084683
   0.42842824  0.14248953  0.50265471
   0.42681643  0.28227816  0.50544882
   0.42769843  0.85663636  0.50048986
   0.57080054  0.99933096  0.49819371
   0.57126770  0.14221162  0.49883342
   0.57234376  0.28588034  0.49987476
   0.56991454  0.85520596  0.49832955
   0.71302933  0.99860591  0.49667558
   0.71399376  0.14218788  0.49668513
   0.71430717  0.28527311  0.49666853
   0.71418105  0.42756791  0.49504554
   0.71881989  0.57335722  0.48679382
   0.71870726  0.71541009  0.48695179
   0.71230405  0.85576907  0.49517648
   0.85638780  0.99926814  0.49751486
   0.85631023  0.14206712  0.49693446
   0.85682344  0.28517494  0.49637054
   0.85749522  0.42829480  0.49599981
   0.85838699  0.57179786  0.49555609
   0.85967604  0.71516769  0.49502889
   0.85754899  0.85691034  0.49695170
   0.04724368  0.09508864  0.50178795
   0.04659811  0.23751452  0.50016570
   0.04712369  0.38084461  0.49875192
   0.04797609  0.52381374  0.49868611
   0.04837742  0.66683895  0.49976005
   0.04826158  0.80983282  0.50102332
   0.04785175  0.95259690  0.50223346
   0.19028445  0.09527069  0.50446208
   0.18968838  0.23810606  0.50427453
   0.18893189  0.38061907  0.50311191
   0.19105210  0.52455034  0.50121761
   0.19094788  0.66691520  0.50103449
   0.19072488  0.80982070  0.50183380
   0.19075802  0.95263957  0.50327977
   0.33332420  0.09540024  0.50391438
   0.33381569  0.23805796  0.50639374
   0.32969792  0.37979158  0.51001860
   0.33061206  0.52305468  0.50773375
   0.33700734  0.67048213  0.50236336
   0.33298274  0.80988331  0.50137069
   0.33323565  0.95255591  0.50205041
   0.47612023  0.09483641  0.50069319
   0.47549771  0.23760512  0.50294439
   0.47229312  0.80598188  0.50026406
   0.47586638  0.95203684  0.49972070
   0.61858202  0.09449838  0.49765547
   0.61918989  0.23759350  0.49825909
   0.62124420  0.37923281  0.49811611
   0.61893379  0.81088156  0.49705981
   0.61762652  0.95090017  0.49747049
   0.76114890  0.09433379  0.49651461
   0.76178234  0.23738135  0.49640354
   0.76224131  0.38046482  0.49571124
   0.76278142  0.52483694  0.49229111
   0.76469328  0.66736208  0.48908163
   0.76175478  0.80781964  0.49296394
   0.76084393  0.95127014  0.49627382
   0.90388180  0.09427720  0.49804005
   0.90412626  0.23743381  0.49700393
   0.90465595  0.38071971  0.49653768
   0.90541628  0.52389597  0.49687404
   0.90625186  0.66695974  0.49672322
   0.90579189  0.80995095  0.49767377
   0.90454974  0.95190318  0.49896313
   0.46298080  0.35480865  0.50614773
   0.40199514  0.41810989  0.51550331
   0.40299695  0.55981266  0.51247107
   0.64651724  0.67706216  0.48077866
   0.64643870  0.53978575  0.48347083
   0.58546864  0.41596842  0.49995569
   0.58011362  0.73825143  0.49797359
   0.51342879  0.56497674  0.48379561
   0.54244119  0.57754057  0.58249947
   0.42710935  0.71539726  0.50161708
   0.52717202  0.53658532  0.53249606
Direct configuration=     6
   0.99974556  0.99981315  0.50136580
   0.99926607  0.14237853  0.49997344
   0.99945742  0.28544107  0.49842520
   0.99992949  0.42847319  0.49769929
   0.00051968  0.57148582  0.49846542
   0.00133009  0.71468599  0.49941458
   0.00094266  0.85769712  0.50066593
   0.14307132  0.00041379  0.50361664
   0.14241641  0.14296186  0.50360221
   0.14194026  0.28549148  0.50253704
   0.14260968  0.42903060  0.50087135
   0.14318970  0.57154260  0.50013078
   0.14353588  0.71439176  0.50096606
   0.14332419  0.85749532  0.50225184
   0.28573916  0.00007290  0.50321060
   0.28553614  0.14279283  0.50509487
   0.28538353  0.28701470  0.50717089
   0.28434189  0.42852382  0.50716494
   0.28726814  0.57220212  0.50363395
   0.28624167  0.71508823  0.50162503
   0.28556066  0.85762977  0.50180898
   0.42858711  0.99982842  0.50085632
   0.42842934  0.14248929  0.50266882
   0.42681608  0.28227728  0.50546118
   0.42769854  0.85663546  0.50049418
   0.57079996  0.99933136  0.49820410
   0.57127021  0.14221165  0.49885030
   0.57234459  0.28588069  0.49989290
   0.56991460  0.85520553  0.49832840
   0.71302934  0.99860673  0.49667546
   0.71399373  0.14218748  0.49669131
   0.71430719  0.28527240  0.49668056
   0.71417929  0.42756771  0.49505048
   0.71881950  0.57335757  0.48678284
   0.71870631  0.71540946  0.48693768
   0.71230313  0.85576814  0.49517261
   0.85638839  0.99926854  0.49750812
   0.85630981  0.14206740  0.49693344
   0.85682404  0.28517513  0.49637366
   0.85749589  0.42829465  0.49600075
   0.85838833  0.57179901  0.49554733
   0.85967622  0.71516831  0.49501093
   0.85754824  0.85691067  0.49694258
   0.04724343  0.09508768  0.50178581
   0.04659889  0.23751415  0.50016511
   0.04712342  0.38084373  0.49875204
   0.04797601  0.52381302  0.49868284
   0.04837810  0.66683933  0.49975307
   0.04826174  0.80983343  0.50101624
   0.04785131  0.95259622  0.50222968
   0.19028509  0.09527000  0.50446552
   0.18968873  0.23810539  0.50427756
   0.18893315  0.38061947  0.50311309
   0.19105206  0.52454994  0.50121755
   0.19094914  0.66691550  0.50103290
   0.19072774  0.80982454  0.50183358
   0.19076192  0.95263918  0.50328198
   0.33332531  0.09539912  0.50392176
   0.33381620  0.23805765  0.50640157
   0.32969959  0.37979206  0.51002231
   0.33061219  0.52305531  0.50773883
   0.33700886  0.67048328  0.50236469
   0.33298378  0.80988364  0.50137362
   0.33323657  0.95255643  0.50205484
   0.47612119  0.09483448  0.50070730
   0.47549800  0.23760393  0.50296058
   0.47229331  0.80598124  0.50026554
   0.47586665  0.95203646  0.49972949
   0.61858379  0.09449847  0.49766784
   0.61919295  0.23759502  0.49827387
   0.62124658  0.37923287  0.49812830
   0.61893494  0.81088289  0.49705235
   0.61762694  0.95089979  0.49747447
   0.76115379  0.09433300  0.49651605
   0.76178394  0.23738132  0.49641116
   0.76224259  0.38046494  0.49571789
   0.76278372  0.52483940  0.49228675
   0.76469462  0.66736295  0.48906397
   0.76175494  0.80782072  0.49295258
   0.76084682  0.95127249  0.49626867
   0.90388298  0.09427655  0.49803572
   0.90412554  0.23743084  0.49700316
   0.90465639  0.38071966  0.49653943
   0.90541634  0.52389579  0.49686846
   0.90625184  0.66695942  0.49670964
   0.90579123  0.80995177  0.49766201
   0.90455085  0.95190301  0.49895508
   0.46298122  0.35480814  0.50616201
   0.40199530  0.41810889  0.51550856
   0.40299544  0.55981597  0.51247784
   0.64651620  0.67705764  0.48077550
   0.64643938  0.53978756  0.48346593
   0.58546953  0.41596976  0.49996428
   0.58011635  0.73825172  0.49796221
   0.51338783  0.56498390  0.48382264
   0.54238053  0.57751113  0.58253339
   0.42710882  0.71539588  0.50161766
   0.52718158  0.53660391  0.53249657
Direct configuration=     7
   0.99974645  0.99981298  0.50135903
   0.99926739  0.14237851  0.49996993
   0.99945793  0.28544017  0.49842487
   0.99993000  0.42847283  0.49769846
   0.00052041  0.57148588  0.49845700
   0.00133149  0.71468645  0.49940096
   0.00094123  0.85769643  0.50065557
   0.14307131  0.00041344  0.50361792
   0.14241497  0.14295648  0.50360389
   0.14194091  0.28549134  0.50253836
   0.14261065  0.42903067  0.50087167
   0.14318986  0.57154255  0.50012741
   0.14353583  0.71439087  0.50096307
   0.14332465  0.85749476  0.50224960
   0.28573956  0.00007226  0.50321719
   0.28553688  0.14279180  0.50510409
   0.28538764  0.28701584  0.50717710
   0.28434296  0.42852505  0.50716866
   0.28726719  0.57220173  0.50363659
   0.28624238  0.71508787  0.50162545
   0.28556162  0.85762986  0.50181196
   0.42858532  0.99982720  0.50086802
   0.42843027  0.14248764  0.50268591
   0.42681497  0.28227477  0.50547730
   0.42769920  0.85663382  0.50049818
   0.57080014  0.99933096  0.49821765
   0.57127358  0.14221255  0.49887034
   0.57234642  0.28588108  0.49991639
   0.56991456  0.85520549  0.49832705
   0.71303255  0.99860739  0.49667619
   0.71399602  0.14218774  0.49669972
   0.71430950  0.28527323  0.49669621
   0.71417941  0.42756867  0.49505726
   0.71881988  0.57335852  0.48676813
   0.71870436  0.71540986  0.48692150
   0.71230348  0.85576781  0.49516607
   0.85639000  0.99926963  0.49749949
   0.85631089  0.14206631  0.49693191
   0.85682505  0.28517455  0.49637799
   0.85749662  0.42829470  0.49600187
   0.85839012  0.57180033  0.49553708
   0.85967678  0.71516906  0.49498746
   0.85754724  0.85691123  0.49692976
   0.04724477  0.09508786  0.50178291
   0.04660077  0.23751439  0.50016431
   0.04712446  0.38084337  0.49875225
   0.04797652  0.52381303  0.49867844
   0.04837905  0.66683953  0.49974395
   0.04826116  0.80983336  0.50100644
   0.04785068  0.95259517  0.50222458
   0.19028510  0.09527010  0.50447017
   0.18969000  0.23810654  0.50428170
   0.18893414  0.38061886  0.50311479
   0.19105195  0.52454943  0.50121748
   0.19094932  0.66691497  0.50103095
   0.19072834  0.80982586  0.50183371
   0.19076170  0.95263836  0.50328433
   0.33332684  0.09539900  0.50393114
   0.33381634  0.23805681  0.50641250
   0.32970062  0.37979126  0.51002792
   0.33061037  0.52305461  0.50774524
   0.33700898  0.67048310  0.50236617
   0.33298412  0.80988260  0.50137736
   0.33323729  0.95255610  0.50206183
   0.47612377  0.09483280  0.50072577
   0.47549870  0.23760293  0.50298257
   0.47229384  0.80598057  0.50026731
   0.47586744  0.95203632  0.49974204
   0.61858456  0.09449820  0.49768405
   0.61919564  0.23759659  0.49829394
   0.62124791  0.37923313  0.49814498
   0.61893568  0.81088330  0.49704323
   0.61762676  0.95089960  0.49747965
   0.76115522  0.09433250  0.49651829
   0.76178469  0.23738023  0.49642173
   0.76224351  0.38046495  0.49572719
   0.76278492  0.52484106  0.49228094
   0.76469362  0.66736406  0.48904137
   0.76175431  0.80782080  0.49293789
   0.76084841  0.95127386  0.49626267
   0.90388441  0.09427664  0.49802991
   0.90412698  0.23743115  0.49700337
   0.90465725  0.38071962  0.49654161
   0.90541748  0.52389611  0.49686087
   0.90625208  0.66695949  0.49669051
   0.90579192  0.80995220  0.49764565
   0.90455232  0.95190324  0.49894455
   0.46298177  0.35480745  0.50618022
   0.40199593  0.41810788  0.51551499
   0.40299408  0.55982060  0.51248667
   0.64651461  0.67705173  0.48077093
   0.64643975  0.53978955  0.48345899
   0.58547107  0.41597081  0.49997542
   0.58012005  0.73825258  0.49794732
   0.51333513  0.56499342  0.48385798
   0.54230253  0.57747353  0.58257742
   0.42710896  0.71539469  0.50161840
   0.52719480  0.53662919  0.53249762
Direct configuration=     8
   0.99974711  0.99981259  0.50135001
   0.99926900  0.14237829  0.49996503
   0.99945793  0.28543846  0.49842421
   0.99993040  0.42847186  0.49769721
   0.00052026  0.57148512  0.49844560
   0.00133145  0.71468719  0.49938276
   0.00094056  0.85769581  0.50064147
   0.14307279  0.00041167  0.50361959
   0.14241578  0.14295601  0.50360693
   0.14194288  0.28549113  0.50254033
   0.14261014  0.42902970  0.50087249
   0.14319022  0.57154191  0.50012317
   0.14353818  0.71439342  0.50095832
   0.14332619  0.85749597  0.50224653
   0.28574233  0.00007228  0.50322563
   0.28553932  0.14279354  0.50511501
   0.28539181  0.28701719  0.50718481
   0.28434612  0.42852609  0.50717379
   0.28726712  0.57220186  0.50364012
   0.28624421  0.71508896  0.50162629
   0.28556492  0.85763268  0.50181625
   0.42858275  0.99982538  0.50088116
   0.42843257  0.14248504  0.50270726
   0.42681532  0.28227225  0.50549905
   0.42770047  0.85663265  0.50050266
   0.57080155  0.99932992  0.49823532
   0.57127657  0.14221386  0.49889497
   0.57235044  0.28588036  0.49994523
   0.56991493  0.85520594  0.49832564
   0.71303283  0.99860615  0.49667611
   0.71399947  0.14218726  0.49671173
   0.71431406  0.28527539  0.49671661
   0.71418347  0.42757117  0.49506682
   0.71882118  0.57335995  0.48674878
   0.71870196  0.71541087  0.48690199
   0.71230566  0.85576980  0.49515507
   0.85639290  0.99927061  0.49748839
   0.85631452  0.14206504  0.49692968
   0.85682669  0.28517346  0.49638402
   0.85749769  0.42829519  0.49600328
   0.85839131  0.57180066  0.49552402
   0.85967558  0.71516952  0.49495873
   0.85754718  0.85691137  0.49691131
   0.04724640  0.09508741  0.50177892
   0.04660229  0.23751422  0.50016316
   0.04712661  0.38084355  0.49875248
   0.04798017  0.52381663  0.49867435
   0.04837879  0.66683484  0.49973367
   0.04826042  0.80983234  0.50099313
   0.04785289  0.95259765  0.50221992
   0.19028492  0.09526863  0.50447635
   0.18969213  0.23810638  0.50428700
   0.18893495  0.38061836  0.50311712
   0.19105165  0.52454912  0.50121730
   0.19094843  0.66691374  0.50102848
   0.19072290  0.80981522  0.50183517
   0.19075687  0.95263770  0.50328687
   0.33332778  0.09539895  0.50394384
   0.33381628  0.23805418  0.50642747
   0.32970365  0.37979434  0.51003406
   0.33060728  0.52305354  0.50775328
   0.33700745  0.67048083  0.50236784
   0.33298385  0.80988044  0.50138177
   0.33323632  0.95255422  0.50207214
   0.47612714  0.09483293  0.50074992
   0.47550208  0.23760326  0.50300969
   0.47229470  0.80597925  0.50026921
   0.47586715  0.95203497  0.49975894
   0.61858595  0.09449811  0.49770516
   0.61919841  0.23759618  0.49831929
   0.62124716  0.37923397  0.49816743
   0.61893600  0.81088275  0.49703217
   0.61762775  0.95090005  0.49748644
   0.76115285  0.09433297  0.49652153
   0.76178541  0.23737900  0.49643599
   0.76224200  0.38046703  0.49573577
   0.76278413  0.52484109  0.49227278
   0.76469153  0.66736614  0.48901256
   0.76175274  0.80781912  0.49292140
   0.76084729  0.95127099  0.49625784
   0.90388644  0.09427787  0.49802224
   0.90413036  0.23743412  0.49700487
   0.90465827  0.38071907  0.49654427
   0.90541968  0.52389700  0.49685104
   0.90625390  0.66696137  0.49666429
   0.90579222  0.80995170  0.49762294
   0.90455311  0.95190399  0.49893086
   0.46298181  0.35480532  0.50620312
   0.40199774  0.41810722  0.51552278
   0.40299212  0.55982637  0.51249800
   0.64651159  0.67704405  0.48076456