  97  97   0   0
  0.3994726E+02  0.1727104E-08  0.1727104E-08  0.1500000E-08  0.5000000E-16
   1.0000000000000000E-004
  CAR 
 unknown system                          
      5.89166639    -31.32337888  301     -2.52654160      1.00000000
    -31.323  0.0000E+00  0.0000E+00  0.0000E+00  0.0000E+00
    -31.199  0.0000E+00  0.0000E+00  0.0000E+00  0.0000E+00
    -31.075  0.0000E+00  0.0000E+00  0.0000E+00  0.0000E+00
    -30.951  0.0000E+00  0.0000E+00  0.0000E+00  0.0000E+00
    -30.827  0.0000E+00  0.0000E+00  0.0000E+00  0.0000E+00
    -30.703  0.0000E+00  0.0000E+00  0.0000E+00  0.0000E+00
    -30.579  0.0000E+00  0.0000E+00  0.0000E+00  0.0000E+00
    -30.455  0.0000E+00  0.0000E+00  0.0000E+00  0.0000E+00
    -30.331  0.0000E+00  0.0000E+00  0.0000E+00  0.0000E+00
    -30.207  0.0000E+00  0.0000E+00  0.0000E+00  0.0000E+00
    -30.083  0.0000E+00  0.0000E+00  0.0000E+00  0.0000E+00
    -29.959  0.0000E+00  0.0000E+00  0.0000E+00  0.0000E+00
    -29.835  0.1254E-09  0.1254E-09  0.1555E-10  0.1555E-10
    -29.711  0.3426E-03  0.3426E-03  0.4250E-04  0.4250E-04
    -29.587  0.2381E-01  0.2381E-01  0.2997E-02  0.2997E-02
    -29.463  0.1464E-01  0.1464E-01  0.4813E-02  0.4813E-02
    -29.339  0.1891E-01  0.1891E-01  0.7159E-02  0.7159E-02
    -29.215  0.3609E-01  0.3609E-01  0.1164E-01  0.1164E-01
    -29.090  0.6329E-01  0.6329E-01  0.1949E-01  0.1949E-01
    -28.966  0.4140E-02  0.4140E-02  0.2000E-01  0.2000E-01
    -28.842  0.6227E-07  0.6227E-07  0.2000E-01  0.2000E-01
    -28.718  0.0000E+00  0.0000E+00  0.2000E-01  0.2000E-01
    -28.594  0.0000E+00  0.0000E+00  0.2000E-01  0.2000E-01
    -28.470  0.0000E+00  0.0000E+00  0.2000E-01  0.2000E-01
    -28.346  0.0000E+00  0.0000E+00  0.2000E-01  0.2000E-01
    -28.222  0.0000E+00  0.0000E+00  0.2000E-01  0.2000E-01
    -28.098  0.0000E+00  0.0000E+00  0.2000E-01  0.2000E-01
    -27.974  0.0000E+00  0.0000E+00  0.2000E-01  0.2000E-01
    -27.850  0.0000E+00  0.0000E+00  0.2000E-01  0.2000E-01
    -27.726  0.0000E+00  0.0000E+00  0.2000E-01  0.2000E-01
    -27.602  0.0000E+00  0.0000E+00  0.2000E-01  0.2000E-01
    -27.478  0.0000E+00  0.0000E+00  0.2000E-01  0.2000E-01
    -27.354  0.0000E+00  0.0000E+00  0.2000E-01  0.2000E-01
    -27.230  0.0000E+00  0.0000E+00  0.2000E-01  0.2000E-01
    -27.106  0.0000E+00  0.0000E+00  0.2000E-01  0.2000E-01
    -26.982  0.0000E+00  0.0000E+00  0.2000E-01  0.2000E-01
    -26.858  0.0000E+00  0.0000E+00  0.2000E-01  0.2000E-01
    -26.734  0.0000E+00  0.0000E+00  0.2000E-01  0.2000E-01
    -26.609  0.0000E+00  0.0000E+00  0.2000E-01  0.2000E-01
    -26.485  0.0000E+00  0.0000E+00  0.2000E-01  0.2000E-01
    -26.361  0.0000E+00  0.0000E+00  0.2000E-01  0.2000E-01
    -26.237  0.0000E+00  0.0000E+00  0.2000E-01  0.2000E-01
    -26.113  0.0000E+00  0.0000E+00  0.2000E-01  0.2000E-01
    -25.989  0.0000E+00  0.0000E+00  0.2000E-01  0.2000E-01
    -25.865  0.0000E+00  0.0000E+00  0.2000E-01  0.2000E-01
    -25.741  0.0000E+00  0.0000E+00  0.2000E-01  0.2000E-01
    -25.617  0.0000E+00  0.0000E+00  0.2000E-01  0.2000E-01
    -25.493  0.0000E+00  0.0000E+00  0.2000E-01  0.2000E-01
    -25.369  0.0000E+00  0.0000E+00  0.2000E-01  0.2000E-01
    -25.245  0.0000E+00  0.0000E+00  0.2000E-01  0.2000E-01
    -25.121  0.0000E+00  0.0000E+00  0.2000E-01  0.2000E-01
    -24.997  0.0000E+00  0.0000E+00  0.2000E-01  0.2000E-01
    -24.873  0.0000E+00  0.0000E+00  0.2000E-01  0.2000E-01
    -24.749  0.0000E+00  0.0000E+00  0.2000E-01  0.2000E-01
    -24.625  0.0000E+00  0.0000E+00  0.2000E-01  0.2000E-01
    -24.501  0.0000E+00  0.0000E+00  0.2000E-01  0.2000E-01
    -24.377  0.0000E+00  0.0000E+00  0.2000E-01  0.2000E-01
    -24.253  0.0000E+00  0.0000E+00  0.2000E-01  0.2000E-01
    -24.128  0.0000E+00  0.0000E+00  0.2000E-01  0.2000E-01
    -24.004  0.0000E+00  0.0000E+00  0.2000E-01  0.2000E-01
    -23.880  0.0000E+00  0.0000E+00  0.2000E-01  0.2000E-01
    -23.756  0.0000E+00  0.0000E+00  0.2000E-01  0.2000E-01
    -23.632  0.0000E+00  0.0000E+00  0.2000E-01  0.2000E-01
    -23.508  0.0000E+00  0.0000E+00  0.2000E-01  0.2000E-01
    -23.384  0.0000E+00  0.0000E+00  0.2000E-01  0.2000E-01
    -23.260  0.0000E+00  0.0000E+00  0.2000E-01  0.2000E-01
    -23.136  0.0000E+00  0.0000E+00  0.2000E-01  0.2000E-01
    -23.012  0.0000E+00  0.0000E+00  0.2000E-01  0.2000E-01
    -22.888  0.0000E+00  0.0000E+00  0.2000E-01  0.2000E-01
    -22.764  0.0000E+00  0.0000E+00  0.2000E-01  0.2000E-01
    -22.640  0.0000E+00  0.0000E+00  0.2000E-01  0.2000E-01
    -22.516  0.1419E-10  0.1419E-10  0.2000E-01  0.2000E-01
    -22.392  0.1240E-03  0.1240E-03  0.2002E-01  0.2002E-01
    -22.268  0.4428E-01  0.4428E-01  0.2551E-01  0.2551E-01
    -22.144  0.3618E-01  0.3618E-01  0.3000E-01  0.3000E-01
    -22.020  0.2722E-04  0.2722E-04  0.3000E-01  0.3000E-01
    -21.896  0.2533E-03  0.2533E-03  0.3003E-01  0.3003E-01
    -21.772  0.2104E-01  0.2104E-01  0.3264E-01  0.3264E-01
    -21.647  0.2464E-01  0.2464E-01  0.3570E-01  0.3570E-01
    -21.523  0.1412E-01  0.1412E-01  0.3745E-01  0.3745E-01
    -21.399  0.2713E-01  0.2713E-01  0.4081E-01  0.4081E-01
    -21.275  0.8996E-02  0.8996E-02  0.4193E-01  0.4193E-01
    -21.151  0.2026E-01  0.2026E-01  0.4444E-01  0.4444E-01
    -21.027  0.3675E-01  0.3675E-01  0.4900E-01  0.4900E-01
    -20.903  0.2184E-01  0.2184E-01  0.5171E-01  0.5171E-01
    -20.779  0.1730E-01  0.1730E-01  0.5386E-01  0.5386E-01
    -20.655  0.1261E-01  0.1261E-01  0.5542E-01  0.5542E-01
    -20.531  0.2565E-01  0.2565E-01  0.5860E-01  0.5860E-01
    -20.407  0.2759E-01  0.2759E-01  0.6203E-01  0.6203E-01
    -20.283  0.3516E-01  0.3516E-01  0.6639E-01  0.6639E-01
    -20.159  0.1254E-01  0.1254E-01  0.6794E-01  0.6794E-01
    -20.035  0.5044E-02  0.5044E-02  0.6857E-01  0.6857E-01
    -19.911  0.2686E-01  0.2686E-01  0.7190E-01  0.7190E-01
    -19.787  0.2247E-01  0.2247E-01  0.7469E-01  0.7469E-01
    -19.663  0.3241E-01  0.3241E-01  0.7871E-01  0.7871E-01
    -19.539  0.3606E-01  0.3606E-01  0.8318E-01  0.8318E-01
    -19.415  0.2312E-01  0.2312E-01  0.8605E-01  0.8605E-01
    -19.291  0.1626E-01  0.1626E-01  0.8807E-01  0.8807E-01
    -19.166  0.1408E-01  0.1408E-01  0.8982E-01  0.8982E-01
    -19.042  0.1855E-01  0.1855E-01  0.9212E-01  0.9212E-01
    -18.918  0.1579E-01  0.1579E-01  0.9407E-01  0.9407E-01
    -18.794  0.2281E-01  0.2281E-01  0.9690E-01  0.9690E-01
    -18.670  0.5189E-01  0.5189E-01  0.1033E+00  0.1033E+00
    -18.546  0.2252E-01  0.2252E-01  0.1061E+00  0.1061E+00
    -18.422  0.1806E-01  0.1806E-01  0.1084E+00  0.1084E+00
    -18.298  0.3316E-01  0.3316E-01  0.1125E+00  0.1125E+00
    -18.174  0.1702E-01  0.1702E-01  0.1146E+00  0.1146E+00
    -18.050  0.1540E-01  0.1540E-01  0.1165E+00  0.1165E+00
    -17.926  0.1888E-01  0.1888E-01  0.1189E+00  0.1189E+00
    -17.802  0.2031E-01  0.2031E-01  0.1214E+00  0.1214E+00
    -17.678  0.2254E-01  0.2254E-01  0.1242E+00  0.1242E+00
    -17.554  0.5210E-01  0.5210E-01  0.1306E+00  0.1306E+00
    -17.430  0.3456E-01  0.3456E-01  0.1349E+00  0.1349E+00
    -17.306  0.3304E-01  0.3304E-01  0.1390E+00  0.1390E+00
    -17.182  0.1402E-01  0.1402E-01  0.1408E+00  0.1408E+00
    -17.058  0.2178E-01  0.2178E-01  0.1435E+00  0.1435E+00
    -16.934  0.2873E-01  0.2873E-01  0.1470E+00  0.1470E+00
    -16.810  0.1982E-01  0.1982E-01  0.1495E+00  0.1495E+00
    -16.685  0.1822E-01  0.1822E-01  0.1517E+00  0.1517E+00
    -16.561  0.4009E-01  0.4009E-01  0.1567E+00  0.1567E+00
    -16.437  0.4474E-01  0.4474E-01  0.1623E+00  0.1623E+00
    -16.313  0.2145E-01  0.2145E-01  0.1649E+00  0.1649E+00
    -16.189  0.6687E-03  0.6687E-03  0.1650E+00  0.1650E+00
    -16.065  0.9739E-02  0.9739E-02  0.1662E+00  0.1662E+00
    -15.941  0.5899E-02  0.5899E-02  0.1669E+00  0.1669E+00
    -15.817  0.8647E-02  0.8647E-02  0.1680E+00  0.1680E+00
    -15.693  0.2173E-01  0.2173E-01  0.1707E+00  0.1707E+00
    -15.569  0.1636E-01  0.1636E-01  0.1727E+00  0.1727E+00
    -15.445  0.2644E-01  0.2644E-01  0.1760E+00  0.1760E+00
    -15.321  0.2331E-01  0.2331E-01  0.1789E+00  0.1789E+00
    -15.197  0.3801E-01  0.3801E-01  0.1836E+00  0.1836E+00
    -15.073  0.3049E-01  0.3049E-01  0.1874E+00  0.1874E+00
    -14.949  0.2634E-01  0.2634E-01  0.1907E+00  0.1907E+00
    -14.825  0.2191E-01  0.2191E-01  0.1934E+00  0.1934E+00
    -14.701  0.3015E-01  0.3015E-01  0.1971E+00  0.1971E+00
    -14.577  0.3185E-01  0.3185E-01  0.2011E+00  0.2011E+00
    -14.453  0.4767E-01  0.4767E-01  0.2070E+00  0.2070E+00
    -14.329  0.3461E-01  0.3461E-01  0.2113E+00  0.2113E+00
    -14.204  0.1582E-01  0.1582E-01  0.2133E+00  0.2133E+00
    -14.080  0.1809E-01  0.1809E-01  0.2155E+00  0.2155E+00
    -13.956  0.1388E-01  0.1388E-01  0.2172E+00  0.2172E+00
    -13.832  0.1771E-01  0.1771E-01  0.2194E+00  0.2194E+00
    -13.708  0.4054E-01  0.4054E-01  0.2245E+00  0.2245E+00
    -13.584  0.3460E-01  0.3460E-01  0.2287E+00  0.2287E+00
    -13.460  0.2865E-01  0.2865E-01  0.2323E+00  0.2323E+00
    -13.336  0.1701E-01  0.1701E-01  0.2344E+00  0.2344E+00
    -13.212  0.9174E-02  0.9174E-02  0.2355E+00  0.2355E+00
    -13.088  0.1836E-01  0.1836E-01  0.2378E+00  0.2378E+00
    -12.964  0.2319E-01  0.2319E-01  0.2407E+00  0.2407E+00
    -12.840  0.2685E-01  0.2685E-01  0.2440E+00  0.2440E+00
    -12.716  0.7114E-01  0.7114E-01  0.2529E+00  0.2529E+00
    -12.592  0.2342E-01  0.2342E-01  0.2558E+00  0.2558E+00
    -12.468  0.2588E-01  0.2588E-01  0.2590E+00  0.2590E+00
    -12.344  0.4138E-01  0.4138E-01  0.2641E+00  0.2641E+00
    -12.220  0.2243E-01  0.2243E-01  0.2669E+00  0.2669E+00
    -12.096  0.2161E-01  0.2161E-01  0.2696E+00  0.2696E+00
    -11.972  0.2548E-01  0.2548E-01  0.2727E+00  0.2727E+00
    -11.848  0.4519E-01  0.4519E-01  0.2783E+00  0.2783E+00
    -11.723  0.3464E-01  0.3464E-01  0.2826E+00  0.2826E+00
    -11.599  0.4847E-01  0.4847E-01  0.2886E+00  0.2886E+00
    -11.475  0.3649E-01  0.3649E-01  0.2932E+00  0.2932E+00
    -11.351  0.3416E-01  0.3416E-01  0.2974E+00  0.2974E+00
    -11.227  0.4868E-01  0.4868E-01  0.3034E+00  0.3034E+00
    -11.103  0.3377E-01  0.3377E-01  0.3076E+00  0.3076E+00
    -10.979  0.3084E-01  0.3084E-01  0.3115E+00  0.3115E+00
    -10.855  0.2823E-01  0.2823E-01  0.3150E+00  0.3150E+00
    -10.731  0.3032E-01  0.3032E-01  0.3187E+00  0.3187E+00
    -10.607  0.2918E-01  0.2918E-01  0.3223E+00  0.3223E+00
    -10.483  0.4122E-01  0.4122E-01  0.3275E+00  0.3275E+00
    -10.359  0.5416E-01  0.5416E-01  0.3342E+00  0.3342E+00
    -10.235  0.5410E-01  0.5410E-01  0.3409E+00  0.3409E+00
    -10.111  0.6939E-01  0.6939E-01  0.3495E+00  0.3495E+00
     -9.987  0.7051E-01  0.7051E-01  0.3582E+00  0.3582E+00
     -9.863  0.6625E-01  0.6625E-01  0.3665E+00  0.3665E+00
     -9.739  0.6644E-01  0.6644E-01  0.3747E+00  0.3747E+00
     -9.615  0.6780E-01  0.6780E-01  0.3831E+00  0.3831E+00
     -9.491  0.7071E-01  0.7071E-01  0.3919E+00  0.3919E+00
     -9.367  0.7943E-01  0.7943E-01  0.4017E+00  0.4017E+00
     -9.242  0.7660E-01  0.7660E-01  0.4112E+00  0.4112E+00
     -9.118  0.6220E-01  0.6220E-01  0.4190E+00  0.4190E+00
     -8.994  0.7323E-01  0.7323E-01  0.4280E+00  0.4280E+00
     -8.870  0.8742E-01  0.8742E-01  0.4389E+00  0.4389E+00
     -8.746  0.7854E-01  0.7854E-01  0.4486E+00  0.4486E+00
     -8.622  0.5789E-01  0.5789E-01  0.4558E+00  0.4558E+00
     -8.498  0.3876E-01  0.3876E-01  0.4606E+00  0.4606E+00
     -8.374  0.6055E-01  0.6055E-01  0.4681E+00  0.4681E+00
     -8.250  0.6341E-01  0.6341E-01  0.4760E+00  0.4760E+00
     -8.126  0.6270E-01  0.6270E-01  0.4838E+00  0.4838E+00
     -8.002  0.7036E-01  0.7036E-01  0.4925E+00  0.4925E+00
     -7.878  0.5902E-01  0.5902E-01  0.4998E+00  0.4998E+00
     -7.754  0.3756E-01  0.3756E-01  0.5045E+00  0.5045E+00
     -7.630  0.4783E-01  0.4783E-01  0.5104E+00  0.5104E+00
     -7.506  0.4696E-01  0.4696E-01  0.5162E+00  0.5162E+00
     -7.382  0.6548E-01  0.6548E-01  0.5244E+00  0.5244E+00
     -7.258  0.6362E-01  0.6362E-01  0.5323E+00  0.5323E+00
     -7.134  0.6770E-01  0.6770E-01  0.5407E+00  0.5407E+00
     -7.010  0.7005E-01  0.7005E-01  0.5493E+00  0.5493E+00
     -6.885  0.3429E-01  0.3429E-01  0.5536E+00  0.5536E+00
     -6.761  0.4629E-01  0.4629E-01  0.5593E+00  0.5593E+00
     -6.637  0.3232E-01  0.3232E-01  0.5633E+00  0.5633E+00
     -6.513  0.3224E-01  0.3224E-01  0.5673E+00  0.5673E+00
     -6.389  0.3024E-01  0.3024E-01  0.5711E+00  0.5711E+00
     -6.265  0.9032E-01  0.9032E-01  0.5823E+00  0.5823E+00
     -6.141  0.7771E-01  0.7771E-01  0.5919E+00  0.5919E+00
     -6.017  0.1513E-01  0.1513E-01  0.5938E+00  0.5938E+00
     -5.893  0.4132E-01  0.4132E-01  0.5989E+00  0.5989E+00
     -5.769  0.3908E-01  0.3908E-01  0.6038E+00  0.6038E+00
     -5.645  0.2670E-01  0.2670E-01  0.6071E+00  0.6071E+00
     -5.521  0.1538E-01  0.1538E-01  0.6090E+00  0.6090E+00
     -5.397  0.2322E-01  0.2322E-01  0.6119E+00  0.6119E+00
     -5.273  0.8378E-02  0.8378E-02  0.6129E+00  0.6129E+00
     -5.149  0.4931E-01  0.4931E-01  0.6191E+00  0.6191E+00
     -5.025  0.5750E-01  0.5750E-01  0.6262E+00  0.6262E+00
     -4.901  0.5670E-01  0.5670E-01  0.6332E+00  0.6332E+00
     -4.777  0.1650E-01  0.1650E-01  0.6353E+00  0.6353E+00
     -4.653  0.2112E-01  0.2112E-01  0.6379E+00  0.6379E+00
     -4.529  0.1418E-01  0.1418E-01  0.6396E+00  0.6396E+00
     -4.404  0.2566E-01  0.2566E-01  0.6428E+00  0.6428E+00
     -4.280  0.4583E-01  0.4583E-01  0.6485E+00  0.6485E+00
     -4.156  0.4554E-01  0.4554E-01  0.6542E+00  0.6542E+00
     -4.032  0.3346E-01  0.3346E-01  0.6583E+00  0.6583E+00
     -3.908  0.4271E-01  0.4271E-01  0.6636E+00  0.6636E+00
     -3.784  0.1693E-01  0.1693E-01  0.6657E+00  0.6657E+00
     -3.660  0.7633E-02  0.7633E-02  0.6667E+00  0.6667E+00
     -3.536  0.2822E-02  0.2822E-02  0.6670E+00  0.6670E+00
     -3.412  0.4950E-02  0.4950E-02  0.6676E+00  0.6676E+00
     -3.288  0.1955E-01  0.1955E-01  0.6700E+00  0.6700E+00
     -3.164  0.7212E-02  0.7212E-02  0.6709E+00  0.6709E+00
     -3.040  0.5788E-02  0.5788E-02  0.6717E+00  0.6717E+00
     -2.916  0.7012E-04  0.7012E-04  0.6717E+00  0.6717E+00
     -2.792  0.5295E-02  0.5295E-02  0.6723E+00  0.6723E+00
     -2.668  0.7968E-02  0.7968E-02  0.6733E+00  0.6733E+00
     -2.544  0.1604E-03  0.1604E-03  0.6733E+00  0.6733E+00
     -2.420  0.1232E-04  0.1232E-04  0.6733E+00  0.6733E+00
     -2.296  0.8356E-02  0.8356E-02  0.6744E+00  0.6744E+00
     -2.172  0.5066E-02  0.5066E-02  0.6750E+00  0.6750E+00
     -2.048  0.3687E-03  0.3687E-03  0.6750E+00  0.6750E+00
     -1.923  0.6220E-02  0.6220E-02  0.6758E+00  0.6758E+00
     -1.799  0.1063E-01  0.1063E-01  0.6771E+00  0.6771E+00
     -1.675  0.1573E-01  0.1573E-01  0.6791E+00  0.6791E+00
     -1.551  0.7083E-02  0.7083E-02  0.6800E+00  0.6800E+00
     -1.427  0.4415E-03  0.4415E-03  0.6800E+00  0.6800E+00
     -1.303  0.1567E-01  0.1567E-01  0.6820E+00  0.6820E+00
     -1.179  0.1176E-01  0.1176E-01  0.6834E+00  0.6834E+00
     -1.055  0.3111E-01  0.3111E-01  0.6873E+00  0.6873E+00
     -0.931  0.5870E-01  0.5870E-01  0.6946E+00  0.6946E+00
     -0.807  0.1331E-01  0.1331E-01  0.6962E+00  0.6962E+00
     -0.683  0.2819E-01  0.2819E-01  0.6997E+00  0.6997E+00
     -0.559  0.4196E-01  0.4196E-01  0.7049E+00  0.7049E+00
     -0.435  0.2000E-01  0.2000E-01  0.7074E+00  0.7074E+00
     -0.311  0.1837E-01  0.1837E-01  0.7097E+00  0.7097E+00
     -0.187  0.1712E-01  0.1712E-01  0.7118E+00  0.7118E+00
     -0.063  0.3172E-01  0.3172E-01  0.7157E+00  0.7157E+00
      0.061  0.4423E-01  0.4423E-01  0.7212E+00  0.7212E+00
      0.185  0.3978E-01  0.3978E-01  0.7262E+00  0.7262E+00
      0.309  0.4828E-02  0.4828E-02  0.7268E+00  0.7268E+00
      0.433  0.1608E-01  0.1608E-01  0.7287E+00  0.7287E+00
      0.558  0.1817E-01  0.1817E-01  0.7310E+00  0.7310E+00
      0.682  0.1812E-01  0.1812E-01  0.7333E+00  0.7333E+00
      0.806  0.2481E-01  0.2481E-01  0.7363E+00  0.7363E+00
      0.930  0.1876E-01  0.1876E-01  0.7387E+00  0.7387E+00
      1.054  0.3754E-01  0.3754E-01  0.7433E+00  0.7433E+00
      1.178  0.2160E-01  0.2160E-01  0.7460E+00  0.7460E+00
      1.302  0.2638E-01  0.2638E-01  0.7493E+00  0.7493E+00
      1.426  0.7075E-01  0.7075E-01  0.7580E+00  0.7580E+00
      1.550  0.5546E-01  0.5546E-01  0.7649E+00  0.7649E+00
      1.674  0.2328E-01  0.2328E-01  0.7678E+00  0.7678E+00
      1.798  0.2538E-01  0.2538E-01  0.7710E+00  0.7710E+00
      1.922  0.3368E-01  0.3368E-01  0.7751E+00  0.7751E+00
      2.046  0.9205E-01  0.9205E-01  0.7866E+00  0.7866E+00
      2.170  0.4721E-01  0.4721E-01  0.7924E+00  0.7924E+00
      2.294  0.3489E-01  0.3489E-01  0.7967E+00  0.7967E+00
      2.418  0.6594E-01  0.6594E-01  0.8049E+00  0.8049E+00
      2.542  0.7428E-01  0.7427E-01  0.8141E+00  0.8141E+00
      2.666  0.3376E-01  0.3376E-01  0.8183E+00  0.8183E+00
      2.790  0.5592E-01  0.5592E-01  0.8253E+00  0.8253E+00
      2.914  0.1149E+00  0.1149E+00  0.8395E+00  0.8395E+00
      3.039  0.1524E+00  0.1524E+00  0.8584E+00  0.8584E+00
      3.163  0.4234E-01  0.4234E-01  0.8637E+00  0.8637E+00
      3.287  0.4497E-01  0.4497E-01  0.8693E+00  0.8693E+00
      3.411  0.6010E-01  0.6010E-01  0.8767E+00  0.8767E+00
      3.535  0.8608E-01  0.8608E-01  0.8874E+00  0.8874E+00
      3.659  0.5837E-01  0.5837E-01  0.8946E+00  0.8946E+00
      3.783  0.5648E-01  0.5648E-01  0.9016E+00  0.9016E+00
      3.907  0.9181E-01  0.9181E-01  0.9130E+00  0.9130E+00
      4.031  0.9894E-01  0.9894E-01  0.9253E+00  0.9253E+00
      4.155  0.5319E-01  0.5319E-01  0.9319E+00  0.9319E+00
      4.279  0.1150E-01  0.1150E-01  0.9333E+00  0.9333E+00
      4.403  0.8629E-04  0.8630E-04  0.9333E+00  0.9333E+00
      4.527  0.3152E-10  0.3153E-10  0.9333E+00  0.9333E+00
      4.651  0.0000E+00  0.0000E+00  0.9333E+00  0.9333E+00
      4.775  0.0000E+00  0.0000E+00  0.9333E+00  0.9333E+00
      4.899  0.0000E+00  0.0000E+00  0.9333E+00  0.9333E+00
      5.023  0.0000E+00  0.0000E+00  0.9333E+00  0.9333E+00
      5.147  0.0000E+00  0.0000E+00  0.9333E+00  0.9333E+00
      5.271  0.0000E+00  0.0000E+00  0.9333E+00  0.9333E+00
      5.395  0.0000E+00  0.0000E+00  0.9333E+00  0.9333E+00
      5.520  0.0000E+00  0.0000E+00  0.9333E+00  0.9333E+00
      5.644  0.0000E+00  0.0000E+00  0.9333E+00  0.9333E+00
      5.768  0.0000E+00  0.0000E+00  0.9333E+00  0.9333E+00
      5.892  0.0000E+00  0.0000E+00  0.9333E+00  0.9333E+00
