<?xml version="1.0" encoding="ISO-8859-1"?>
<modeling>
 <generator>
  <i name="program" type="string">vasp </i>
  <i name="version" type="string">6.4.2  </i>
  <i name="subversion" type="string">20Jul23 (build Jan 24 2024 13:44:02) complex                          parallel </i>
  <i name="platform" type="string">LinuxNV </i>
  <i name="date" type="string">2025 11 14 </i>
  <i name="time" type="string">00:02:37 </i>
 </generator>
 <incar>
  <i type="int" name="ISTART">     0</i>
  <i type="string" name="ALGO">Normal</i>
  <i type="logical" name="ADDGRID"> T  </i>
  <i type="int" name="ISPIN">     2</i>
  <i type="int" name="IMIX">     4</i>
  <i name="AMIX">      0.20000000</i>
  <i name="BMIX">      0.00010000</i>
  <i name="AMIX_MAG">      0.80000000</i>
  <i name="BMIX_MAG">      0.00010000</i>
  <i type="int" name="ICHARG">     2</i>
  <i type="int" name="NELM">   200</i>
  <i type="int" name="IBRION">     3</i>
  <i name="EDIFF">      0.00000100</i>
  <i name="EDIFFG">     -0.03000000</i>
  <i type="int" name="NSW">   300</i>
  <i type="int" name="ISIF">     2</i>
  <i type="int" name="ISYM">     0</i>
  <i name="ENCUT">    520.00000000</i>
  <i name="POTIM">      0.05000000</i>
  <v name="MAGMOM">      0.60000000      0.60000000      0.60000000      0.60000000      0.60000000      0.60000000      0.60000000      0.60000000      0.60000000      0.60000000      0.60000000      0.60000000      0.60000000      0.60000000      0.60000000      0.60000000      0.60000000      0.60000000      0.60000000      0.60000000
      0.60000000      0.60000000      0.60000000      0.60000000      0.60000000      0.60000000      0.60000000      0.60000000      0.60000000      0.60000000      0.60000000      0.60000000      0.60000000      0.60000000      0.60000000      0.60000000      0.60000000      0.60000000      0.60000000      0.60000000
      0.60000000      0.60000000      0.60000000      0.60000000      0.60000000      0.60000000      0.60000000      0.60000000      0.60000000      0.60000000      0.60000000      0.60000000      0.60000000      0.60000000      0.60000000      0.60000000      0.60000000      0.60000000      0.60000000      0.60000000
      0.60000000      0.60000000      0.60000000      0.60000000      0.60000000      0.60000000      0.60000000      0.60000000      0.60000000      0.60000000      0.60000000      0.60000000      0.60000000      0.60000000      0.60000000      0.60000000      0.60000000      0.60000000      0.60000000      0.60000000
      0.60000000      0.60000000      0.60000000      0.60000000      0.60000000      0.60000000      0.60000000      0.60000000      0.60000000      0.60000000      0.60000000      0.60000000      0.60000000      0.60000000      0.60000000      0.60000000      0.60000000</v>
  <i type="string" name="LREAL">Auto</i>
  <i type="int" name="ISMEAR">     0</i>
  <i name="SIGMA">      0.05000000</i>
  <i type="logical" name="LWAVE"> F  </i>
  <i type="logical" name="LCHARG"> F  </i>
  <i type="logical" name="LASPH"> T  </i>
  <i type="int" name="IVDW">    12</i>
  <i name="SPRING">     -5.00000000</i>
 </incar>
 <primitive_cell>
  <structure name="primitive_cell" >
   <crystal>
    <varray name="basis" >
     <v>      17.27103806       0.00000000       0.00000000 </v>
     <v>      -8.63551903      14.95715771       0.00000000 </v>
     <v>       0.00000000       0.00000000      15.00000000 </v>
    </varray>
    <i name="volume">   3874.88459904 </i>
    <varray name="rec_basis" >
     <v>       0.05790040       0.03342881      -0.00000000 </v>
     <v>       0.00000000       0.06685762       0.00000000 </v>
     <v>       0.00000000      -0.00000000       0.06666667 </v>
    </varray>
   </crystal>
   <varray name="positions" >
    <v>       0.00117340       0.00057767       0.50271582 </v>
    <v>       0.00039227       0.14294780       0.50635748 </v>
    <v>       0.00034272       0.28586141       0.50614702 </v>
    <v>       0.00073286       0.42889378       0.50522291 </v>
    <v>       0.00117881       0.57199239       0.50054883 </v>
    <v>       0.00228300       0.71539451       0.49775389 </v>
    <v>       0.00281117       0.85877121       0.49874037 </v>
    <v>       0.14446231       0.00124317       0.49305774 </v>
    <v>       0.14358707       0.14366052       0.49720407 </v>
    <v>       0.14275309       0.28607765       0.49524956 </v>
    <v>       0.14332781       0.42929358       0.49332332 </v>
    <v>       0.14394646       0.57186538       0.49497496 </v>
    <v>       0.14411821       0.71486158       0.49329455 </v>
    <v>       0.14453047       0.85811799       0.49240326 </v>
    <v>       0.28687410       0.00061052       0.49141413 </v>
    <v>       0.28671738       0.14333630       0.48959537 </v>
    <v>       0.28571476       0.28679214       0.48466205 </v>
    <v>       0.28272280       0.42753660       0.46403445 </v>
    <v>       0.28700920       0.57278314       0.47422835 </v>
    <v>       0.28634099       0.71532551       0.48779010 </v>
    <v>       0.28652827       0.85804619       0.49147735 </v>
    <v>       0.42969085       0.00020951       0.49523845 </v>
    <v>       0.42944356       0.14292899       0.49454892 </v>
    <v>       0.42531228       0.27970662       0.51210867 </v>
    <v>       0.42854939       0.85688388       0.49336542 </v>
    <v>       0.57176058       0.99892130       0.50365779 </v>
    <v>       0.57217840       0.14236528       0.50574306 </v>
    <v>       0.57294694       0.28571188       0.50008672 </v>
    <v>       0.57003535       0.85397851       0.49977802 </v>
    <v>       0.71391322       0.99776144       0.50984044 </v>
    <v>       0.71478607       0.14202059       0.51100454 </v>
    <v>       0.71527114       0.28578592       0.51073022 </v>
    <v>       0.71561820       0.42950014       0.50439753 </v>
    <v>       0.72287074       0.57797684       0.52661053 </v>
    <v>       0.71442541       0.85424188       0.51086216 </v>
    <v>       0.85753787       0.99934337       0.51085301 </v>
    <v>       0.85721105       0.14218986       0.51138961 </v>
    <v>       0.85769223       0.28555967       0.51163673 </v>
    <v>       0.85824131       0.42909433       0.51025573 </v>
    <v>       0.85909940       0.57304835       0.50386664 </v>
    <v>       0.86144873       0.71681332       0.50674266 </v>
    <v>       0.85950615       0.85747669       0.50876024 </v>
    <v>       0.04851289       0.09584586       0.50259972 </v>
    <v>       0.04767040       0.23814301       0.50348220 </v>
    <v>       0.04811970       0.38128505       0.50260167 </v>
    <v>       0.04874374       0.52418970       0.50099045 </v>
    <v>       0.04907203       0.66730944       0.49668025 </v>
    <v>       0.04964654       0.81057435       0.49565972 </v>
    <v>       0.04940119       0.95359214       0.49786406 </v>
    <v>       0.19146573       0.09609280       0.49166770 </v>
    <v>       0.19044076       0.23879346       0.49395242 </v>
    <v>       0.18964390       0.38094909       0.48663595 </v>
    <v>       0.19181723       0.52468253       0.48927206 </v>
    <v>       0.19128297       0.66719364       0.49150063 </v>
    <v>       0.19168980       0.81027406       0.49178615 </v>
    <v>       0.19193187       0.95327347       0.49143874 </v>
    <v>       0.33437371       0.09580088       0.49183960 </v>
    <v>       0.33400915       0.23859304       0.49353761 </v>
    <v>       0.32589668       0.37640317       0.45891401 </v>
    <v>       0.32636513       0.52169446       0.45125416 </v>
    <v>       0.33685180       0.67076950       0.48094632 </v>
    <v>       0.33377629       0.81016662       0.49072965 </v>
    <v>       0.33434580       0.95299221       0.49217717 </v>
    <v>       0.47733424       0.09531455       0.49757786 </v>
    <v>       0.47674451       0.23795793       0.50054037 </v>
    <v>       0.47252795       0.80548248       0.49217956 </v>
    <v>       0.47687338       0.95217204       0.49758219 </v>
    <v>       0.61944874       0.09428916       0.50775180 </v>
    <v>       0.62017264       0.23794317       0.50803572 </v>
    <v>       0.62435760       0.37845481       0.48549157 </v>
    <v>       0.62096215       0.81077603       0.50231375 </v>
    <v>       0.61844697       0.94990535       0.50517020 </v>
    <v>       0.76190433       0.09385725       0.51132592 </v>
    <v>       0.76257067       0.23758898       0.51180252 </v>
    <v>       0.76289134       0.38129384       0.51141745 </v>
    <v>       0.76336795       0.52658326       0.50976313 </v>
    <v>       0.76730843       0.67275119       0.51953091 </v>
    <v>       0.76376445       0.80556656       0.51498160 </v>
    <v>       0.76193163       0.95028238       0.51141264 </v>
    <v>       0.90493391       0.09458102       0.51011273 </v>
    <v>       0.90502108       0.23774612       0.51048981 </v>
    <v>       0.90542872       0.38120579       0.50998634 </v>
    <v>       0.90591704       0.52457964       0.50412324 </v>
    <v>       0.90736270       0.66801890       0.50234281 </v>
    <v>       0.90810885       0.81134182       0.50447460 </v>
    <v>       0.90596653       0.95247729       0.50751658 </v>
    <v>       0.46474214       0.36172417       0.55053782 </v>
    <v>       0.40975823       0.41552224       0.42595639 </v>
    <v>       0.40700942       0.56230064       0.41269981 </v>
    <v>       0.63712117       0.53733120       0.55428190 </v>
    <v>       0.58478394       0.41897549       0.44355570 </v>
    <v>       0.57700814       0.72151363       0.49335050 </v>
    <v>       0.42648080       0.71555840       0.48409066 </v>
    <v>       0.72045791       0.71638494       0.52426290 </v>
    <v>       0.52622082       0.60347511       0.56034375 </v>
    <v>       0.49904942       0.50587824       0.54541433 </v>
    <v>       0.47676545       0.54306880       0.56977595 </v>
   </varray>
  </structure>
  <varray name="primitive_index" >
   <v type="int" >        1 </v>
   <v type="int" >        2 </v>
   <v type="int" >        3 </v>
   <v type="int" >        4 </v>
   <v type="int" >        5 </v>
   <v type="int" >        6 </v>
   <v type="int" >        7 </v>
   <v type="int" >        8 </v>
   <v type="int" >        9 </v>
   <v type="int" >       10 </v>
   <v type="int" >       11 </v>
   <v type="int" >       12 </v>
   <v type="int" >       13 </v>
   <v type="int" >       14 </v>
   <v type="int" >       15 </v>
   <v type="int" >       16 </v>
   <v type="int" >       17 </v>
   <v type="int" >       18 </v>
   <v type="int" >       19 </v>
   <v type="int" >       20 </v>
   <v type="int" >       21 </v>
   <v type="int" >       22 </v>
   <v type="int" >       23 </v>
   <v type="int" >       24 </v>
   <v type="int" >       25 </v>
   <v type="int" >       26 </v>
   <v type="int" >       27 </v>
   <v type="int" >       28 </v>
   <v type="int" >       29 </v>
   <v type="int" >       30 </v>
   <v type="int" >       31 </v>
   <v type="int" >       32 </v>
   <v type="int" >       33 </v>
   <v type="int" >       34 </v>
   <v type="int" >       35 </v>
   <v type="int" >       36 </v>
   <v type="int" >       37 </v>
   <v type="int" >       38 </v>
   <v type="int" >       39 </v>
   <v type="int" >       40 </v>
   <v type="int" >       41 </v>
   <v type="int" >       42 </v>
   <v type="int" >       43 </v>
   <v type="int" >       44 </v>
   <v type="int" >       45 </v>
   <v type="int" >       46 </v>
   <v type="int" >       47 </v>
   <v type="int" >       48 </v>
   <v type="int" >       49 </v>
   <v type="int" >       50 </v>
   <v type="int" >       51 </v>
   <v type="int" >       52 </v>
   <v type="int" >       53 </v>
   <v type="int" >       54 </v>
   <v type="int" >       55 </v>
   <v type="int" >       56 </v>
   <v type="int" >       57 </v>
   <v type="int" >       58 </v>
   <v type="int" >       59 </v>
   <v type="int" >       60 </v>
   <v type="int" >       61 </v>
   <v type="int" >       62 </v>
   <v type="int" >       63 </v>
   <v type="int" >       64 </v>
   <v type="int" >       65 </v>
   <v type="int" >       66 </v>
   <v type="int" >       67 </v>
   <v type="int" >       68 </v>
   <v type="int" >       69 </v>
   <v type="int" >       70 </v>
   <v type="int" >       71 </v>
   <v type="int" >       72 </v>
   <v type="int" >       73 </v>
   <v type="int" >       74 </v>
   <v type="int" >       75 </v>
   <v type="int" >       76 </v>
   <v type="int" >       77 </v>
   <v type="int" >       78 </v>
   <v type="int" >       79 </v>
   <v type="int" >       80 </v>
   <v type="int" >       81 </v>
   <v type="int" >       82 </v>
   <v type="int" >       83 </v>
   <v type="int" >       84 </v>
   <v type="int" >       85 </v>
   <v type="int" >       86 </v>
   <v type="int" >       87 </v>
   <v type="int" >       88 </v>
   <v type="int" >       89 </v>
   <v type="int" >       90 </v>
   <v type="int" >       91 </v>
   <v type="int" >       92 </v>
   <v type="int" >       93 </v>
   <v type="int" >       94 </v>
   <v type="int" >       95 </v>
   <v type="int" >       96 </v>
   <v type="int" >       97 </v>
  </varray>
 </primitive_cell>
 <kpoints>
  <generation param="Gamma">
   <v type="int" name="divisions">       2        2        1 </v>
   <v name="usershift">      0.00000000       0.00000000       0.00000000 </v>
   <v name="genvec1">      0.50000000       0.00000000       0.00000000 </v>
   <v name="genvec2">      0.00000000       0.50000000       0.00000000 </v>
   <v name="genvec3">      0.00000000       0.00000000       1.00000000 </v>
   <v name="shift">      0.00000000       0.00000000       0.00000000 </v>
  </generation>
  <varray name="kpointlist" >
   <v>       0.00000000       0.00000000       0.00000000 </v>
   <v>       0.50000000       0.00000000       0.00000000 </v>
   <v>       0.00000000       0.50000000       0.00000000 </v>
   <v>       0.50000000       0.50000000       0.00000000 </v>
  </varray>
  <varray name="weights" >
   <v>       0.25000000 </v>
   <v>       0.25000000 </v>
   <v>       0.25000000 </v>
   <v>       0.25000000 </v>
  </varray>
 </kpoints>
 <parameters>
  <separator name="general" >
   <i type="string" name="SYSTEM">unknown system</i>
   <i type="logical" name="LCOMPAT"> F  </i>
  </separator>
  <separator name="electronic" >
   <i type="string" name="PREC">normal</i>
   <i name="ENMAX">    520.00000000</i>
   <i name="ENAUG">    644.87300000</i>
   <i name="EDIFF">      0.00000100</i>
   <i type="int" name="IALGO">    38</i>
   <i type="int" name="IWAVPR">    11</i>
   <i type="int" name="NBANDS">   280</i>
   <i type="int" name="NBANDSLOW">    -1</i>
   <i type="int" name="NBANDSHIGH">    -1</i>
   <i name="NELECT">    404.00000000</i>
   <i type="int" name="TURBO">     0</i>
   <i type="int" name="IRESTART">     0</i>
   <i type="int" name="NREBOOT">     0</i>
   <i type="int" name="NMIN">     0</i>
   <i name="EREF">      0.00000000</i>
   <separator name="electronic smearing" >
    <i type="int" name="ISMEAR">     0</i>
    <i name="SIGMA">      0.05000000</i>
    <i name="KSPACING">      0.50000000</i>
    <i type="logical" name="KGAMMA"> T  </i>
    <i type="logical" name="KBLOWUP"> T  </i>
   </separator>
   <separator name="electronic projectors" >
    <i type="logical" name="LREAL"> T  </i>
    <v name="ROPT">     -0.00050000     -0.00050000     -0.00050000     -0.00050000     -0.00050000</v>
    <i type="int" name="LMAXPAW">  -100</i>
    <i type="int" name="LMAXMIX">     2</i>
    <i type="logical" name="NLSPLINE"> F  </i>
   </separator>
   <separator name="electronic startup" >
    <i type="int" name="ISTART">     0</i>
    <i type="int" name="ICHARG">     2</i>
    <i type="int" name="INIWAV">     1</i>
   </separator>
   <separator name="electronic spin" >
    <i type="int" name="ISPIN">     2</i>
    <i type="logical" name="LNONCOLLINEAR"> F  </i>
    <v name="MAGMOM">      0.60000000      0.60000000      0.60000000      0.60000000      0.60000000      0.60000000      0.60000000      0.60000000      0.60000000      0.60000000      0.60000000      0.60000000      0.60000000      0.60000000      0.60000000      0.60000000      0.60000000      0.60000000      0.60000000      0.60000000
      0.60000000      0.60000000      0.60000000      0.60000000      0.60000000      0.60000000      0.60000000      0.60000000      0.60000000      0.60000000      0.60000000      0.60000000      0.60000000      0.60000000      0.60000000      0.60000000      0.60000000      0.60000000      0.60000000      0.60000000
      0.60000000      0.60000000      0.60000000      0.60000000      0.60000000      0.60000000      0.60000000      0.60000000      0.60000000      0.60000000      0.60000000      0.60000000      0.60000000      0.60000000      0.60000000      0.60000000      0.60000000      0.60000000      0.60000000      0.60000000
      0.60000000      0.60000000      0.60000000      0.60000000      0.60000000      0.60000000      0.60000000      0.60000000      0.60000000      0.60000000      0.60000000      0.60000000      0.60000000      0.60000000      0.60000000      0.60000000      0.60000000      0.60000000      0.60000000      0.60000000
      0.60000000      0.60000000      0.60000000      0.60000000      0.60000000      0.60000000      0.60000000      0.60000000      0.60000000      0.60000000      0.60000000      0.60000000      0.60000000      0.60000000      0.60000000      0.60000000      0.60000000</v>
    <i name="NUPDOWN">     -1.00000000</i>
    <i type="logical" name="LSORBIT"> F  </i>
    <v name="SAXIS">      0.00000000      0.00000000      1.00000000</v>
    <i type="logical" name="LSPIRAL"> F  </i>
    <v name="QSPIRAL">      0.00000000      0.00000000      0.00000000</v>
    <i type="logical" name="LZEROZ"> F  </i>
   </separator>
   <separator name="electronic exchange-correlation" >
    <i type="logical" name="LASPH"> T  </i>
    <i type="logical" name="LMETAGGA"> F  </i>
   </separator>
   <separator name="electronic convergence" >
    <i type="int" name="NELM">   200</i>
    <i type="int" name="NELMDL">    -5</i>
    <i type="int" name="NELMIN">     2</i>
    <i name="ENINI">    520.00000000</i>
    <separator name="electronic convergence detail" >
     <i type="logical" name="LDIAG"> T  </i>
     <i type="logical" name="LSUBROT"> F  </i>
     <i name="WEIMIN">      0.00100000</i>
     <i name="EBREAK">      0.00000000</i>
     <i name="DEPER">      0.30000000</i>
     <i type="int" name="NRMM">     4</i>
     <i name="TIME">      0.40000000</i>
    </separator>
   </separator>
   <separator name="electronic mixer" >
    <i name="AMIX">      0.20000000</i>
    <i name="BMIX">      0.00010000</i>
    <i name="AMIN">      0.10000000</i>
    <i name="AMIX_MAG">      0.80000000</i>
    <i name="BMIX_MAG">      0.00010000</i>
    <separator name="electronic mixer details" >
     <i type="int" name="IMIX">     4</i>
     <i type="logical" name="MIXFIRST"> F  </i>
     <i type="int" name="MAXMIX">   -45</i>
     <i name="WC">    100.00000000</i>
     <i type="int" name="INIMIX">     1</i>
     <i type="int" name="MIXPRE">     1</i>
     <i type="int" name="MREMOVE">     5</i>
    </separator>
   </separator>
   <separator name="electronic dipolcorrection" >
    <i type="logical" name="LDIPOL"> F  </i>
    <i type="logical" name="LMONO"> F  </i>
    <i type="int" name="IDIPOL">     0</i>
    <i name="EPSILON">      1.00000000</i>
    <v name="DIPOL">   -100.00000000   -100.00000000   -100.00000000</v>
    <i name="EFIELD">      0.00000000</i>
   </separator>
  </separator>
  <separator name="grids" >
   <i type="int" name="NGX">    96</i>
   <i type="int" name="NGY">    96</i>
   <i type="int" name="NGZ">    84</i>
   <i type="int" name="NGXF">   192</i>
   <i type="int" name="NGYF">   192</i>
   <i type="int" name="NGZF">   168</i>
   <i type="logical" name="ADDGRID"> T  </i>
  </separator>
  <separator name="ionic" >
   <i type="int" name="NSW">   300</i>
   <i type="int" name="IBRION">     3</i>
   <i type="int" name="MDALGO">     0</i>
   <i type="int" name="ISIF">     2</i>
   <i name="PSTRESS">      0.00000000</i>
   <i name="EDIFFG">     -0.03000000</i>
   <i type="int" name="NFREE">     0</i>
   <i name="POTIM">      0.05000000</i>
   <i name="SMASS">     -3.00000000</i>
   <i name="SCALEE">      1.00000000</i>
  </separator>
  <separator name="ionic md" >
   <i name="TEBEG">      0.00010000</i>
   <i name="TEEND">      0.00010000</i>
   <i type="int" name="NBLOCK">     1</i>
   <i type="int" name="KBLOCK">   300</i>
   <i type="int" name="NPACO">   256</i>
   <i name="APACO">     10.00000000</i>
  </separator>
  <separator name="symmetry" >
   <i type="int" name="ISYM">     0</i>
   <i name="SYMPREC">      0.00001000</i>
  </separator>
  <separator name="dos" >
   <i type="int" name="LORBIT">     0</i>
   <v name="RWIGS">     -1.00000000     -1.00000000     -1.00000000     -1.00000000     -1.00000000</v>
   <i type="int" name="NEDOS">   301</i>
   <i name="EMIN">     10.00000000</i>
   <i name="EMAX">    -10.00000000</i>
   <i name="EFERMI">      0.00000000</i>
  </separator>
  <separator name="writing" >
   <i type="int" name="NWRITE">     2</i>
   <i type="logical" name="LWAVE"> F  </i>
   <i type="logical" name="LDOWNSAMPLE"> F  </i>
   <i type="logical" name="LCHARG"> F  </i>
   <i type="logical" name="LPARD"> F  </i>
   <i type="logical" name="LVTOT"> F  </i>
   <i type="logical" name="LVHAR"> F  </i>
   <i type="logical" name="LELF"> F  </i>
   <i type="logical" name="LOPTICS"> F  </i>
   <v name="STM">      0.00000000      0.00000000      0.00000000      0.00000000      0.00000000      0.00000000      0.00000000</v>
  </separator>
  <separator name="performance" >
   <i type="int" name="NPAR">     5</i>
   <i type="int" name="NSIM">     4</i>
   <i type="int" name="NBLK">    -1</i>
   <i type="logical" name="LPLANE"> T  </i>
   <i type="logical" name="LSCALAPACK"> T  </i>
   <i type="logical" name="LSCAAWARE"> F  </i>
   <i type="logical" name="LSCALU"> F  </i>
   <i type="logical" name="LASYNC"> F  </i>
   <i type="logical" name="LORBITALREAL"> F  </i>
  </separator>
  <separator name="miscellaneous" >
   <i type="int" name="IDIOT">     3</i>
   <i type="int" name="PHON_NSTRUCT">    -1</i>
   <i type="logical" name="LMUSIC"> F  </i>
   <v name="POMASS">     12.01100000     18.99800000     14.00100000      1.00000000     16.00000000</v>
   <v name="DARWINR">      0.00000000      0.00000000      0.00000000      0.00000000      0.00000000</v>
   <v name="DARWINV">      1.00000000      1.00000000      1.00000000      1.00000000      1.00000000</v>
   <i type="logical" name="LCORR"> T  </i>
  </separator>
  <i type="logical" name="GGA_COMPAT"> T  </i>
  <i type="logical" name="LBERRY"> F  </i>
  <i type="int" name="ICORELEVEL">     0</i>
  <i type="logical" name="LDAU"> F  </i>
  <i type="int" name="I_CONSTRAINED_M">     0</i>
  <separator name="electronic exchange-correlation" >
   <i type="string" name="GGA">--</i>
   <i type="int" name="VOSKOWN">     0</i>
   <i type="logical" name="LHFCALC"> F  </i>
   <i type="string" name="PRECFOCK"></i>
   <i type="logical" name="LSYMGRAD"> F  </i>
   <i type="logical" name="LHFONE"> F  </i>
   <i type="logical" name="LRHFCALC"> F  </i>
   <i type="logical" name="LTHOMAS"> F  </i>
   <i type="logical" name="LMODELHF"> F  </i>
   <i type="logical" name="LFOCKACE"> F  </i>
   <i name="ENCUT4O">     -1.00000000</i>
   <i type="int" name="EXXOEP">     0</i>
   <i type="int" name="FOURORBIT">     0</i>
   <i name="AEXX">      0.00000000</i>
   <i name="HFALPHA">      0.00000000</i>
   <i name="MCALPHA">      0.00000000</i>
   <i name="ALDAX">      1.00000000</i>
   <i name="AGGAX">      1.00000000</i>
   <i name="ALDAC">      1.00000000</i>
   <i name="AGGAC">      1.00000000</i>
   <i type="int" name="NKREDX">     1</i>
   <i type="int" name="NKREDY">     1</i>
   <i type="int" name="NKREDZ">     1</i>
   <i type="logical" name="SHIFTRED"> F  </i>
   <i type="logical" name="ODDONLY"> F  </i>
   <i type="logical" name="EVENONLY"> F  </i>
   <i type="int" name="LMAXFOCK">     0</i>
   <i type="int" name="NMAXFOCKAE">     0</i>
   <i type="logical" name="LFOCKAEDFT"> F  </i>
   <i name="HFSCREEN">      0.00000000</i>
   <i name="HFSCREENC">      0.00000000</i>
   <i type="int" name="NBANDSGWLOW">     0</i>
  </separator>
  <separator name="vdW DFT" >
   <i type="logical" name="LUSE_VDW"> F  </i>
   <i type="int" name="IVDW_NL">     1</i>
   <i type="logical" name="LSPIN_VDW"> F  </i>
   <i name="Zab_VDW">     -0.84910000</i>
   <i name="PARAM1">      0.12340000</i>
   <i name="PARAM2">      1.00000000</i>
   <i name="PARAM3">      0.00000000</i>
  </separator>
  <separator name="model GW" >
   <i type="int" name="MODEL_GW">     0</i>
   <i name="MODEL_EPS0">     23.96835834</i>
   <i name="MODEL_ALPHA">      1.00000000</i>
  </separator>
  <separator name="linear response parameters" >
   <i type="logical" name="LEPSILON"> F  </i>
   <i type="logical" name="LRPA"> F  </i>
   <i type="logical" name="LNABLA"> F  </i>
   <i type="logical" name="LVEL"> F  </i>
   <i name="CSHIFT">      0.10000000</i>
   <i name="OMEGAMAX">     -1.00000000</i>
   <i name="DEG_THRESHOLD">      0.00200000</i>
   <i name="RTIME">     -0.10000000</i>
   <i name="WPLASMAI">      0.00000000</i>
   <v name="DFIELD">      0.00000000      0.00000000      0.00000000</v>
   <v name="WPLASMA">      0.00000000      0.00000000      0.00000000      0.00000000      0.00000000      0.00000000      0.00000000      0.00000000      0.00000000</v>
  </separator>
  <separator name="orbital magnetization" >
   <i type="logical" name="NUCIND"> F  </i>
   <v name="MAGPOS">      0.00000000      0.00000000      0.00000000</v>
   <i type="logical" name="LNICSALL"> T  </i>
   <i type="logical" name="ORBITALMAG"> F  </i>
   <i type="logical" name="LMAGBLOCH"> F  </i>
   <i type="logical" name="LCHIMAG"> F  </i>
   <i type="logical" name="LGAUGE"> T  </i>
   <i type="int" name="MAGATOM">     0</i>
   <v name="MAGDIPOL">      0.00000000      0.00000000      0.00000000</v>
   <v name="AVECCONST">      0.00000000      0.00000000      0.00000000</v>
  </separator>
  <separator name="response functions" >
   <i type="logical" name="LALL_IN_ONE"> F  </i>
   <i type="int" name="IALL_IN_ONE">    -1</i>
   <i type="int" name="NBANDS_WAVE">    -1</i>
   <i type="logical" name="LFINITE_TEMPERATURE"> F  </i>
   <i type="logical" name="LADDER"> F  </i>
   <i type="logical" name="LRPAFORCE"> F  </i>
   <i type="logical" name="LFXC"> F  </i>
   <i type="logical" name="LHARTREE"> T  </i>
   <i type="int" name="IBSE">     0</i>
   <v type="int" name="KPOINT">    -1     0     0     0</v>
   <i type="logical" name="LTCTC"> F  </i>
   <i type="logical" name="LTCTE"> F  </i>
   <i type="logical" name="LTETE"> F  </i>
   <i type="logical" name="LTRIPLET"> F  </i>
   <i type="logical" name="LFXCEPS"> F  </i>
   <i type="logical" name="LFXHEG"> F  </i>
   <i type="int" name="NATURALO">     2</i>
   <i type="logical" name="LHOLEGF"> F  </i>
   <i type="logical" name="L2ORDER"> F  </i>
   <i type="logical" name="LDMP1"> F  </i>
   <i type="logical" name="LMP2LT"> F  </i>
   <i type="logical" name="LSMP2LT"> F  </i>
   <i type="logical" name="LGWLF"> F  </i>
   <i name="ENCUTGW">     -1.60000002</i>
   <i name="ENCUTGWSOFT">     -1.60000002</i>
   <i name="ENCUTLF">     -1.00000000</i>
   <i type="logical" name="LESF_SPLINES"> F  </i>
   <i type="int" name="LMAXMP2">    -1</i>
   <i name="SCISSOR">      0.00000000</i>
   <i type="int" name="NOMEGA">     0</i>
   <i type="int" name="NOMEGAR">     0</i>
   <i type="int" name="NBANDSGW">    -1</i>
   <i type="int" name="NBANDSO">    -1</i>
   <i type="int" name="NBANDSV">    -1</i>
   <i type="int" name="NELMGW">     1</i>
   <i type="int" name="NELMHF">     1</i>
   <i type="int" name="DIM">     3</i>
   <i type="int" name="IESPILON">     4</i>
   <i type="int" name="ANTIRES">     0</i>
   <i name="OMEGAMAX">    -30.00000000</i>
   <i name="OMEGAMIN">    -30.00000000</i>
   <i name="OMEGATL">   -200.00000000</i>
   <i type="int" name="OMEGAGRID">     0</i>
   <i name="CSHIFT">     -0.10000000</i>
   <i type="logical" name="LSELFENERGY"> F  </i>
   <i type="logical" name="LSPECTRAL"> F  </i>
   <i type="logical" name="LSPECTRALGW"> F  </i>
   <i type="logical" name="LSINGLES"> F  </i>
   <i type="logical" name="LFERMIGW"> F  </i>
   <i type="logical" name="ODDONLYGW"> F  </i>
   <i type="logical" name="EVENONLYGW"> F  </i>
   <i type="int" name="NKREDLFX">     1</i>
   <i type="int" name="NKREDLFY">     1</i>
   <i type="int" name="NKREDLFZ">     1</i>
   <i type="int" name="MAXMEM">  2800</i>
   <i type="int" name="TELESCOPE">     0</i>
   <i type="int" name="NTAUPAR">    -1</i>
   <i type="int" name="NOMEGAPAR">    -1</i>
   <i name="DAMP_NEWTON">      0.80000001</i>
   <i name="LAMBDA">      1.00000000</i>
  </separator>
  <separator name="External order field" >
   <i name="OFIELD_KAPPA">      0.00000000</i>
   <v name="OFIELD_K">      0.00000000      0.00000000      0.00000000</v>
   <i name="OFIELD_Q6_NEAR">      0.00000000</i>
   <i name="OFIELD_Q6_FAR">      0.00000000</i>
   <i name="OFIELD_A">      0.00000000</i>
  </separator>
  <separator name="optional k-points parameters" >
   <i type="int" name="KPOINTS_OPT_MODE">     1</i>
   <i type="logical" name="LKPOINTS_OPT"> F  </i>
  </separator>
 </parameters>
 <atominfo>
  <atoms>      97 </atoms>
  <types>       5 </types>
  <array name="atoms" >
   <dimension dim="1">ion</dimension>
   <field type="string">element</field>
   <field type="int">atomtype</field>
   <set>
    <rc><c>C </c><c>   1</c></rc>
    <rc><c>C </c><c>   1</c></rc>
    <rc><c>C </c><c>   1</c></rc>
    <rc><c>C </c><c>   1</c></rc>
    <rc><c>C </c><c>   1</c></rc>
    <rc><c>C </c><c>   1</c></rc>
    <rc><c>C </c><c>   1</c></rc>
    <rc><c>C </c><c>   1</c></rc>
    <rc><c>C </c><c>   1</c></rc>
    <rc><c>C </c><c>   1</c></rc>
    <rc><c>C </c><c>   1</c></rc>
    <rc><c>C </c><c>   1</c></rc>
    <rc><c>C </c><c>   1</c></rc>
    <rc><c>C </c><c>   1</c></rc>
    <rc><c>C </c><c>   1</c></rc>
    <rc><c>C </c><c>   1</c></rc>
    <rc><c>C </c><c>   1</c></rc>
    <rc><c>C </c><c>   1</c></rc>
    <rc><c>C </c><c>   1</c></rc>
    <rc><c>C </c><c>   1</c></rc>
    <rc><c>C </c><c>   1</c></rc>
    <rc><c>C </c><c>   1</c></rc>
    <rc><c>C </c><c>   1</c></rc>
    <rc><c>C </c><c>   1</c></rc>
    <rc><c>C </c><c>   1</c></rc>
    <rc><c>C </c><c>   1</c></rc>
    <rc><c>C </c><c>   1</c></rc>
    <rc><c>C </c><c>   1</c></rc>
    <rc><c>C </c><c>   1</c></rc>
    <rc><c>C </c><c>   1</c></rc>
    <rc><c>C </c><c>   1</c></rc>
    <rc><c>C </c><c>   1</c></rc>
    <rc><c>C </c><c>   1</c></rc>
    <rc><c>C </c><c>   1</c></rc>
    <rc><c>C </c><c>   1</c></rc>
    <rc><c>C </c><c>   1</c></rc>
    <rc><c>C </c><c>   1</c></rc>
    <rc><c>C </c><c>   1</c></rc>
    <rc><c>C </c><c>   1</c></rc>
    <rc><c>C </c><c>   1</c></rc>
    <rc><c>C </c><c>   1</c></rc>
    <rc><c>C </c><c>   1</c></rc>
    <rc><c>C </c><c>   1</c></rc>
    <rc><c>C </c><c>   1</c></rc>
    <rc><c>C </c><c>   1</c></rc>
    <rc><c>C </c><c>   1</c></rc>
    <rc><c>C </c><c>   1</c></rc>
    <rc><c>C </c><c>   1</c></rc>
    <rc><c>C </c><c>   1</c></rc>
    <rc><c>C </c><c>   1</c></rc>
    <rc><c>C </c><c>   1</c></rc>
    <rc><c>C </c><c>   1</c></rc>
    <rc><c>C </c><c>   1</c></rc>
    <rc><c>C </c><c>   1</c></rc>
    <rc><c>C </c><c>   1</c></rc>
    <rc><c>C </c><c>   1</c></rc>
    <rc><c>C </c><c>   1</c></rc>
    <rc><c>C </c><c>   1</c></rc>
    <rc><c>C </c><c>   1</c></rc>
    <rc><c>C </c><c>   1</c></rc>
    <rc><c>C </c><c>   1</c></rc>
    <rc><c>C </c><c>   1</c></rc>
    <rc><c>C </c><c>   1</c></rc>
    <rc><c>C </c><c>   1</c></rc>
    <rc><c>C </c><c>   1</c></rc>
    <rc><c>C </c><c>   1</c></rc>
    <rc><c>C </c><c>   1</c></rc>
    <rc><c>C </c><c>   1</c></rc>
    <rc><c>C </c><c>   1</c></rc>
    <rc><c>C </c><c>   1</c></rc>
    <rc><c>C </c><c>   1</c></rc>
    <rc><c>C </c><c>   1</c></rc>
    <rc><c>C </c><c>   1</c></rc>
    <rc><c>C </c><c>   1</c></rc>
    <rc><c>C </c><c>   1</c></rc>
    <rc><c>C </c><c>   1</c></rc>
    <rc><c>C </c><c>   1</c></rc>
    <rc><c>C </c><c>   1</c></rc>
    <rc><c>C </c><c>   1</c></rc>
    <rc><c>C </c><c>   1</c></rc>
    <rc><c>C </c><c>   1</c></rc>
    <rc><c>C </c><c>   1</c></rc>
    <rc><c>C </c><c>   1</c></rc>
    <rc><c>C </c><c>   1</c></rc>
    <rc><c>C </c><c>   1</c></rc>
    <rc><c>C </c><c>   1</c></rc>
    <rc><c>F </c><c>   2</c></rc>
    <rc><c>F </c><c>   2</c></rc>
    <rc><c>F </c><c>   2</c></rc>
    <rc><c>F </c><c>   2</c></rc>
    <rc><c>F </c><c>   2</c></rc>
    <rc><c>F </c><c>   2</c></rc>
    <rc><c>N </c><c>   3</c></rc>
    <rc><c>N </c><c>   3</c></rc>
    <rc><c>H </c><c>   4</c></rc>
    <rc><c>H </c><c>   4</c></rc>
    <rc><c>O </c><c>   5</c></rc>
   </set>
  </array>
  <array name="atomtypes" >
   <dimension dim="1">type</dimension>
   <field type="int">atomspertype</field>
   <field type="string">element</field>
   <field>mass</field>
   <field>valence</field>
   <field type="string">pseudopotential</field>
   <set>
    <rc><c>  86</c><c>C </c><c>     12.01100000</c><c>      4.00000000</c><c>  PAW_PBE C 08Apr2002                   </c></rc>
    <rc><c>   6</c><c>F </c><c>     18.99800000</c><c>      7.00000000</c><c>  PAW_PBE F 08Apr2002                   </c></rc>
    <rc><c>   2</c><c>N </c><c>     14.00100000</c><c>      5.00000000</c><c>  PAW_PBE N 08Apr2002                   </c></rc>
    <rc><c>   2</c><c>H </c><c>      1.00000000</c><c>      1.00000000</c><c>  PAW_PBE H 15Jun2001                   </c></rc>
    <rc><c>   1</c><c>O </c><c>     16.00000000</c><c>      6.00000000</c><c>  PAW_PBE O 08Apr2002                   </c></rc>
   </set>
  </array>
 </atominfo>
 <structure name="initialpos" >
  <crystal>
   <varray name="basis" >
    <v>      17.27103806       0.00000000       0.00000000 </v>
    <v>      -8.63551903      14.95715771       0.00000000 </v>
    <v>       0.00000000       0.00000000      15.00000000 </v>
   </varray>
   <i name="volume">   3874.88459904 </i>
   <varray name="rec_basis" >
    <v>       0.05790040       0.03342881      -0.00000000 </v>
    <v>       0.00000000       0.06685762       0.00000000 </v>
    <v>       0.00000000      -0.00000000       0.06666667 </v>
   </varray>
  </crystal>
  <varray name="positions" >
   <v>       0.00117340       0.00057767       0.50271582 </v>
   <v>       0.00039227       0.14294780       0.50635748 </v>
   <v>       0.00034272       0.28586141       0.50614702 </v>
   <v>       0.00073286       0.42889378       0.50522291 </v>
   <v>       0.00117881       0.57199239       0.50054883 </v>
   <v>       0.00228300       0.71539451       0.49775389 </v>
   <v>       0.00281117       0.85877121       0.49874037 </v>
   <v>       0.14446231       0.00124317       0.49305774 </v>
   <v>       0.14358707       0.14366052       0.49720407 </v>
   <v>       0.14275309       0.28607765       0.49524956 </v>
   <v>       0.14332781       0.42929358       0.49332332 </v>
   <v>       0.14394646       0.57186538       0.49497496 </v>
   <v>       0.14411821       0.71486158       0.49329455 </v>
   <v>       0.14453047       0.85811799       0.49240326 </v>
   <v>       0.28687410       0.00061052       0.49141413 </v>
   <v>       0.28671738       0.14333630       0.48959537 </v>
   <v>       0.28571476       0.28679214       0.48466205 </v>
   <v>       0.28272280       0.42753660       0.46403445 </v>
   <v>       0.28700920       0.57278314       0.47422835 </v>
   <v>       0.28634099       0.71532551       0.48779010 </v>
   <v>       0.28652827       0.85804619       0.49147735 </v>
   <v>       0.42969085       0.00020951       0.49523845 </v>
   <v>       0.42944356       0.14292899       0.49454892 </v>
   <v>       0.42531228       0.27970662       0.51210867 </v>
   <v>       0.42854939       0.85688388       0.49336542 </v>
   <v>       0.57176058       0.99892130       0.50365779 </v>
   <v>       0.57217840       0.14236528       0.50574306 </v>
   <v>       0.57294694       0.28571188       0.50008672 </v>
   <v>       0.57003535       0.85397851       0.49977802 </v>
   <v>       0.71391322       0.99776144       0.50984044 </v>
   <v>       0.71478607       0.14202059       0.51100454 </v>
   <v>       0.71527114       0.28578592       0.51073022 </v>
   <v>       0.71561820       0.42950014       0.50439753 </v>
   <v>       0.72287074       0.57797684       0.52661053 </v>
   <v>       0.71442541       0.85424188       0.51086216 </v>
   <v>       0.85753787       0.99934337       0.51085301 </v>
   <v>       0.85721105       0.14218986       0.51138961 </v>
   <v>       0.85769223       0.28555967       0.51163673 </v>
   <v>       0.85824131       0.42909433       0.51025573 </v>
   <v>       0.85909940       0.57304835       0.50386664 </v>
   <v>       0.86144873       0.71681332       0.50674266 </v>
   <v>       0.85950615       0.85747669       0.50876024 </v>
   <v>       0.04851289       0.09584586       0.50259972 </v>
   <v>       0.04767040       0.23814301       0.50348220 </v>
   <v>       0.04811970       0.38128505       0.50260167 </v>
   <v>       0.04874374       0.52418970       0.50099045 </v>
   <v>       0.04907203       0.66730944       0.49668025 </v>
   <v>       0.04964654       0.81057435       0.49565972 </v>
   <v>       0.04940119       0.95359214       0.49786406 </v>
   <v>       0.19146573       0.09609280       0.49166770 </v>
   <v>       0.19044076       0.23879346       0.49395242 </v>
   <v>       0.18964390       0.38094909       0.48663595 </v>
   <v>       0.19181723       0.52468253       0.48927206 </v>
   <v>       0.19128297       0.66719364       0.49150063 </v>
   <v>       0.19168980       0.81027406       0.49178615 </v>
   <v>       0.19193187       0.95327347       0.49143874 </v>
   <v>       0.33437371       0.09580088       0.49183960 </v>
   <v>       0.33400915       0.23859304       0.49353761 </v>
   <v>       0.32589668       0.37640317       0.45891401 </v>
   <v>       0.32636513       0.52169446       0.45125416 </v>
   <v>       0.33685180       0.67076950       0.48094632 </v>
   <v>       0.33377629       0.81016662       0.49072965 </v>
   <v>       0.33434580       0.95299221       0.49217717 </v>
   <v>       0.47733424       0.09531455       0.49757786 </v>
   <v>       0.47674451       0.23795793       0.50054037 </v>
   <v>       0.47252795       0.80548248       0.49217956 </v>
   <v>       0.47687338       0.95217204       0.49758219 </v>
   <v>       0.61944874       0.09428916       0.50775180 </v>
   <v>       0.62017264       0.23794317       0.50803572 </v>
   <v>       0.62435760       0.37845481       0.48549157 </v>
   <v>       0.62096215       0.81077603       0.50231375 </v>
   <v>       0.61844697       0.94990535       0.50517020 </v>
   <v>       0.76190433       0.09385725       0.51132592 </v>
   <v>       0.76257067       0.23758898       0.51180252 </v>
   <v>       0.76289134       0.38129384       0.51141745 </v>
   <v>       0.76336795       0.52658326       0.50976313 </v>
   <v>       0.76730843       0.67275119       0.51953091 </v>
   <v>       0.76376445       0.80556656       0.51498160 </v>
   <v>       0.76193163       0.95028238       0.51141264 </v>
   <v>       0.90493391       0.09458102       0.51011273 </v>
   <v>       0.90502108       0.23774612       0.51048981 </v>
   <v>       0.90542872       0.38120579       0.50998634 </v>
   <v>       0.90591704       0.52457964       0.50412324 </v>
   <v>       0.90736270       0.66801890       0.50234281 </v>
   <v>       0.90810885       0.81134182       0.50447460 </v>
   <v>       0.90596653       0.95247729       0.50751658 </v>
   <v>       0.46474214       0.36172417       0.55053782 </v>
   <v>       0.40975823       0.41552224       0.42595639 </v>
   <v>       0.40700942       0.56230064       0.41269981 </v>
   <v>       0.63712117       0.53733120       0.55428190 </v>
   <v>       0.58478394       0.41897549       0.44355570 </v>
   <v>       0.57700814       0.72151363       0.49335050 </v>
   <v>       0.42648080       0.71555840       0.48409066 </v>
   <v>       0.72045791       0.71638494       0.52426290 </v>
   <v>       0.52622082       0.60347511       0.56034375 </v>
   <v>       0.49904942       0.50587824       0.54541433 </v>
   <v>       0.47676545       0.54306880       0.56977595 </v>
  </varray>
  <varray name="selective"  type="logical" >
   <v type="logical" >  T  T  T </v>
   <v type="logical" >  T  T  T </v>
   <v type="logical" >  T  T  T </v>
   <v type="logical" >  T  T  T </v>
   <v type="logical" >  T  T  T </v>
   <v type="logical" >  T  T  T </v>
   <v type="logical" >  T  T  T </v>
   <v type="logical" >  T  T  T </v>
   <v type="logical" >  T  T  T </v>
   <v type="logical" >  T  T  T </v>
   <v type="logical" >  T  T  T </v>
   <v type="logical" >  T  T  T </v>
   <v type="logical" >  T  T  T </v>
   <v type="logical" >  T  T  T </v>
   <v type="logical" >  T  T  T </v>
   <v type="logical" >  T  T  T </v>
   <v type="logical" >  T  T  T </v>
   <v type="logical" >  T  T  T </v>
   <v type="logical" >  T  T  T </v>
   <v type="logical" >  T  T  T </v>
   <v type="logical" >  T  T  T </v>
   <v type="logical" >  T  T  T </v>
   <v type="logical" >  T  T  T </v>
   <v type="logical" >  T  T  T </v>
   <v type="logical" >  T  T  T </v>
   <v type="logical" >  T  T  T </v>
   <v type="logical" >  T  T  T </v>
   <v type="logical" >  T  T  T </v>
   <v type="logical" >  T  T  T </v>
   <v type="logical" >  T  T  T </v>
   <v type="logical" >  T  T  T </v>
   <v type="logical" >  T  T  T </v>
   <v type="logical" >  T  T  T </v>
   <v type="logical" >  T  T  T </v>
   <v type="logical" >  T  T  T </v>
   <v type="logical" >  T  T  T </v>
   <v type="logical" >  T  T  T </v>
   <v type="logical" >  T  T  T </v>
   <v type="logical" >  T  T  T </v>
   <v type="logical" >  T  T  T </v>
   <v type="logical" >  T  T  T </v>
   <v type="logical" >  T  T  T </v>
   <v type="logical" >  T  T  T </v>
   <v type="logical" >  T  T  T </v>
   <v type="logical" >  T  T  T </v>
   <v type="logical" >  T  T  T </v>
   <v type="logical" >  T  T  T </v>
   <v type="logical" >  T  T  T </v>
   <v type="logical" >  T  T  T </v>
   <v type="logical" >  T  T  T </v>
   <v type="logical" >  T  T  T </v>
   <v type="logical" >  T  T  T </v>
   <v type="logical" >  T  T  T </v>
   <v type="logical" >  T  T  T </v>
   <v type="logical" >  T  T  T </v>
   <v type="logical" >  T  T  T </v>
   <v type="logical" >  T  T  T </v>
   <v type="logical" >  T  T  T </v>
   <v type="logical" >  T  T  T </v>
   <v type="logical" >  T  T  T </v>
   <v type="logical" >  T  T  T </v>
   <v type="logical" >  T  T  T </v>
   <v type="logical" >  T  T  T </v>
   <v type="logical" >  T  T  T </v>
   <v type="logical" >  T  T  T </v>
   <v type="logical" >  T  T  T </v>
   <v type="logical" >  T  T  T </v>
   <v type="logical" >  T  T  T </v>
   <v type="logical" >  T  T  T </v>
   <v type="logical" >  T  T  T </v>
   <v type="logical" >  T  T  T </v>
   <v type="logical" >  T  T  T </v>
   <v type="logical" >  T  T  T </v>
   <v type="logical" >  T  T  T </v>
   <v type="logical" >  T  T  T </v>
   <v type="logical" >  T  T  T </v>
   <v type="logical" >  T  T  T </v>
   <v type="logical" >  T  T  T </v>
   <v type="logical" >  T  T  T </v>
   <v type="logical" >  T  T  T </v>
   <v type="logical" >  T  T  T </v>
   <v type="logical" >  T  T  T </v>
   <v type="logical" >  T  T  T </v>
   <v type="logical" >  T  T  T </v>
   <v type="logical" >  T  T  T </v>
   <v type="logical" >  T  T  T </v>
   <v type="logical" >  T  T  T </v>
   <v type="logical" >  T  T  T </v>
   <v type="logical" >  T  T  T </v>
   <v type="logical" >  T  T  T </v>
   <v type="logical" >  T  T  T </v>
   <v type="logical" >  T  T  T </v>
   <v type="logical" >  T  T  T </v>
   <v type="logical" >  T  T  T </v>
   <v type="logical" >  T  T  T </v>
   <v type="logical" >  T  T  T </v>
   <v type="logical" >  T  T  F </v>
  </varray>
  <nose>
   <v>      -3.00000000       0.00000000       0.00010000       0.00010000 </v>
  </nose>
 </structure>
 <calculation>
  <scstep>
   <time name="dav">   84.40   85.76</time>
   <time name="total">   91.89   93.33</time>
   <energy>
    <i name="alphaZ">    207.25300192 </i>
    <i name="ewald">  41300.40501375 </i>
    <i name="hartreedc"> -54999.97278749 </i>
    <i name="XCdc">   1433.37792876 </i>
    <i name="pawpsdc">  13324.18077321 </i>
    <i name="pawaedc"> -13407.67620897 </i>
    <i name="eentropy">     -0.04271045 </i>
    <i name="bandstr">  -1708.22677536 </i>
    <i name="atom">  17598.89992239 </i>
    <i name="e_fr_energy">   3748.19815774 </i>
    <i name="e_wo_entrp">   3748.24086819 </i>
    <i name="e_0_energy">   3748.21951296 </i>
   </energy>
  </scstep>
  <scstep>
   <time name="dav">  107.78  109.40</time>
   <time name="total">  107.78  109.40</time>
   <energy>
    <i name="e_fr_energy">   -180.65399154 </i>
    <i name="e_wo_entrp">   -180.65373806 </i>
    <i name="e_0_energy">   -180.65386480 </i>
   </energy>
  </scstep>
  <scstep>
   <time name="dav">   93.06   94.49</time>
   <time name="total">   93.06   94.49</time>
   <energy>
    <i name="e_fr_energy">   -861.97968784 </i>
    <i name="e_wo_entrp">   -861.97521914 </i>
    <i name="e_0_energy">   -861.97745349 </i>
   </energy>
  </scstep>
  <scstep>
   <time name="dav">   92.07   93.51</time>
   <time name="total">   92.08   93.51</time>
   <energy>
    <i name="e_fr_energy">   -884.10351936 </i>
    <i name="e_wo_entrp">   -884.09802530 </i>
    <i name="e_0_energy">   -884.10077233 </i>
   </energy>
  </scstep>
  <scstep>
   <time name="dav">  103.36  104.89</time>
   <time name="total">  109.30  110.94</time>
   <energy>
    <i name="e_fr_energy">   -884.78661274 </i>
    <i name="e_wo_entrp">   -884.78099266 </i>
    <i name="e_0_energy">   -884.78380270 </i>
   </energy>
  </scstep>
  <scstep>
   <time name="dav">   90.43   91.80</time>
   <time name="total">  103.32  104.84</time>
   <energy>
    <i name="e_fr_energy">   -867.18023005 </i>
    <i name="e_wo_entrp">   -867.18004175 </i>
    <i name="e_0_energy">   -867.18013590 </i>
   </energy>
  </scstep>
  <scstep>
   <time name="dav">   88.63   89.90</time>
   <time name="total">  101.35  102.75</time>
   <energy>
    <i name="e_fr_energy">   -846.57676984 </i>
    <i name="e_wo_entrp">   -846.57676938 </i>
    <i name="e_0_energy">   -846.57676961 </i>
   </energy>
  </scstep>
  <scstep>
   <time name="dav">   88.67   89.99</time>
   <time name="total">  102.05  103.66</time>
   <energy>
    <i name="e_fr_energy">   -841.72608494 </i>
    <i name="e_wo_entrp">   -841.72608494 </i>
    <i name="e_0_energy">   -841.72608494 </i>
   </energy>
  </scstep>
  <scstep>
   <time name="dav">   88.06   89.49</time>
   <time name="total">  101.40  102.99</time>
   <energy>
    <i name="e_fr_energy">   -841.90673240 </i>
    <i name="e_wo_entrp">   -841.90673240 </i>
    <i name="e_0_energy">   -841.90673240 </i>
   </energy>
  </scstep>
  <scstep>
   <time name="dav">   86.49   87.72</time>
   <time name="total">  100.10  101.55</time>
   <energy>
    <i name="e_fr_energy">   -841.72463609 </i>
    <i name="e_wo_entrp">   -841.72463609 </i>
    <i name="e_0_energy">   -841.72463609 </i>
   </energy>
  </scstep>
  <scstep>
   <time name="dav">   87.29   88.50</time>
   <time name="total">  100.84  102.20</time>
   <energy>
    <i name="e_fr_energy">   -841.69846372 </i>
    <i name="e_wo_entrp">   -841.69846372 </i>
    <i name="e_0_energy">   -841.69846372 </i>
   </energy>
  </scstep>
  <scstep>
   <time name="dav">   87.59   88.85</time>
   <time name="total">  101.17  102.63</time>
   <energy>
    <i name="e_fr_energy">   -841.69774622 </i>
    <i name="e_wo_entrp">   -841.69774622 </i>
    <i name="e_0_energy">   -841.69774622 </i>
   </energy>
  </scstep>
  <scstep>
   <time name="dav">   89.00   90.33</time>
   <time name="total">  102.60  104.13</time>
   <energy>
    <i name="e_fr_energy">   -841.69800602 </i>
    <i name="e_wo_entrp">   -841.69800602 </i>
    <i name="e_0_energy">   -841.69800602 </i>
   </energy>
  </scstep>
  <scstep>
   <time name="dav">   88.39   89.62</time>
   <time name="total">  102.74  104.13</time>
   <energy>
    <i name="e_fr_energy">   -841.69801736 </i>
    <i name="e_wo_entrp">   -841.69801736 </i>
    <i name="e_0_energy">   -841.69801736 </i>
   </energy>
  </scstep>
  <scstep>
   <time name="dav">   85.89   87.11</time>
   <time name="total">  100.66  102.07</time>
   <energy>
    <i name="e_fr_energy">   -841.69808562 </i>
    <i name="e_wo_entrp">   -841.69808562 </i>
    <i name="e_0_energy">   -841.69808562 </i>
   </energy>
  </scstep>
  <scstep>
   <time name="dav">   84.77   86.04</time>
   <time name="total">   99.50  100.99</time>
   <energy>
    <i name="e_fr_energy">   -841.69809065 </i>
    <i name="e_wo_entrp">   -841.69809065 </i>
    <i name="e_0_energy">   -841.69809065 </i>
   </energy>
  </scstep>
  <scstep>
   <time name="dav">   88.46   89.71</time>
   <time name="total">  103.18  104.61</time>
   <energy>
    <i name="e_fr_energy">   -841.69809146 </i>
    <i name="e_wo_entrp">   -841.69809146 </i>
    <i name="e_0_energy">   -841.69809146 </i>
   </energy>
  </scstep>
  <scstep>
   <time name="dav">   80.62   81.63</time>
   <time name="total">   93.61   94.76</time>
   <energy>
    <i name="e_fr_energy">   -841.69809041 </i>
    <i name="e_wo_entrp">   -841.69809041 </i>
    <i name="e_0_energy">   -841.69809041 </i>
   </energy>
  </scstep>
  <scstep>
   <time name="dav">   48.22   48.79</time>
   <time name="total">   55.21   55.84</time>
   <energy>
    <i name="alphaZ">    207.25300192 </i>
    <i name="ewald">  41300.40501375 </i>
    <i name="hartreedc"> -56479.51003297 </i>
    <i name="XCdc">   1483.38255188 </i>
    <i name="pawpsdc">  40906.91300001 </i>
    <i name="pawaedc"> -41001.77592525 </i>
    <i name="eentropy">     -0.00000000 </i>
    <i name="bandstr">  -4857.26562205 </i>
    <i name="atom">  17598.89992239 </i>
    <i name="e_fr_energy">   -841.69809032 </i>
    <i name="e_wo_entrp">   -841.69809032 </i>
    <i name="e_0_energy">   -841.69809032 </i>
   </energy>
  </scstep>
  <structure>
   <crystal>
    <varray name="basis" >
     <v>      17.27103806       0.00000000       0.00000000 </v>
     <v>      -8.63551903      14.95715771       0.00000000 </v>
     <v>       0.00000000       0.00000000      15.00000000 </v>
    </varray>
    <i name="volume">   3874.88459904 </i>
    <varray name="rec_basis" >
     <v>       0.05790040       0.03342881      -0.00000000 </v>
     <v>       0.00000000       0.06685762       0.00000000 </v>
     <v>       0.00000000      -0.00000000       0.06666667 </v>
    </varray>
   </crystal>
   <varray name="positions" >
    <v>       0.00117340       0.00057767       0.50271582 </v>
    <v>       0.00039227       0.14294780       0.50635748 </v>
    <v>       0.00034272       0.28586141       0.50614702 </v>
    <v>       0.00073286       0.42889378       0.50522291 </v>
    <v>       0.00117881       0.57199239       0.50054883 </v>
    <v>       0.00228300       0.71539451       0.49775389 </v>
    <v>       0.00281117       0.85877121       0.49874037 </v>
    <v>       0.14446231       0.00124317       0.49305774 </v>
    <v>       0.14358707       0.14366052       0.49720407 </v>
    <v>       0.14275309       0.28607765       0.49524956 </v>
    <v>       0.14332781       0.42929358       0.49332332 </v>
    <v>       0.14394646       0.57186538       0.49497496 </v>
    <v>       0.14411821       0.71486158       0.49329455 </v>
    <v>       0.14453047       0.85811799       0.49240326 </v>
    <v>       0.28687410       0.00061052       0.49141413 </v>
    <v>       0.28671738       0.14333630       0.48959537 </v>
    <v>       0.28571476       0.28679214       0.48466205 </v>
    <v>       0.28272280       0.42753660       0.46403445 </v>
    <v>       0.28700920       0.57278314       0.47422835 </v>
    <v>       0.28634099       0.71532551       0.48779010 </v>
    <v>       0.28652827       0.85804619       0.49147735 </v>
    <v>       0.42969085       0.00020951       0.49523845 </v>
    <v>       0.42944356       0.14292899       0.49454892 </v>
    <v>       0.42531228       0.27970662       0.51210867 </v>
    <v>       0.42854939       0.85688388       0.49336542 </v>
    <v>       0.57176058       0.99892130       0.50365779 </v>
    <v>       0.57217840       0.14236528       0.50574306 </v>
    <v>       0.57294694       0.28571188       0.50008672 </v>
    <v>       0.57003535       0.85397851       0.49977802 </v>
    <v>       0.71391322       0.99776144       0.50984044 </v>
    <v>       0.71478607       0.14202059       0.51100454 </v>
    <v>       0.71527114       0.28578592       0.51073022 </v>
    <v>       0.71561820       0.42950014       0.50439753 </v>
    <v>       0.72287074       0.57797684       0.52661053 </v>
    <v>       0.71442541       0.85424188       0.51086216 </v>
    <v>       0.85753787       0.99934337       0.51085301 </v>
    <v>       0.85721105       0.14218986       0.51138961 </v>
    <v>       0.85769223       0.28555967       0.51163673 </v>
    <v>       0.85824131       0.42909433       0.51025573 </v>
    <v>       0.85909940       0.57304835       0.50386664 </v>
    <v>       0.86144873       0.71681332       0.50674266 </v>
    <v>       0.85950615       0.85747669       0.50876024 </v>
    <v>       0.04851289       0.09584586       0.50259972 </v>
    <v>       0.04767040       0.23814301       0.50348220 </v>
    <v>       0.04811970       0.38128505       0.50260167 </v>
    <v>       0.04874374       0.52418970       0.50099045 </v>
    <v>       0.04907203       0.66730944       0.49668025 </v>
    <v>       0.04964654       0.81057435       0.49565972 </v>
    <v>       0.04940119       0.95359214       0.49786406 </v>
    <v>       0.19146573       0.09609280       0.49166770 </v>
    <v>       0.19044076       0.23879346       0.49395242 </v>
    <v>       0.18964390       0.38094909       0.48663595 </v>
    <v>       0.19181723       0.52468253       0.48927206 </v>
    <v>       0.19128297       0.66719364       0.49150063 </v>
    <v>       0.19168980       0.81027406       0.49178615 </v>
    <v>       0.19193187       0.95327347       0.49143874 </v>
    <v>       0.33437371       0.09580088       0.49183960 </v>
    <v>       0.33400915       0.23859304       0.49353761 </v>
    <v>       0.32589668       0.37640317       0.45891401 </v>
    <v>       0.32636513       0.52169446       0.45125416 </v>
    <v>       0.33685180       0.67076950       0.48094632 </v>
    <v>       0.33377629       0.81016662       0.49072965 </v>
    <v>       0.33434580       0.95299221       0.49217717 </v>
    <v>       0.47733424       0.09531455       0.49757786 </v>
    <v>       0.47674451       0.23795793       0.50054037 </v>
    <v>       0.47252795       0.80548248       0.49217956 </v>
    <v>       0.47687338       0.95217204       0.49758219 </v>
    <v>       0.61944874       0.09428916       0.50775180 </v>
    <v>       0.62017264       0.23794317       0.50803572 </v>
    <v>       0.62435760       0.37845481       0.48549157 </v>
    <v>       0.62096215       0.81077603       0.50231375 </v>
    <v>       0.61844697       0.94990535       0.50517020 </v>
    <v>       0.76190433       0.09385725       0.51132592 </v>
    <v>       0.76257067       0.23758898       0.51180252 </v>
    <v>       0.76289134       0.38129384       0.51141745 </v>
    <v>       0.76336795       0.52658326       0.50976313 </v>
    <v>       0.76730843       0.67275119       0.51953091 </v>
    <v>       0.76376445       0.80556656       0.51498160 </v>
    <v>       0.76193163       0.95028238       0.51141264 </v>
    <v>       0.90493391       0.09458102       0.51011273 </v>
    <v>       0.90502108       0.23774612       0.51048981 </v>
    <v>       0.90542872       0.38120579       0.50998634 </v>
    <v>       0.90591704       0.52457964       0.50412324 </v>
    <v>       0.90736270       0.66801890       0.50234281 </v>
    <v>       0.90810885       0.81134182       0.50447460 </v>
    <v>       0.90596653       0.95247729       0.50751658 </v>
    <v>       0.46474214       0.36172417       0.55053782 </v>
    <v>       0.40975823       0.41552224       0.42595639 </v>
    <v>       0.40700942       0.56230064       0.41269981 </v>
    <v>       0.63712117       0.53733120       0.55428190 </v>
    <v>       0.58478394       0.41897549       0.44355570 </v>
    <v>       0.57700814       0.72151363       0.49335050 </v>
    <v>       0.42648080       0.71555840       0.48409066 </v>
    <v>       0.72045791       0.71638494       0.52426290 </v>
    <v>       0.52622082       0.60347511       0.56034375 </v>
    <v>       0.49904942       0.50587824       0.54541433 </v>
    <v>       0.47676545       0.54306880       0.56977595 </v>
   </varray>
  </structure>
  <varray name="forces" >
   <v>       0.00524417      -0.00532196      -0.00006321 </v>
   <v>       0.00750148      -0.00237024      -0.00174989 </v>
   <v>       0.00824875      -0.00101825      -0.00249629 </v>
   <v>       0.00169455       0.00488601      -0.00118439 </v>
   <v>       0.00159710       0.00341665      -0.00011533 </v>
   <v>       0.00380476       0.00711276       0.00143064 </v>
   <v>       0.00127862       0.00405025       0.00142387 </v>
   <v>       0.00053107      -0.00053085       0.00031221 </v>
   <v>       0.00373061      -0.00217346      -0.00415920 </v>
   <v>       0.00628957      -0.00197617      -0.00780890 </v>
   <v>       0.00529882      -0.00172588      -0.00981611 </v>
   <v>       0.00017369       0.00083502      -0.00834571 </v>
   <v>      -0.00060549       0.00329334      -0.00369635 </v>
   <v>      -0.00141232       0.01087686      -0.00035140 </v>
   <v>      -0.00763646       0.00082329      -0.00242995 </v>
   <v>      -0.00226666      -0.00169564      -0.00437367 </v>
   <v>       0.00145203       0.00001714      -0.00749740 </v>
   <v>       0.00332996      -0.00268429      -0.01622677 </v>
   <v>       0.00016120      -0.00298104      -0.01615615 </v>
   <v>      -0.00107157       0.00043480      -0.00988440 </v>
   <v>      -0.00814112       0.00070345      -0.00225145 </v>
   <v>      -0.01201666      -0.00195937      -0.00341079 </v>
   <v>      -0.00452312      -0.00393834      -0.00250558 </v>
   <v>      -0.00526763      -0.00060072      -0.01049036 </v>
   <v>      -0.00468355      -0.00092268      -0.00420530 </v>
   <v>      -0.00302863      -0.00051799      -0.00134374 </v>
   <v>      -0.00223177      -0.00073389      -0.00100275 </v>
   <v>       0.00094809       0.00328344      -0.00394484 </v>
   <v>       0.00289241      -0.00157711      -0.00836961 </v>
   <v>       0.00318860      -0.00145785      -0.00103694 </v>
   <v>      -0.00216046      -0.00052795       0.00302860 </v>
   <v>       0.00069402       0.00164974       0.00302612 </v>
   <v>       0.00081512       0.00190345      -0.00048240 </v>
   <v>       0.00243839       0.00932370      -0.00438544 </v>
   <v>       0.00690830       0.00028607      -0.00339283 </v>
   <v>       0.01091402      -0.00498392      -0.00055494 </v>
   <v>       0.00569431       0.00120928       0.00097294 </v>
   <v>       0.00195597       0.00545489       0.00409155 </v>
   <v>       0.00263130       0.00411394       0.00316519 </v>
   <v>       0.00884700       0.00745118       0.00176911 </v>
   <v>       0.00086317       0.00995409      -0.00105777 </v>
   <v>       0.00439628      -0.00179190      -0.00090886 </v>
   <v>      -0.00558962       0.00880866      -0.00081839 </v>
   <v>      -0.00458465       0.00225706      -0.00405744 </v>
   <v>      -0.00087121      -0.00063192      -0.00430939 </v>
   <v>       0.00231691      -0.00172369      -0.00313239 </v>
   <v>       0.00208793      -0.00247625      -0.00013370 </v>
   <v>       0.00174901      -0.00568313       0.00172439 </v>
   <v>      -0.00027612       0.00126620       0.00104715 </v>
   <v>       0.00446633       0.00456881      -0.00308910 </v>
   <v>      -0.00315404       0.00105234      -0.00666813 </v>
   <v>      -0.00815969       0.00426291      -0.01214075 </v>
   <v>       0.00109810      -0.00015403      -0.01199235 </v>
   <v>       0.00221999      -0.00174929      -0.00513880 </v>
   <v>       0.00540181      -0.00456697      -0.00267136 </v>
   <v>       0.00495537      -0.00269132      -0.00014864 </v>
   <v>       0.00607681       0.00393155      -0.00259750 </v>
   <v>       0.00617380       0.00457708      -0.00686162 </v>
   <v>       0.00056180       0.00012155      -0.01163945 </v>
   <v>       0.00035906       0.00145915      -0.01446623 </v>
   <v>       0.00277637      -0.00010500      -0.01595606 </v>
   <v>       0.00694258      -0.00073101      -0.00529500 </v>
   <v>       0.01240692       0.00059478      -0.00249179 </v>
   <v>       0.00686115       0.00263624      -0.00163594 </v>
   <v>       0.00609277       0.00151411      -0.00573838 </v>
   <v>       0.00245985       0.00176742      -0.00900082 </v>
   <v>       0.01365547       0.00045973      -0.00114215 </v>
   <v>       0.00505782       0.00055527       0.00041414 </v>
   <v>       0.00206920       0.00022459      -0.00000503 </v>
   <v>       0.00596205      -0.00778047      -0.00051122 </v>
   <v>      -0.00188875      -0.00241147      -0.00894995 </v>
   <v>       0.00150304       0.00100284      -0.00304242 </v>
   <v>       0.00102081       0.00036486       0.00171441 </v>
   <v>       0.00241451      -0.00116529       0.00408620 </v>
   <v>       0.00006622      -0.00302291       0.00231627 </v>
   <v>      -0.00407108      -0.00373966       0.00120052 </v>
   <v>       0.00180565      -0.01399521      -0.00144995 </v>
   <v>      -0.00363864      -0.00001794      -0.00370261 </v>
   <v>      -0.00392387       0.00222150      -0.00243318 </v>
   <v>      -0.00353817       0.00335370       0.00055273 </v>
   <v>      -0.00132965      -0.00153361       0.00169119 </v>
   <v>      -0.00056989      -0.00910887       0.00360543 </v>
   <v>      -0.00365253      -0.00282818       0.00268003 </v>
   <v>      -0.00174622      -0.00870479       0.00287021 </v>
   <v>       0.00060550      -0.00459965       0.00076060 </v>
   <v>      -0.00582348       0.01016617       0.00022215 </v>
   <v>       0.00465901       0.00339763      -0.01112630 </v>
   <v>      -0.00080932      -0.00433038      -0.01912496 </v>
   <v>       0.00782716      -0.00172906      -0.00617732 </v>
   <v>      -0.01108758      -0.00239024      -0.01021072 </v>
   <v>       0.00204354       0.00227183      -0.00679021 </v>
   <v>       0.00008361       0.00296903      -0.00982136 </v>
   <v>       0.00081687      -0.00048492      -0.01539881 </v>
   <v>       0.00056429       0.00516537      -0.00586658 </v>
   <v>      -0.06046315      -0.00810235      -0.00439436 </v>
   <v>      -0.01674158      -0.00131486       0.04123835 </v>
   <v>      -0.03171998      -0.01278777       0.30048511 </v>
  </varray>
  <varray name="stress" >
   <v>       1.45726194       0.79402059      -0.04271325 </v>
   <v>       0.79402037      -4.13616780      -0.02463282 </v>
   <v>      -0.04271462      -0.02463220      -0.20549610 </v>
  </varray>
  <energy>
   <i name="e_fr_energy">   -849.52401417 </i>
   <i name="e_wo_entrp">   -849.52401417 </i>
   <i name="e_0_energy">   -849.52401417 </i>
  </energy>
  <time name="totalsc"> 2009.69 2038.97</time>
 </calculation>
 <calculation>
  <scstep>
   <time name="dav">   83.94   85.13</time>
   <time name="total">   97.79   99.17</time>
   <energy>
    <i name="alphaZ">    207.25300192 </i>
    <i name="ewald">  41300.19763418 </i>
    <i name="hartreedc"> -56479.31353834 </i>
    <i name="XCdc">   1483.38214754 </i>
    <i name="pawpsdc">  40906.03505629 </i>
    <i name="pawaedc"> -41000.89742360 </i>
    <i name="eentropy">     -0.00000000 </i>
    <i name="bandstr">  -4857.25496950 </i>
    <i name="atom">  17598.89992239 </i>
    <i name="e_fr_energy">   -841.69816912 </i>
    <i name="e_wo_entrp">   -841.69816912 </i>
    <i name="e_0_energy">   -841.69816912 </i>
   </energy>
  </scstep>
  <scstep>
   <time name="dav">   89.83   91.16</time>
   <time name="total">  102.66  104.12</time>
   <energy>
    <i name="e_fr_energy">   -841.69817401 </i>
    <i name="e_wo_entrp">   -841.69817401 </i>
    <i name="e_0_energy">   -841.69817401 </i>
   </energy>
  </scstep>
  <scstep>
   <time name="dav">   69.34   70.35</time>
   <time name="total">   75.83   76.90</time>
   <energy>
    <i name="alphaZ">    207.25300192 </i>
    <i name="ewald">  41300.19763418 </i>
    <i name="hartreedc"> -56479.28902082 </i>
    <i name="XCdc">   1483.38126985 </i>
    <i name="pawpsdc">  40905.91928407 </i>
    <i name="pawaedc"> -41000.78138977 </i>
    <i name="eentropy">     -0.00000000 </i>
    <i name="bandstr">  -4857.27887522 </i>
    <i name="atom">  17598.89992239 </i>
    <i name="e_fr_energy">   -841.69817341 </i>
    <i name="e_wo_entrp">   -841.69817341 </i>
    <i name="e_0_energy">   -841.69817341 </i>
   </energy>
  </scstep>
  <structure>
   <crystal>
    <varray name="basis" >
     <v>      17.27103806       0.00000000       0.00000000 </v>
     <v>      -8.63551903      14.95715771       0.00000000 </v>
     <v>       0.00000000       0.00000000      15.00000000 </v>
    </varray>
    <i name="volume">   3874.88459904 </i>
    <varray name="rec_basis" >
     <v>       0.05790040       0.03342881      -0.00000000 </v>
     <v>       0.00000000       0.06685762       0.00000000 </v>
     <v>       0.00000000      -0.00000000       0.06666667 </v>
    </varray>
   </crystal>
   <varray name="positions" >
    <v>       0.00117417       0.00057411       0.50271650 </v>
    <v>       0.00039533       0.14294623       0.50635712 </v>
    <v>       0.00034673       0.28586074       0.50614615 </v>
    <v>       0.00073523       0.42889695       0.50522275 </v>
    <v>       0.00118072       0.57199463       0.50054920 </v>
    <v>       0.00228721       0.71539911       0.49775513 </v>
    <v>       0.00281279       0.85877374       0.49874168 </v>
    <v>       0.14446202       0.00124273       0.49305827 </v>
    <v>       0.14358798       0.14365898       0.49720203 </v>
    <v>       0.14275560       0.28607634       0.49524511 </v>
    <v>       0.14333001       0.42929247       0.49331749 </v>
    <v>       0.14394669       0.57186596       0.49497009 </v>
    <v>       0.14411875       0.71486374       0.49329240 </v>
    <v>       0.14453290       0.85812500       0.49240316 </v>
    <v>       0.28686980       0.00061108       0.49141283 </v>
    <v>       0.28671511       0.14333512       0.48959297 </v>
    <v>       0.28571497       0.28679194       0.48465713 </v>
    <v>       0.28272326       0.42753467       0.46402296 </v>
    <v>       0.28700801       0.57278118       0.47421723 </v>
    <v>       0.28634036       0.71532583       0.48778378 </v>
    <v>       0.28652371       0.85804670       0.49147600 </v>
    <v>       0.42968324       0.00020839       0.49523641 </v>
    <v>       0.42943945       0.14292666       0.49454800 </v>
    <v>       0.42530849       0.27970624       0.51210261 </v>
    <v>       0.42854625       0.85688338       0.49336276 </v>
    <v>       0.57175846       0.99892114       0.50365684 </v>
    <v>       0.57217664       0.14236502       0.50574278 </v>
    <v>       0.57294824       0.28571434       0.50008574 </v>
    <v>       0.57003617       0.85397769       0.49977364 </v>
    <v>       0.71391424       0.99776056       0.50984031 </v>
    <v>       0.71478442       0.14202034       0.51100661 </v>
    <v>       0.71527182       0.28578707       0.51073300 </v>
    <v>       0.71561929       0.42950151       0.50439958 </v>
    <v>       0.72287569       0.57798288       0.52661187 </v>
    <v>       0.71442902       0.85424208       0.51086233 </v>
    <v>       0.85754200       0.99934012       0.51085355 </v>
    <v>       0.85721431       0.14219065       0.51139073 </v>
    <v>       0.85769484       0.28556321       0.51163986 </v>
    <v>       0.85824404       0.42909704       0.51025857 </v>
    <v>       0.85910678       0.57305323       0.50386886 </v>
    <v>       0.86145213       0.71681967       0.50674333 </v>
    <v>       0.85950757       0.85747539       0.50876108 </v>
    <v>       0.04851216       0.09585142       0.50259993 </v>
    <v>       0.04766824       0.23814444       0.50348035 </v>
    <v>       0.04811882       0.38128465       0.50259958 </v>
    <v>       0.04874437       0.52418861       0.50098900 </v>
    <v>       0.04907223       0.66730788       0.49668046 </v>
    <v>       0.04964539       0.81057068       0.49566104 </v>
    <v>       0.04940102       0.95359286       0.49786517 </v>
    <v>       0.19146923       0.09609564       0.49166616 </v>
    <v>       0.19043884       0.23879400       0.49394859 </v>
    <v>       0.18964043       0.38095181       0.48662836 </v>
    <v>       0.19181763       0.52468244       0.48926465 </v>
    <v>       0.19128348       0.66719255       0.49149763 </v>
    <v>       0.19169110       0.81027114       0.49178456 </v>
    <v>       0.19193345       0.95327172       0.49143885 </v>
    <v>       0.33437805       0.09580346       0.49183839 </v>
    <v>       0.33401352       0.23859587       0.49353344 </v>
    <v>       0.32589619       0.37640274       0.45890532 </v>
    <v>       0.32636491       0.52169515       0.45124257 </v>
    <v>       0.33685315       0.67076947       0.48093547 </v>
    <v>       0.33377971       0.81016620       0.49072627 </v>
    <v>       0.33435266       0.95299267       0.49217574 </v>
    <v>       0.47733863       0.09531645       0.49757723 </v>
    <v>       0.47674804       0.23795916       0.50053781 </v>
    <v>       0.47252965       0.80548368       0.49217392 </v>
    <v>       0.47688089       0.95217247       0.49758147 </v>
    <v>       0.61945148       0.09428969       0.50775207 </v>
    <v>       0.62017360       0.23794354       0.50803662 </v>
    <v>       0.62435837       0.37845031       0.48549389 </v>
    <v>       0.62095995       0.81077474       0.50231111 </v>
    <v>       0.61844785       0.94990616       0.50516853 </v>
    <v>       0.76190473       0.09385753       0.51132728 </v>
    <v>       0.76257138       0.23758828       0.51180554 </v>
    <v>       0.76289034       0.38129194       0.51142022 </v>
    <v>       0.76336472       0.52658095       0.50976639 </v>
    <v>       0.76730483       0.67274209       0.51953291 </v>
    <v>       0.76376200       0.80556642       0.51498174 </v>
    <v>       0.76192982       0.95028382       0.51141218 </v>
    <v>       0.90493266       0.09458315       0.51011379 </v>
    <v>       0.90501957       0.23774514       0.51049146 </v>
    <v>       0.90542533       0.38119994       0.50998925 </v>
    <v>       0.90591405       0.52457785       0.50412562 </v>
    <v>       0.90735875       0.66801332       0.50234549 </v>
    <v>       0.90810730       0.81133876       0.50447603 </v>
    <v>       0.90596612       0.95248373       0.50751774 </v>
    <v>       0.46474448       0.36172637       0.55053132 </v>
    <v>       0.40975496       0.41551798       0.42594150 </v>
    <v>       0.40701073       0.56229885       0.41269030 </v>
    <v>       0.63711590       0.53732931       0.55428276 </v>
    <v>       0.58478615       0.41897850       0.44355509 </v>
    <v>       0.57700838       0.72151607       0.49335070 </v>
    <v>       0.42648096       0.71555819       0.48408005 </v>
    <v>       0.72045968       0.71638814       0.52426257 </v>
    <v>       0.52620023       0.60346993       0.56033312 </v>
    <v>       0.49904313       0.50587433       0.54542105 </v>
    <v>       0.47675288       0.54306221       0.56977595 </v>
   </varray>
  </structure>
  <varray name="forces" >
   <v>       0.00090510       0.00108804       0.00028540 </v>
   <v>       0.00064924       0.00100584      -0.00144430 </v>
   <v>       0.00220573      -0.00033320      -0.00227329 </v>
   <v>       0.00075632       0.00032418      -0.00097074 </v>
   <v>       0.00077857       0.00019013       0.00008102 </v>
   <v>       0.00047496      -0.00056117       0.00274661 </v>
   <v>       0.00134494       0.00030918       0.00161038 </v>
   <v>       0.00145877       0.00093534       0.00022952 </v>
   <v>       0.00105511       0.00075177      -0.00409834 </v>
   <v>       0.00035369       0.00033481      -0.00792906 </v>
   <v>       0.00045760      -0.00010169      -0.00985444 </v>
   <v>       0.00099954       0.00020416      -0.00693903 </v>
   <v>       0.00132871      -0.00021104      -0.00361075 </v>
   <v>       0.00137838      -0.00202636       0.00002298 </v>
   <v>       0.00287030       0.00079389      -0.00105817 </v>
   <v>       0.00453273      -0.00070120      -0.00330577 </v>
   <v>       0.00102158       0.00076601      -0.00786919 </v>
   <v>      -0.00013410      -0.00065836      -0.01637694 </v>
   <v>       0.00008283      -0.00105334      -0.01679573 </v>
   <v>       0.00149370      -0.00032848      -0.01026628 </v>
   <v>       0.00398276       0.00076866      -0.00302612 </v>
   <v>       0.00028137      -0.00019421      -0.00284874 </v>
   <v>       0.00164178       0.00005454      -0.00239223 </v>
   <v>       0.00396160       0.00110031      -0.00805378 </v>
   <v>       0.00129527       0.00020335      -0.00430577 </v>
   <v>       0.00175715       0.00047317      -0.00111722 </v>
   <v>       0.00154365       0.00032693      -0.00069615 </v>
   <v>       0.00198955      -0.00006059      -0.00344295 </v>
   <v>       0.00139432      -0.00005108      -0.00848526 </v>
   <v>       0.00101793       0.00045044      -0.00108020 </v>
   <v>       0.00255723       0.00079474       0.00170797 </v>
   <v>       0.00137145      -0.00035761       0.00322531 </v>
   <v>       0.00095094      -0.00012408      -0.00013753 </v>
   <v>      -0.00106999       0.00015573      -0.00271151 </v>
   <v>       0.00119103       0.00058695      -0.00389317 </v>
   <v>      -0.00055981       0.00076224      -0.00079257 </v>
   <v>       0.00156917       0.00108270       0.00121618 </v>
   <v>       0.00131355       0.00033766       0.00433012 </v>
   <v>       0.00077117      -0.00021100       0.00357829 </v>
   <v>      -0.00157569      -0.00057410       0.00229396 </v>
   <v>       0.00052012      -0.00018893      -0.00033276 </v>
   <v>       0.00094726       0.00068181      -0.00069707 </v>
   <v>       0.00241808       0.00066060      -0.00128086 </v>
   <v>       0.00178853       0.00040335      -0.00441319 </v>
   <v>       0.00112492       0.00047839      -0.00451060 </v>
   <v>       0.00111028       0.00072683      -0.00327647 </v>
   <v>       0.00139583       0.00078496      -0.00023547 </v>
   <v>       0.00131192       0.00126732       0.00165188 </v>
   <v>       0.00135196       0.00067221       0.00104735 </v>
   <v>      -0.00004710       0.00047451      -0.00187002 </v>
   <v>       0.00219497       0.00130236      -0.00705648 </v>
   <v>      -0.00147284       0.00068372      -0.01305271 </v>
   <v>       0.00078674      -0.00031816      -0.01241977 </v>
   <v>       0.00042962       0.00001400      -0.00568140 </v>
   <v>      -0.00006860       0.00031729      -0.00267385 </v>
   <v>       0.00087582       0.00073500      -0.00019301 </v>
   <v>       0.00012384       0.00042704      -0.00292319 </v>
   <v>      -0.00062087      -0.00056681      -0.00723479 </v>
   <v>       0.00102976      -0.00143894      -0.01211242 </v>
   <v>       0.00160421      -0.00091818      -0.01518512 </v>
   <v>       0.00162859       0.00050963      -0.01311053 </v>
   <v>      -0.00047197       0.00089378      -0.00400685 </v>
   <v>       0.00084928       0.00029624      -0.00274534 </v>
   <v>       0.00057426      -0.00008444      -0.00211548 </v>
   <v>       0.00128457       0.00021049      -0.00587690 </v>
   <v>       0.00080408       0.00014636      -0.00948496 </v>
   <v>      -0.00209100       0.00015367      -0.00258130 </v>
   <v>       0.00109529       0.00040806       0.00039258 </v>
   <v>       0.00130395       0.00016415       0.00010750 </v>
   <v>       0.00233491       0.00164921      -0.00324648 </v>
   <v>       0.00178388       0.00000668      -0.00838795 </v>
   <v>       0.00142088       0.00016281      -0.00318228 </v>
   <v>       0.00159158       0.00020245       0.00181149 </v>
   <v>       0.00124948       0.00037510       0.00434670 </v>
   <v>       0.00112946       0.00036736       0.00249155 </v>
   <v>      -0.00022143       0.00018664       0.00111907 </v>
   <v>       0.00003002       0.00324809      -0.00254592 </v>
   <v>       0.00149233       0.00060414      -0.00371719 </v>
   <v>       0.00150688       0.00008039      -0.00224626 </v>
   <v>       0.00207162       0.00019343       0.00043696 </v>
   <v>       0.00180578       0.00052247       0.00167558 </v>
   <v>       0.00078462      -0.00151471       0.00350208 </v>
   <v>       0.00080109       0.00033631       0.00264148 </v>
   <v>       0.00244296       0.00069636       0.00102748 </v>
   <v>       0.00130933       0.00109797       0.00064969 </v>
   <v>       0.00229741      -0.00162465      -0.00041030 </v>
   <v>       0.00386728       0.00290227      -0.01152538 </v>
   <v>      -0.00034876      -0.00403570      -0.02024337 </v>
   <v>       0.00779738      -0.00108383      -0.00722876 </v>
   <v>      -0.00238399       0.00355137      -0.00853364 </v>
   <v>       0.00384534      -0.00228724      -0.00879419 </v>
   <v>      -0.00009825       0.00074218      -0.01003973 </v>
   <v>       0.00134247       0.00067882      -0.01575677 </v>
   <v>       0.00052991       0.00041580      -0.00526443 </v>
   <v>      -0.06017300      -0.00767359      -0.00425814 </v>
   <v>      -0.01670698      -0.00120281       0.04126966 </v>
   <v>      -0.03268188      -0.01374690       0.30072777 </v>
  </varray>
  <varray name="stress" >
   <v>       1.46332289       0.79813065      -0.04206252 </v>
   <v>       0.79813043      -4.12132662      -0.02478980 </v>
   <v>      -0.04206389      -0.02478919      -0.20074288 </v>
  </varray>
  <energy>
   <i name="e_fr_energy">   -849.52409357 </i>
   <i name="e_wo_entrp">   -849.52409357 </i>
   <i name="e_0_energy">   -849.52409357 </i>
  </energy>
  <time name="totalsc">  494.33  501.35</time>
 </calculation>
 <calculation>
  <scstep>
   <time name="dav">   83.69   84.97</time>
   <time name="total">   97.61   99.07</time>
   <energy>
    <i name="alphaZ">    207.25300192 </i>
    <i name="ewald">  41299.79365313 </i>
    <i name="hartreedc"> -56478.87459533 </i>
    <i name="XCdc">   1483.38057790 </i>
    <i name="pawpsdc">  40905.76334340 </i>
    <i name="pawaedc"> -41000.62518849 </i>
    <i name="eentropy">     -0.00000000 </i>
    <i name="bandstr">  -4857.28901666 </i>
    <i name="atom">  17598.89992239 </i>
    <i name="e_fr_energy">   -841.69830173 </i>
    <i name="e_wo_entrp">   -841.69830173 </i>
    <i name="e_0_energy">   -841.69830173 </i>
   </energy>
  </scstep>
  <scstep>
   <time name="dav">   81.95   83.23</time>
   <time name="total">   95.07   96.55</time>
   <energy>
    <i name="e_fr_energy">   -841.69831273 </i>
    <i name="e_wo_entrp">   -841.69831273 </i>
[...]
       <r>   -17.8019     6.0944    36.4116 </r>
       <r>   -17.6779     6.7613    37.2503 </r>
       <r>   -17.5538    15.6308    39.1893 </r>
       <r>   -17.4298    10.3677    40.4754 </r>
       <r>   -17.3057     9.9119    41.7050 </r>
       <r>   -17.1817     4.2049    42.2266 </r>
       <r>   -17.0576     6.5352    43.0373 </r>
       <r>   -16.9336     8.6176    44.1063 </r>
       <r>   -16.8095     5.9472    44.8441 </r>
       <r>   -16.6855     5.4664    45.5222 </r>
       <r>   -16.5614    12.0260    47.0140 </r>
       <r>   -16.4374    13.4214    48.6790 </r>
       <r>   -16.3133     6.4340    49.4771 </r>
       <r>   -16.1893     0.2006    49.5020 </r>
       <r>   -16.0652     2.9218    49.8644 </r>
       <r>   -15.9412     1.7696    50.0840 </r>
       <r>   -15.8171     2.5940    50.4057 </r>
       <r>   -15.6931     6.5182    51.2143 </r>
       <r>   -15.5690     4.9085    51.8232 </r>
       <r>   -15.4450     7.9328    52.8073 </r>
       <r>   -15.3209     6.9943    53.6749 </r>
       <r>   -15.1969    11.4020    55.0894 </r>
       <r>   -15.0728     9.1483    56.2242 </r>
       <r>   -14.9488     7.9016    57.2044 </r>
       <r>   -14.8247     6.5727    58.0197 </r>
       <r>   -14.7007     9.0463    59.1419 </r>
       <r>   -14.5766     9.5563    60.3274 </r>
       <r>   -14.4526    14.3005    62.1014 </r>
       <r>   -14.3285    10.3842    63.3895 </r>
       <r>   -14.2045     4.7475    63.9785 </r>
       <r>   -14.0804     5.4260    64.6516 </r>
       <r>   -13.9564     4.1643    65.1682 </r>
       <r>   -13.8323     5.3128    65.8272 </r>
       <r>   -13.7083    12.1620    67.3359 </r>
       <r>   -13.5842    10.3810    68.6237 </r>
       <r>   -13.4602     8.5955    69.6899 </r>
       <r>   -13.3361     5.1018    70.3228 </r>
       <r>   -13.2121     2.7522    70.6642 </r>
       <r>   -13.0880     5.5065    71.3473 </r>
       <r>   -12.9640     6.9561    72.2102 </r>
       <r>   -12.8399     8.0538    73.2093 </r>
       <r>   -12.7159    21.3428    75.8569 </r>
       <r>   -12.5918     7.0258    76.7284 </r>
       <r>   -12.4678     7.7642    77.6916 </r>
       <r>   -12.3437    12.4142    79.2316 </r>
       <r>   -12.2197     6.7292    80.0663 </r>
       <r>   -12.0956     6.4835    80.8706 </r>
       <r>   -11.9716     7.6441    81.8189 </r>
       <r>   -11.8475    13.5579    83.5007 </r>
       <r>   -11.7235    10.3930    84.7900 </r>
       <r>   -11.5994    14.5400    86.5937 </r>
       <r>   -11.4754    10.9469    87.9516 </r>
       <r>   -11.3513    10.2468    89.2228 </r>
       <r>   -11.2273    14.6029    91.0343 </r>
       <r>   -11.1032    10.1321    92.2911 </r>
       <r>   -10.9792     9.2520    93.4389 </r>
       <r>   -10.8551     8.4678    94.4893 </r>
       <r>   -10.7311     9.0961    95.6177 </r>
       <r>   -10.6070     8.7547    96.7037 </r>
       <r>   -10.4830    12.3650    98.2376 </r>
       <r>   -10.3589    16.2471   100.2530 </r>
       <r>   -10.2349    16.2290   102.2662 </r>
       <r>   -10.1108    20.8164   104.8485 </r>
       <r>    -9.9868    21.1516   107.4724 </r>
       <r>    -9.8627    19.8763   109.9380 </r>
       <r>    -9.7387    19.9328   112.4107 </r>
       <r>    -9.6146    20.3413   114.9341 </r>
       <r>    -9.4906    21.2124   117.5655 </r>
       <r>    -9.3665    23.8299   120.5216 </r>
       <r>    -9.2425    22.9798   123.3722 </r>
       <r>    -9.1184    18.6599   125.6870 </r>
       <r>    -8.9944    21.9678   128.4121 </r>
       <r>    -8.8703    26.2265   131.6655 </r>
       <r>    -8.7463    23.5620   134.5884 </r>
       <r>    -8.6222    17.3663   136.7426 </r>
       <r>    -8.4982    11.6288   138.1852 </r>
       <r>    -8.3741    18.1659   140.4387 </r>
       <r>    -8.2501    19.0243   142.7987 </r>
       <r>    -8.1260    18.8091   145.1319 </r>
       <r>    -8.0020    21.1079   147.7504 </r>
       <r>    -7.8779    17.7061   149.9468 </r>
       <r>    -7.7539    11.2693   151.3448 </r>
       <r>    -7.6298    14.3489   153.1248 </r>
       <r>    -7.5057    14.0871   154.8723 </r>
       <r>    -7.3817    19.6452   157.3093 </r>
       <r>    -7.2576    19.0856   159.6768 </r>
       <r>    -7.1336    20.3114   162.1965 </r>
       <r>    -7.0095    21.0139   164.8032 </r>
       <r>    -6.8855    10.2857   166.0792 </r>
       <r>    -6.7614    13.8883   167.8020 </r>
       <r>    -6.6374     9.6967   169.0049 </r>
       <r>    -6.5133     9.6727   170.2048 </r>
       <r>    -6.3893     9.0713   171.3301 </r>
       <r>    -6.2652    27.0975   174.6915 </r>
       <r>    -6.1412    23.3142   177.5837 </r>
       <r>    -6.0171     4.5394   178.1468 </r>
       <r>    -5.8931    12.3968   179.6846 </r>
       <r>    -5.7690    11.7232   181.1389 </r>
       <r>    -5.6450     8.0090   182.1324 </r>
       <r>    -5.5209     4.6137   182.7047 </r>
       <r>    -5.3969     6.9659   183.5688 </r>
       <r>    -5.2728     2.5134   183.8806 </r>
       <r>    -5.1488    14.7938   185.7158 </r>
       <r>    -5.0247    17.2494   187.8556 </r>
       <r>    -4.9007    17.0108   189.9658 </r>
       <r>    -4.7766     4.9499   190.5798 </r>
       <r>    -4.6526     6.3348   191.3656 </r>
       <r>    -4.5285     4.2553   191.8935 </r>
       <r>    -4.4045     7.6975   192.8484 </r>
       <r>    -4.2804    13.7477   194.5538 </r>
       <r>    -4.1564    13.6611   196.2485 </r>
       <r>    -4.0323    10.0386   197.4938 </r>
       <r>    -3.9083    12.8127   199.0832 </r>
       <r>    -3.7842     5.0782   199.7131 </r>
       <r>    -3.6602     2.2900   199.9972 </r>
       <r>    -3.5361     0.8465   200.1022 </r>
       <r>    -3.4121     1.4850   200.2864 </r>
       <r>    -3.2880     5.8655   201.0141 </r>
       <r>    -3.1640     2.1635   201.2824 </r>
       <r>    -3.0399     1.7365   201.4978 </r>
       <r>    -2.9159     0.0210   201.5005 </r>
       <r>    -2.7918     1.5885   201.6975 </r>
       <r>    -2.6678     2.3903   201.9940 </r>
       <r>    -2.5437     0.0481   202.0000 </r>
       <r>    -2.4197     0.0037   202.0005 </r>
       <r>    -2.2956     2.5067   202.3114 </r>
       <r>    -2.1716     1.5199   202.5000 </r>
       <r>    -2.0475     0.1106   202.5137 </r>
       <r>    -1.9235     1.8660   202.7451 </r>
       <r>    -1.7994     3.1882   203.1406 </r>
       <r>    -1.6754     4.7196   203.7261 </r>
       <r>    -1.5513     2.1248   203.9897 </r>
       <r>    -1.4273     0.1324   204.0061 </r>
       <r>    -1.3032     4.7000   204.5892 </r>
       <r>    -1.1792     3.5289   205.0269 </r>
       <r>    -1.0551     9.3326   206.1846 </r>
       <r>    -0.9311    17.6112   208.3693 </r>
       <r>    -0.8070     3.9926   208.8646 </r>
       <r>    -0.6830     8.4558   209.9135 </r>
       <r>    -0.5589    12.5878   211.4750 </r>
       <r>    -0.4349     5.9990   212.2192 </r>
       <r>    -0.3108     5.5098   212.9027 </r>
       <r>    -0.1868     5.1353   213.5397 </r>
       <r>    -0.0627     9.5165   214.7203 </r>
       <r>     0.0613    13.2702   216.3664 </r>
       <r>     0.1854    11.9351   217.8470 </r>
       <r>     0.3094     1.4483   218.0266 </r>
       <r>     0.4335     4.8234   218.6250 </r>
       <r>     0.5575     5.4501   219.3011 </r>
       <r>     0.6816     5.4369   219.9755 </r>
       <r>     0.8056     7.4431   220.8988 </r>
       <r>     0.9297     5.6285   221.5971 </r>
       <r>     1.0537    11.2631   222.9942 </r>
       <r>     1.1778     6.4786   223.7979 </r>
       <r>     1.3018     7.9125   224.7795 </r>
       <r>     1.4259    21.2244   227.4124 </r>
       <r>     1.5499    16.6384   229.4763 </r>
       <r>     1.6740     6.9853   230.3429 </r>
       <r>     1.7980     7.6154   231.2876 </r>
       <r>     1.9221    10.1054   232.5411 </r>
       <r>     2.0461    27.6164   235.9670 </r>
       <r>     2.1702    14.1618   237.7237 </r>
       <r>     2.2942    10.4658   239.0220 </r>
       <r>     2.4183    19.7812   241.4759 </r>
       <r>     2.5423    22.2825   244.2400 </r>
       <r>     2.6664    10.1291   245.4965 </r>
       <r>     2.7904    16.7757   247.5776 </r>
       <r>     2.9145    34.4764   251.8544 </r>
       <r>     3.0385    45.7299   257.5272 </r>
       <r>     3.1626    12.7018   259.1028 </r>
       <r>     3.2866    13.4917   260.7765 </r>
       <r>     3.4107    18.0307   263.0132 </r>
       <r>     3.5347    25.8241   266.2167 </r>
       <r>     3.6588    17.5098   268.3888 </r>
       <r>     3.7828    16.9449   270.4908 </r>
       <r>     3.9069    27.5420   273.9074 </r>
       <r>     4.0309    29.6811   277.5893 </r>
       <r>     4.1550    15.9565   279.5687 </r>
       <r>     4.2790     3.4508   279.9968 </r>
       <r>     4.4031     0.0259   280.0000 </r>
       <r>     4.5271     0.0000   280.0000 </r>
       <r>     4.6512     0.0000   280.0000 </r>
       <r>     4.7752     0.0000   280.0000 </r>
       <r>     4.8993     0.0000   280.0000 </r>
       <r>     5.0233     0.0000   280.0000 </r>
       <r>     5.1474     0.0000   280.0000 </r>
       <r>     5.2714     0.0000   280.0000 </r>
       <r>     5.3955     0.0000   280.0000 </r>
       <r>     5.5195     0.0000   280.0000 </r>
       <r>     5.6436     0.0000   280.0000 </r>
       <r>     5.7676     0.0000   280.0000 </r>
       <r>     5.8917     0.0000   280.0000 </r>
      </set>
     </set>
    </array>
   </total>
  </dos>
 </calculation>
 <structure name="finalpos" >
  <crystal>
   <varray name="basis" >
    <v>      17.27103806       0.00000000       0.00000000 </v>
    <v>      -8.63551903      14.95715771       0.00000000 </v>
    <v>       0.00000000       0.00000000      15.00000000 </v>
   </varray>
   <i name="volume">   3874.88459904 </i>
   <varray name="rec_basis" >
    <v>       0.05790040       0.03342881      -0.00000000 </v>
    <v>       0.00000000       0.06685762       0.00000000 </v>
    <v>       0.00000000      -0.00000000       0.06666667 </v>
   </varray>
  </crystal>
  <varray name="positions" >
   <v>       0.00122120       0.00059888       0.50278027 </v>
   <v>       0.00045779       0.14298141       0.50634023 </v>
   <v>       0.00040327       0.28589394       0.50607784 </v>
   <v>       0.00080496       0.42893677       0.50517199 </v>
   <v>       0.00125158       0.57203597       0.50062879 </v>
   <v>       0.00234656       0.71543253       0.49796198 </v>
   <v>       0.00285129       0.85879128       0.49893385 </v>
   <v>       0.14449908       0.00125703       0.49308348 </v>
   <v>       0.14363843       0.14368754       0.49701379 </v>
   <v>       0.14278358       0.28611098       0.49469042 </v>
   <v>       0.14335540       0.42931467       0.49259555 </v>
   <v>       0.14400356       0.57190226       0.49445442 </v>
   <v>       0.14418629       0.71489900       0.49313099 </v>
   <v>       0.14458140       0.85815081       0.49244278 </v>
   <v>       0.28691759       0.00063093       0.49132621 </v>
   <v>       0.28673767       0.14333205       0.48927362 </v>
   <v>       0.28571280       0.28679633       0.48388403 </v>
   <v>       0.28265627       0.42747738       0.46277714 </v>
   <v>       0.28699838       0.57278121       0.47311690 </v>
   <v>       0.28640483       0.71535058       0.48713621 </v>
   <v>       0.28658064       0.85807000       0.49121285 </v>
   <v>       0.42974730       0.00024741       0.49503133 </v>
   <v>       0.42949219       0.14296429       0.49431443 </v>
   <v>       0.42531280       0.27975275       0.51148761 </v>
   <v>       0.42860938       0.85691351       0.49288766 </v>
   <v>       0.57181243       0.99893951       0.50348745 </v>
   <v>       0.57222954       0.14238530       0.50570010 </v>
   <v>       0.57301065       0.28574982       0.49997991 </v>
   <v>       0.57008219       0.85398212       0.49940559 </v>
   <v>       0.71395592       0.99776749       0.50986257 </v>
   <v>       0.71483471       0.14202998       0.51117559 </v>
   <v>       0.71532324       0.28580561       0.51099567 </v>
   <v>       0.71572500       0.42952919       0.50472841 </v>
   <v>       0.72287203       0.57798740       0.52684934 </v>
   <v>       0.71445706       0.85424492       0.51083483 </v>
   <v>       0.85759010       0.99936416       0.51091103 </v>
   <v>       0.85727162       0.14221094       0.51162558 </v>
   <v>       0.85775363       0.28558905       0.51192284 </v>
   <v>       0.85833461       0.42913967       0.51062482 </v>
   <v>       0.85915870       0.57308779       0.50424821 </v>
   <v>       0.86149642       0.71682992       0.50702638 </v>
   <v>       0.85954871       0.85749371       0.50889322 </v>
   <v>       0.04856656       0.09587913       0.50255138 </v>
   <v>       0.04771985       0.23818041       0.50328662 </v>
   <v>       0.04817253       0.38131809       0.50232745 </v>
   <v>       0.04881513       0.52422542       0.50080407 </v>
   <v>       0.04914320       0.66734903       0.49673425 </v>
   <v>       0.04969137       0.81059472       0.49582184 </v>
   <v>       0.04943517       0.95359658       0.49796627 </v>
   <v>       0.19149908       0.09610260       0.49152574 </v>
   <v>       0.19046627       0.23882341       0.49343600 </v>
   <v>       0.18964416       0.38096515       0.48572189 </v>
   <v>       0.19183554       0.52470129       0.48841590 </v>
   <v>       0.19135125       0.66722825       0.49105583 </v>
   <v>       0.19174788       0.81030624       0.49166911 </v>
   <v>       0.19197689       0.95328872       0.49144255 </v>
   <v>       0.33442521       0.09582289       0.49165170 </v>
   <v>       0.33401211       0.23858936       0.49295750 </v>
   <v>       0.32583144       0.37631470       0.45771687 </v>
   <v>       0.32626817       0.52165278       0.45000237 </v>
   <v>       0.33691366       0.67080375       0.47997359 </v>
   <v>       0.33383556       0.81018904       0.49024316 </v>
   <v>       0.33441082       0.95302018       0.49200434 </v>
   <v>       0.47739735       0.09535563       0.49741834 </v>
   <v>       0.47679917       0.23801035       0.50021127 </v>
   <v>       0.47259347       0.80551123       0.49152414 </v>
   <v>       0.47693706       0.95220175       0.49731222 </v>
   <v>       0.61950327       0.09430558       0.50775586 </v>
   <v>       0.62021620       0.23796115       0.50808963 </v>
   <v>       0.62452759       0.37850975       0.48553239 </v>
   <v>       0.62099480       0.81077424       0.50216580 </v>
   <v>       0.61849633       0.94991577       0.50498325 </v>
   <v>       0.76195466       0.09386572       0.51151721 </v>
   <v>       0.76262436       0.23760874       0.51206874 </v>
   <v>       0.76297744       0.38131993       0.51180408 </v>
   <v>       0.76341506       0.52660347       0.51014073 </v>
   <v>       0.76733549       0.67275406       0.51972891 </v>
   <v>       0.76379962       0.80557927       0.51504966 </v>
   <v>       0.76197200       0.95029281       0.51142319 </v>
   <v>       0.90499545       0.09461251       0.51023745 </v>
   <v>       0.90507532       0.23777003       0.51069739 </v>
   <v>       0.90550487       0.38123916       0.51023227 </v>
   <v>       0.90598601       0.52462376       0.50444440 </v>
   <v>       0.90742167       0.66804085       0.50267476 </v>
   <v>       0.90814091       0.81134586       0.50469805 </v>
   <v>       0.90600653       0.95249886       0.50758215 </v>
   <v>       0.46467299       0.36187991       0.54967950 </v>
   <v>       0.40956557       0.41528012       0.42437200 </v>
   <v>       0.40702619       0.56238313       0.41164954 </v>
   <v>       0.63705163       0.53739229       0.55434018 </v>
   <v>       0.58522763       0.41916670       0.44335111 </v>
   <v>       0.57702446       0.72147810       0.49338353 </v>
   <v>       0.42654976       0.71560517       0.48306494 </v>
   <v>       0.72049539       0.71640736       0.52432396 </v>
   <v>       0.52400374       0.60278330       0.55909560 </v>
   <v>       0.49839813       0.50537717       0.54590899 </v>
   <v>       0.47542383       0.54217677       0.56977595 </v>
  </varray>
  <varray name="selective"  type="logical" >
   <v type="logical" >  T  T  T </v>
   <v type="logical" >  T  T  T </v>
   <v type="logical" >  T  T  T </v>
   <v type="logical" >  T  T  T </v>
   <v type="logical" >  T  T  T </v>
   <v type="logical" >  T  T  T </v>
   <v type="logical" >  T  T  T </v>
   <v type="logical" >  T  T  T </v>
   <v type="logical" >  T  T  T </v>
   <v type="logical" >  T  T  T </v>
   <v type="logical" >  T  T  T </v>
   <v type="logical" >  T  T  T </v>
   <v type="logical" >  T  T  T </v>
   <v type="logical" >  T  T  T </v>
   <v type="logical" >  T  T  T </v>
   <v type="logical" >  T  T  T </v>
   <v type="logical" >  T  T  T </v>
   <v type="logical" >  T  T  T </v>
   <v type="logical" >  T  T  T </v>
   <v type="logical" >  T  T  T </v>
   <v type="logical" >  T  T  T </v>
   <v type="logical" >  T  T  T </v>
   <v type="logical" >  T  T  T </v>
   <v type="logical" >  T  T  T </v>
   <v type="logical" >  T  T  T </v>
   <v type="logical" >  T  T  T </v>
   <v type="logical" >  T  T  T </v>
   <v type="logical" >  T  T  T </v>
   <v type="logical" >  T  T  T </v>
   <v type="logical" >  T  T  T </v>
   <v type="logical" >  T  T  T </v>
   <v type="logical" >  T  T  T </v>
   <v type="logical" >  T  T  T </v>
   <v type="logical" >  T  T  T </v>
   <v type="logical" >  T  T  T </v>
   <v type="logical" >  T  T  T </v>
   <v type="logical" >  T  T  T </v>
   <v type="logical" >  T  T  T </v>
   <v type="logical" >  T  T  T </v>
   <v type="logical" >  T  T  T </v>
   <v type="logical" >  T  T  T </v>
   <v type="logical" >  T  T  T </v>
   <v type="logical" >  T  T  T </v>
   <v type="logical" >  T  T  T </v>
   <v type="logical" >  T  T  T </v>
   <v type="logical" >  T  T  T </v>
   <v type="logical" >  T  T  T </v>
   <v type="logical" >  T  T  T </v>
   <v type="logical" >  T  T  T </v>
   <v type="logical" >  T  T  T </v>
   <v type="logical" >  T  T  T </v>
   <v type="logical" >  T  T  T </v>
   <v type="logical" >  T  T  T </v>
   <v type="logical" >  T  T  T </v>
   <v type="logical" >  T  T  T </v>
   <v type="logical" >  T  T  T </v>
   <v type="logical" >  T  T  T </v>
   <v type="logical" >  T  T  T </v>
   <v type="logical" >  T  T  T </v>
   <v type="logical" >  T  T  T </v>
   <v type="logical" >  T  T  T </v>
   <v type="logical" >  T  T  T </v>
   <v type="logical" >  T  T  T </v>
   <v type="logical" >  T  T  T </v>
   <v type="logical" >  T  T  T </v>
   <v type="logical" >  T  T  T </v>
   <v type="logical" >  T  T  T </v>
   <v type="logical" >  T  T  T </v>
   <v type="logical" >  T  T  T </v>
   <v type="logical" >  T  T  T </v>
   <v type="logical" >  T  T  T </v>
   <v type="logical" >  T  T  T </v>
   <v type="logical" >  T  T  T </v>
   <v type="logical" >  T  T  T </v>
   <v type="logical" >  T  T  T </v>
   <v type="logical" >  T  T  T </v>
   <v type="logical" >  T  T  T </v>
   <v type="logical" >  T  T  T </v>
   <v type="logical" >  T  T  T </v>
   <v type="logical" >  T  T  T </v>
   <v type="logical" >  T  T  T </v>
   <v type="logical" >  T  T  T </v>
   <v type="logical" >  T  T  T </v>
   <v type="logical" >  T  T  T </v>
   <v type="logical" >  T  T  T </v>
   <v type="logical" >  T  T  T </v>
   <v type="logical" >  T  T  T </v>
   <v type="logical" >  T  T  T </v>
   <v type="logical" >  T  T  T </v>
   <v type="logical" >  T  T  T </v>
   <v type="logical" >  T  T  T </v>
   <v type="logical" >  T  T  T </v>
   <v type="logical" >  T  T  T </v>
   <v type="logical" >  T  T  T </v>
   <v type="logical" >  T  T  T </v>
   <v type="logical" >  T  T  T </v>
   <v type="logical" >  T  T  F </v>
  </varray>
  <nose>
   <v>      -3.00000000       0.00000000       0.00010000       0.00010000 </v>
  </nose>
 </structure>
</modeling>
