unknown system                          
            1
    17.271038    0.000000    0.000000
    -8.635519   14.957158    0.000000
     0.000000    0.000000   15.000000
   C    F    N    H    O 
    86     6     2     2     1
Direct configuration=     1
   0.00117340  0.00057767  0.50271582
   0.00039227  0.14294780  0.50635748
   0.00034272  0.28586141  0.50614702
   0.00073286  0.42889378  0.50522291
   0.00117881  0.57199239  0.50054883
   0.00228300  0.71539451  0.49775389
   0.00281117  0.85877121  0.49874037
   0.14446231  0.00124317  0.49305774
   0.14358707  0.14366052  0.49720407
   0.14275309  0.28607765  0.49524956
   0.14332781  0.42929358  0.49332332
   0.14394646  0.57186538  0.49497496
   0.14411821  0.71486158  0.49329455
   0.14453047  0.85811799  0.49240326
   0.28687410  0.00061052  0.49141413
   0.28671738  0.14333630  0.48959537
   0.28571476  0.28679214  0.48466205
   0.28272280  0.42753660  0.46403445
   0.28700920  0.57278314  0.47422835
   0.28634099  0.71532551  0.48779010
   0.28652827  0.85804619  0.49147735
   0.42969085  0.00020951  0.49523845
   0.42944356  0.14292899  0.49454892
   0.42531228  0.27970662  0.51210867
   0.42854939  0.85688388  0.49336542
   0.57176058  0.99892130  0.50365779
   0.57217840  0.14236528  0.50574306
   0.57294694  0.28571188  0.50008672
   0.57003535  0.85397851  0.49977802
   0.71391322  0.99776144  0.50984044
   0.71478607  0.14202059  0.51100454
   0.71527114  0.28578592  0.51073022
   0.71561820  0.42950014  0.50439753
   0.72287074  0.57797684  0.52661053
   0.71442541  0.85424188  0.51086216
   0.85753787  0.99934337  0.51085301
   0.85721105  0.14218986  0.51138961
   0.85769223  0.28555967  0.51163673
   0.85824131  0.42909433  0.51025573
   0.85909940  0.57304835  0.50386664
   0.86144873  0.71681332  0.50674266
   0.85950615  0.85747669  0.50876024
   0.04851289  0.09584586  0.50259972
   0.04767040  0.23814301  0.50348220
   0.04811970  0.38128505  0.50260167
   0.04874374  0.52418970  0.50099045
   0.04907203  0.66730944  0.49668025
   0.04964654  0.81057435  0.49565972
   0.04940119  0.95359214  0.49786406
   0.19146573  0.09609280  0.49166770
   0.19044076  0.23879346  0.49395242
   0.18964390  0.38094909  0.48663595
   0.19181723  0.52468253  0.48927206
   0.19128297  0.66719364  0.49150063
   0.19168980  0.81027406  0.49178615
   0.19193187  0.95327347  0.49143874
   0.33437371  0.09580088  0.49183960
   0.33400915  0.23859304  0.49353761
   0.32589668  0.37640317  0.45891401
   0.32636513  0.52169446  0.45125416
   0.33685180  0.67076950  0.48094632
   0.33377629  0.81016662  0.49072965
   0.33434580  0.95299221  0.49217717
   0.47733424  0.09531455  0.49757786
   0.47674451  0.23795793  0.50054037
   0.47252795  0.80548248  0.49217956
   0.47687338  0.95217204  0.49758219
   0.61944874  0.09428916  0.50775180
   0.62017264  0.23794317  0.50803572
   0.62435760  0.37845481  0.48549157
   0.62096215  0.81077603  0.50231375
   0.61844697  0.94990535  0.50517020
   0.76190433  0.09385725  0.51132592
   0.76257067  0.23758898  0.51180252
   0.76289134  0.38129384  0.51141745
   0.76336795  0.52658326  0.50976313
   0.76730843  0.67275119  0.51953091
   0.76376445  0.80556656  0.51498160
   0.76193163  0.95028238  0.51141264
   0.90493391  0.09458102  0.51011273
   0.90502108  0.23774612  0.51048981
   0.90542872  0.38120579  0.50998634
   0.90591704  0.52457964  0.50412324
   0.90736270  0.66801890  0.50234281
   0.90810885  0.81134182  0.50447460
   0.90596653  0.95247729  0.50751658
   0.46474214  0.36172417  0.55053782
   0.40975823  0.41552224  0.42595639
   0.40700942  0.56230064  0.41269981
   0.63712117  0.53733120  0.55428190
   0.58478394  0.41897549  0.44355570
   0.57700814  0.72151363  0.49335050
   0.42648080  0.71555840  0.48409066
   0.72045791  0.71638494  0.52426290
   0.52622082  0.60347511  0.56034375
   0.49904942  0.50587824  0.54541433
   0.47676545  0.54306880  0.56977595
Direct configuration=     2
   0.00117417  0.00057411  0.50271650
   0.00039533  0.14294623  0.50635712
   0.00034673  0.28586074  0.50614615
   0.00073523  0.42889695  0.50522275
   0.00118072  0.57199463  0.50054920
   0.00228721  0.71539911  0.49775513
   0.00281279  0.85877374  0.49874168
   0.14446202  0.00124273  0.49305827
   0.14358798  0.14365898  0.49720203
   0.14275560  0.28607634  0.49524511
   0.14333001  0.42929247  0.49331749
   0.14394669  0.57186596  0.49497009
   0.14411875  0.71486374  0.49329240
   0.14453290  0.85812500  0.49240316
   0.28686980  0.00061108  0.49141283
   0.28671511  0.14333512  0.48959297
   0.28571497  0.28679194  0.48465713
   0.28272326  0.42753467  0.46402296
   0.28700801  0.57278118  0.47421723
   0.28634036  0.71532583  0.48778378
   0.28652371  0.85804670  0.49147600
   0.42968324  0.00020839  0.49523641
   0.42943945  0.14292666  0.49454800
   0.42530849  0.27970624  0.51210261
   0.42854625  0.85688338  0.49336276
   0.57175846  0.99892114  0.50365684
   0.57217664  0.14236502  0.50574278
   0.57294824  0.28571434  0.50008574
   0.57003617  0.85397769  0.49977364
   0.71391424  0.99776056  0.50984031
   0.71478442  0.14202034  0.51100661
   0.71527182  0.28578707  0.51073300
   0.71561929  0.42950151  0.50439958
   0.72287569  0.57798288  0.52661187
   0.71442902  0.85424208  0.51086233
   0.85754200  0.99934012  0.51085355
   0.85721431  0.14219065  0.51139073
   0.85769484  0.28556321  0.51163986
   0.85824404  0.42909704  0.51025857
   0.85910678  0.57305323  0.50386886
   0.86145213  0.71681967  0.50674333
   0.85950757  0.85747539  0.50876108
   0.04851216  0.09585142  0.50259993
   0.04766824  0.23814444  0.50348035
   0.04811882  0.38128465  0.50259958
   0.04874437  0.52418861  0.50098900
   0.04907223  0.66730788  0.49668046
   0.04964539  0.81057068  0.49566104
   0.04940102  0.95359286  0.49786517
   0.19146923  0.09609564  0.49166616
   0.19043884  0.23879400  0.49394859
   0.18964043  0.38095181  0.48662836
   0.19181763  0.52468244  0.48926465
   0.19128348  0.66719255  0.49149763
   0.19169110  0.81027114  0.49178456
   0.19193345  0.95327172  0.49143885
   0.33437805  0.09580346  0.49183839
   0.33401352  0.23859587  0.49353344
   0.32589619  0.37640274  0.45890532
   0.32636491  0.52169515  0.45124257
   0.33685315  0.67076947  0.48093547
   0.33377971  0.81016620  0.49072627
   0.33435266  0.95299267  0.49217574
   0.47733863  0.09531645  0.49757723
   0.47674804  0.23795916  0.50053781
   0.47252965  0.80548368  0.49217392
   0.47688089  0.95217247  0.49758147
   0.61945148  0.09428969  0.50775207
   0.62017360  0.23794354  0.50803662
   0.62435837  0.37845031  0.48549389
   0.62095995  0.81077474  0.50231111
   0.61844785  0.94990616  0.50516853
   0.76190473  0.09385753  0.51132728
   0.76257138  0.23758828  0.51180554
   0.76289034  0.38129194  0.51142022
   0.76336472  0.52658095  0.50976639
   0.76730483  0.67274209  0.51953291
   0.76376200  0.80556642  0.51498174
   0.76192982  0.95028382  0.51141218
   0.90493266  0.09458315  0.51011379
   0.90501957  0.23774514  0.51049146
   0.90542533  0.38119994  0.50998925
   0.90591405  0.52457785  0.50412562
   0.90735875  0.66801332  0.50234549
   0.90810730  0.81133876  0.50447603
   0.90596612  0.95248373  0.50751774
   0.46474448  0.36172637  0.55053132
   0.40975496  0.41551798  0.42594150
   0.40701073  0.56229885  0.41269030
   0.63711590  0.53732931  0.55428276
   0.58478615  0.41897850  0.44355509
   0.57700838  0.72151607  0.49335070
   0.42648096  0.71555819  0.48408005
   0.72045968  0.71638814  0.52426257
   0.52620023  0.60346993  0.56033312
   0.49904313  0.50587433  0.54542105
   0.47675288  0.54306221  0.56977595
Direct configuration=     3
   0.00117495  0.00057521  0.50271824
   0.00039595  0.14294738  0.50635680
   0.00034836  0.28586032  0.50614475
   0.00073596  0.42889739  0.50522269
   0.00118150  0.57199494  0.50055016
   0.00228697  0.71539846  0.49775912
   0.00281365  0.85877396  0.49874442
   0.14446336  0.00124371  0.49305918
   0.14358868  0.14365965  0.49719819
   0.14275550  0.28607668  0.49523647
   0.14333003  0.42929235  0.49330630
   0.14394763  0.57186628  0.49496251
   0.14411969  0.71486355  0.49328841
   0.14453257  0.85812251  0.49240343
   0.28687279  0.00061213  0.49141204
   0.28671863  0.14333408  0.48958968
   0.28571538  0.28679250  0.48464728
   0.28272168  0.42753349  0.46400082
   0.28700683  0.57277982  0.47419521
   0.28634142  0.71532550  0.48777124
   0.28652798  0.85804775  0.49147247
   0.42968292  0.00020845  0.49523320
   0.42944066  0.14292711  0.49454638
   0.42531214  0.27970762  0.51209401
   0.42854733  0.85688383  0.49335756
   0.57176013  0.99892206  0.50365529
   0.57217797  0.14236582  0.50574264
   0.57294978  0.28571491  0.50008449
   0.57003709  0.85397800  0.49976515
   0.71391504  0.99776123  0.50984000
   0.71478712  0.14202148  0.51100894
   0.71527261  0.28578680  0.51073856
   0.71562029  0.42950164  0.50440391
   0.72287573  0.57798313  0.52661647
   0.71443000  0.85424281  0.51086202
   0.85754118  0.99934098  0.51085430
   0.85721607  0.14219200  0.51139318
   0.85769598  0.28556366  0.51164613
   0.85824461  0.42909687  0.51026452
   0.85910481  0.57305265  0.50387373
   0.86145202  0.71681930  0.50674550
   0.85950814  0.85747598  0.50876294
   0.04851430  0.09585201  0.50259976
   0.04766978  0.23814488  0.50347637
   0.04811996  0.38128525  0.50259532
   0.04874578  0.52418956  0.50098606
   0.04907388  0.66730891  0.49668073
   0.04964699  0.81057223  0.49566347
   0.04940207  0.95359350  0.49786730
   0.19146859  0.09609601  0.49166470
   0.19044104  0.23879534  0.49394081
   0.18963874  0.38095258  0.48661275
   0.19181796  0.52468208  0.48924998
   0.19128363  0.66719264  0.49149122
   0.19169077  0.81027160  0.49178152
   0.19193423  0.95327261  0.49143900
   0.33437781  0.09580408  0.49183568
   0.33401144  0.23859492  0.49352500
   0.32589479  0.37639999  0.45888814
   0.32636435  0.52169355  0.45121954
   0.33685488  0.67077018  0.48091826
   0.33377934  0.81016742  0.49072141
   0.33435325  0.95299317  0.49217270
   0.47733864  0.09531671  0.49757544
   0.47674885  0.23795990  0.50053275
   0.47253014  0.80548399  0.49216254
   0.47687825  0.95217291  0.49757833
   0.61945239  0.09429052  0.50775257
   0.62017456  0.23794416  0.50803847
   0.62436178  0.37845334  0.48549496
   0.62096115  0.81077527  0.50230673
   0.61844892  0.94990667  0.50516516
   0.76190598  0.09385787  0.51133001
   0.76257246  0.23758886  0.51181162
   0.76289165  0.38129251  0.51142574
   0.76336508  0.52658137  0.50977252
   0.76730667  0.67274595  0.51953538
   0.76376317  0.80556691  0.51498198
   0.76193084  0.95028391  0.51141154
   0.90493432  0.09458333  0.51011566
   0.90502130  0.23774580  0.51049459
   0.90542498  0.38119811  0.50999469
   0.90591503  0.52457832  0.50413013
   0.90736147  0.66801424  0.50234834
   0.90810862  0.81133995  0.50447862
   0.90596674  0.95248151  0.50751919
   0.46474782  0.36172996  0.55051842
   0.40974941  0.41551021  0.42591170
   0.40701362  0.56229623  0.41267087
   0.63711877  0.53733302  0.55428645
   0.58478948  0.41897863  0.44355146
   0.57700726  0.72151799  0.49335078
   0.42648253  0.71555922  0.48405935
   0.72046010  0.71638841  0.52426268
   0.52616145  0.60346057  0.56031301
   0.49903121  0.50586699  0.54543398
   0.47672722  0.54304843  0.56977595
Direct configuration=     4
   0.00117700  0.00057568  0.50272093
   0.00039834  0.14294781  0.50635638
   0.00035035  0.28586173  0.50614265
   0.00073671  0.42889710  0.50522266
   0.00118307  0.57199603  0.50055171
   0.00229254  0.71540150  0.49776289
   0.00281585  0.85877556  0.49874876
   0.14446467  0.00124479  0.49306071
   0.14359119  0.14366121  0.49719278
   0.14275734  0.28607814  0.49522272
   0.14333370  0.42929806  0.49329027
   0.14394915  0.57186645  0.49495073
   0.14412106  0.71486457  0.49328287
   0.14453786  0.85813164  0.49240328
   0.28686989  0.00061289  0.49140820
   0.28671516  0.14333820  0.48958226
   0.28571574  0.28679172  0.48463205
   0.28271853  0.42753040  0.46396792
   0.28700745  0.57277929  0.47416167
   0.28634228  0.71532600  0.48775359
   0.28652016  0.85804589  0.49146815
   0.42968388  0.00020978  0.49522863
   0.42944190  0.14292788  0.49454329
   0.42531193  0.27970876  0.51208040
   0.42854749  0.85688478  0.49334951
   0.57176014  0.99892297  0.50365264
   0.57217899  0.14236639  0.50574261
   0.57294767  0.28571292  0.50008079
   0.57003629  0.85397756  0.49975513
   0.71391658  0.99776198  0.50983964
   0.71478938  0.14202247  0.51101297
   0.71527447  0.28578748  0.51074700
   0.71562304  0.42950332  0.50441108
   0.72287886  0.57798650  0.52662298
   0.71443129  0.85424295  0.51086111
   0.85754262  0.99934056  0.51085562
   0.85721838  0.14219278  0.51139729
   0.85769738  0.28556284  0.51165567
   0.85824632  0.42909671  0.51027375
   0.85910579  0.57305293  0.50388115
   0.86145501  0.71682138  0.50674906
   0.85950987  0.85747612  0.50876585
   0.04851397  0.09585525  0.50259962
   0.04767158  0.23814490  0.50347062
   0.04812060  0.38128529  0.50258922
   0.04874697  0.52418995  0.50098207
   0.04907484  0.66730888  0.49668143
   0.04964723  0.81057138  0.49566749
   0.04940377  0.95359453  0.49787066
   0.19147121  0.09609647  0.49166229
   0.19043795  0.23879369  0.49392970
   0.18963863  0.38095174  0.48658889
   0.19181819  0.52468202  0.48922773
   0.19128590  0.66719276  0.49148052
   0.19169380  0.81027165  0.49177707
   0.19193694  0.95327304  0.49143946
   0.33438168  0.09580412  0.49183220
   0.33401526  0.23859525  0.49351332
   0.32589338  0.37639792  0.45886062
   0.32636399  0.52169146  0.45118437
   0.33685600  0.67076998  0.48089126
   0.33378148  0.81016692  0.49071298
   0.33435116  0.95299299  0.49216950
   0.47734023  0.09531770  0.49757300
   0.47675218  0.23796092  0.50052545
   0.47253328  0.80548535  0.49214787
   0.47688740  0.95217417  0.49757530
   0.61945510  0.09429175  0.50775337
   0.62017597  0.23794484  0.50804139
   0.62436239  0.37844763  0.48549783
   0.62096362  0.81077808  0.50230077
   0.61845018  0.94990754  0.50515999
   0.76190871  0.09385912  0.51133397
   0.76257464  0.23758937  0.51182081
   0.76289487  0.38129165  0.51143209
   0.76336519  0.52658190  0.50978168
   0.76730817  0.67274658  0.51953937
   0.76376410  0.80556816  0.51498277
   0.76193188  0.95028516  0.51141086
   0.90493574  0.09458440  0.51011840
   0.90502249  0.23774362  0.51049819
   0.90542824  0.38120199  0.51000003
   0.90591555  0.52457848  0.50413714
   0.90736098  0.66801397  0.50235356
   0.90811009  0.81134008  0.50448262
   0.90596735  0.95248236  0.50752169
   0.46474145  0.36172529  0.55050236
   0.40974630  0.41550285  0.42587171
   0.40701716  0.56229209  0.41264074
   0.63711418  0.53733336  0.55429090
   0.58479896  0.41898548  0.44355120
   0.57700550  0.72151872  0.49335091
   0.42648479  0.71556076  0.48402926
   0.72046155  0.71639024  0.52426297
   0.52610440  0.60344577  0.56028395
   0.49901411  0.50585631  0.54545262
   0.47668994  0.54302868  0.56977595
Direct configuration=     5
   0.00117754  0.00057942  0.50272426
   0.00039792  0.14295085  0.50635611
   0.00035259  0.28586097  0.50613985
   0.00073983  0.42889974  0.50522189
   0.00118325  0.57199544  0.50055372
   0.00228593  0.71539694  0.49776963
   0.00281643  0.85877481  0.49875397
   0.14446709  0.00124559  0.49306251
   0.14358810  0.14366020  0.49718728
   0.14275555  0.28607819  0.49520659
   0.14333227  0.42929424  0.49327079
   0.14395023  0.57186746  0.49493638
   0.14412285  0.71486306  0.49327677
   0.14453165  0.85811532  0.49240407
   0.28688170  0.00061611  0.49140727
   0.28672658  0.14333098  0.48957678
   0.28571134  0.28678804  0.48461992
   0.28271724  0.42752841  0.46392879
   0.28700450  0.57278013  0.47412551
   0.28634640  0.71532641  0.48773358
   0.28653877  0.85805067  0.49146173
   0.42968640  0.00020752  0.49522417
   0.42944476  0.14292896  0.49453918
   0.42531589  0.27970585  0.51206282
   0.42855289  0.85688581  0.49334016
   0.57176967  0.99892657  0.50364985
   0.57218304  0.14236812  0.50574290
   0.57295662  0.28571548  0.50008028
   0.57004080  0.85398182  0.49974391
   0.71391771  0.99776335  0.50983904
   0.71479175  0.14202292  0.51101810
   0.71527549  0.28578693  0.51075626
   0.71562312  0.42949879  0.50441960
   0.72287392  0.57798537  0.52663321
   0.71442894  0.85424291  0.51085721
   0.85754401  0.99934354  0.51085745
   0.85721201  0.14218566  0.51140362
   0.85770193  0.28556571  0.51166569
   0.85824988  0.42909952  0.51028359
   0.85910640  0.57305353  0.50389027
   0.86145548  0.71682045  0.50675402
   0.85951103  0.85747740  0.50876936
   0.04851843  0.09584742  0.50259663
   0.04767452  0.23814823  0.50346394
   0.04812535  0.38128900  0.50258213
   0.04874960  0.52419130  0.50097772
   0.04907939  0.66731157  0.49668183
   0.04965604  0.81058019  0.49567145
   0.04940656  0.95359444  0.49787172
   0.19146747  0.09609694  0.49166234
   0.19044346  0.23879554  0.49391920
   0.18963949  0.38095522  0.48656117
   0.19182306  0.52468658  0.48920117
   0.19128585  0.66719359  0.49147067
   0.19168609  0.81027674  0.49177516
   0.19193537  0.95327937  0.49143943
   0.33437680  0.09580905  0.49182724
   0.33401083  0.23859704  0.49349746
   0.32589265  0.37639316  0.45882562
   0.32635873  0.52169012  0.45114515
   0.33685839  0.67077085  0.48085794
   0.33377815  0.81016999  0.49070235
   0.33435443  0.95299467  0.49216407
   0.47734065  0.09531712  0.49756996
   0.47674843  0.23796048  0.50051677
   0.47253128  0.80548474  0.49212891
   0.47687129  0.95217520  0.49756872
   0.61945673  0.09429431  0.50775413
   0.62017370  0.23793890  0.50804148
   0.62437053  0.37846437  0.48549304
   0.62096443  0.81077907  0.50229452
   0.61845130  0.94990817  0.50515411
   0.76191064  0.09386005  0.51133826
   0.76257712  0.23759062  0.51183147
   0.76289663  0.38129442  0.51144064
   0.76336636  0.52658291  0.50979240
   0.76731090  0.67275106  0.51954408
   0.76376682  0.80556917  0.51498396
   0.76193371  0.95028534  0.51141029
   0.90493823  0.09458376  0.51012136
   0.90502800  0.23775159  0.51050440
   0.90542922  0.38119880  0.51000741
   0.90591774  0.52457990  0.50414539
   0.90736802  0.66801779  0.50235938
   0.90811070  0.81134128  0.50448472
   0.90597357  0.95248281  0.50752149
   0.46474213  0.36173487  0.55048298
   0.40973915  0.41549206  0.42582145
   0.40702155  0.56228959  0.41260962
   0.63711565  0.53733794  0.55429561
   0.58480481  0.41897687  0.44354216
   0.57700683  0.72151230  0.49335252
   0.42648665  0.71556216  0.48399649
   0.72046303  0.71639126  0.52426379
   0.52603759  0.60342824  0.56024802
   0.49899380  0.50584382  0.54547293
   0.47664922  0.54300713  0.56977595
Direct configuration=     6
   0.00118236  0.00057304  0.50272488
   0.00040442  0.14294771  0.50635506
   0.00035293  0.28586936  0.50613646
   0.00074144  0.42889914  0.50522131
   0.00118731  0.57199850  0.50055489
   0.00230135  0.71540809  0.49777151
   0.00282091  0.85877952  0.49875662
   0.14446629  0.00124739  0.49306364
   0.14359455  0.14366131  0.49718359
   0.14276206  0.28608115  0.49519459
   0.14333791  0.42930208  0.49325586
   0.14395275  0.57186829  0.49492624
   0.14412474  0.71486979  0.49327342
   0.14454258  0.85814252  0.49240395
   0.28686272  0.00061246  0.49140600
   0.28671099  0.14334083  0.48957062
   0.28571560  0.28679140  0.48460749
   0.28271668  0.42752679  0.46390204
   0.28700650  0.57278011  0.47410099
   0.28634390  0.71532685  0.48772028
   0.28651504  0.85804791  0.49145828
   0.42968291  0.00021373  0.49522057
   0.42944274  0.14292781  0.49453542
   0.42530793  0.27971184  0.51205256
   0.42854371  0.85688545  0.49333385
   0.57175268  0.99892343  0.50364767
   0.57217789  0.14236358  0.50574234
   0.57295246  0.28571765  0.50007591
   0.57003885  0.85397860  0.49973742
   0.71391981  0.99776271  0.50983862
   0.71479380  0.14202603  0.51102187
   0.71527543  0.28578785  0.51076035
   0.71562898  0.42950822  0.50442524
   0.72288029  0.57798928  0.52663744
   0.71443487  0.85424466  0.51085659
   0.85754745  0.99933936  0.51085824
   0.85722617  0.14219875  0.51140664
   0.85770252  0.28556562  0.51167254
   0.85824731  0.42909627  0.51028675
   0.85910843  0.57305537  0.50389659
   0.86145898  0.71682392  0.50675713
   0.85951418  0.85747858  0.50877093
   0.04851400  0.09586018  0.50259720
   0.04767395  0.23814539  0.50345937
   0.04812438  0.38128694  0.50257744
   0.04874987  0.52419131  0.50097469
   0.04907565  0.66730838  0.49668247
   0.04964375  0.81056600  0.49567502
   0.04940397  0.95359355  0.49787356
   0.19147661  0.09609905  0.49166129
   0.19043558  0.23879405  0.49391222
   0.18964216  0.38094736  0.48654207
   0.19181676  0.52468274  0.48918574
   0.19129310  0.66719851  0.49146389
   0.19170363  0.81027040  0.49177086
   0.19194373  0.95327175  0.49143965
   0.33439096  0.09580399  0.49182461
   0.33401496  0.23858830  0.49349490
   0.32588967  0.37638897  0.45880421
   0.32635948  0.52168911  0.45111665
   0.33685951  0.67077517  0.48083697
   0.33378884  0.81016622  0.49069417
   0.33435793  0.95299471  0.49216162
   0.47734484  0.09531948  0.49756824
   0.47676173  0.23796260  0.50051049
   0.47253778  0.80548795  0.49211618
   0.47689750  0.95217625  0.49756699
   0.61946129  0.09429291  0.50775478
   0.62018134  0.23794829  0.50804463
   0.62436910  0.37844419  0.48550005
   0.62096256  0.81077570  0.50228984
   0.61845454  0.94991057  0.50515022
   0.76190828  0.09385743  0.51134124
   0.76257881  0.23759062  0.51183852
   0.76289786  0.38129017  0.51144765
   0.76336610  0.52658302  0.50979999
   0.76730752  0.67274084  0.51954834
   0.76376558  0.80557054  0.51498443
   0.76193371  0.95028686  0.51140952
   0.90493763  0.09458589  0.51012357
   0.90502434  0.23774014  0.51050762
   0.90543314  0.38120445  0.51001238
   0.90591848  0.52458036  0.50415103
   0.90736141  0.66801302  0.50236450
   0.90811057  0.81133859  0.50448702
   0.90596834  0.95248484  0.50752485
   0.46473756  0.36173035  0.55046578
   0.40973385  0.41548305  0.42578514
   0.40701760  0.56228700  0.41259003
   0.63711090  0.53733785  0.55429996
   0.58481020  0.41899236  0.44353728
   0.57700784  0.72151787  0.49335311
   0.42648827  0.71556264  0.48397464
   0.72046505  0.71639372  0.52426418
   0.52599476  0.60341872  0.56022410
   0.49898029  0.50583549  0.54548706
   0.47661890  0.54298949  0.56977595
Direct configuration=     7
   0.00118041  0.00057704  0.50272578
   0.00040173  0.14295021  0.50635504
   0.00035397  0.28586500  0.50613580
   0.00074208  0.42890019  0.50522107
   0.00118626  0.57199735  0.50055561
   0.00229460  0.71540166  0.49777358
   0.00281798  0.85877555  0.49875802
   0.14446813  0.00124661  0.49306406
   0.14359215  0.14366196  0.49718244
   0.14275862  0.28607907  0.49518999
   0.14333740  0.42929853  0.49325050
   0.14395268  0.57186956  0.49492198
   0.14412519  0.71486644  0.49327199
   0.14453959  0.85812998  0.49240428
   0.28687551  0.00061307  0.49140572
   0.28671928  0.14333573  0.48956927
   0.28571450  0.28678977  0.48460307
   0.28271609  0.42752542  0.46389041
   0.28700625  0.57278013  0.47409125
   0.28634730  0.71532804  0.48771439
   0.28652792  0.85804864  0.49145620
   0.42968961  0.00021227  0.49522007
   0.42944700  0.14292963  0.49453411
   0.42531395  0.27970929  0.51204734
   0.42855055  0.85688621  0.49333052
   0.57176303  0.99892532  0.50364692
   0.57218282  0.14236685  0.50574260
   0.57295340  0.28571455  0.50007533
   0.57004053  0.85398029  0.49973547
   0.71391937  0.99776339  0.50983836
   0.71479421  0.14202441  0.51102354
   0.71527594  0.28578749  0.51076259
   0.71562789  0.42950449  0.50442777
   0.72287700  0.57798664  0.52663990
   0.71443218  0.85424415  0.51085530
   0.85754562  0.99934307  0.51085804
   0.85722061  0.14219241  0.51140854
   0.85770315  0.28556527  0.51167552
   0.85824835  0.42909723  0.51028858
   0.85910822  0.57305461  0.50389963
   0.86145723  0.71682093  0.50675892
   0.85951267  0.85747713  0.50877150
   0.04851796  0.09585420  0.50259611
   0.04767547  0.23814844  0.50345708
   0.04812694  0.38128972  0.50257493
   0.04875161  0.52419228  0.50097328
   0.04907946  0.66731148  0.49668254
   0.04965206  0.81057521  0.49567597
   0.04940774  0.95359509  0.49787418
   0.19147236  0.09609724  0.49166074
   0.19043975  0.23879436  0.49390856
   0.18964200  0.38095143  0.48653441
   0.19181933  0.52468456  0.48917807
   0.19129028  0.66719682  0.49145997
   0.19169555  0.81027537  0.49177019
   0.19193869  0.95327607  0.49143980
   0.33438239  0.09580566  0.49182367
   0.33401053  0.23859024  0.49349181
   0.32589001  0.37638773  0.45879374
   0.32635732  0.52168792  0.45110633
   0.33685948  0.67077456  0.48082755
   0.33378157  0.81016847  0.49069087
   0.33435287  0.95299505  0.49216141
   0.47734304  0.09531859  0.49756713
   0.47675575  0.23796345  0.50050813
   0.47253560  0.80548724  0.49211046
   0.47688531  0.95217604  0.49756463
   0.61945904  0.09429398  0.50775496
   0.62017859  0.23794442  0.50804480
   0.62437199  0.37845434  0.48549687
   0.62096537  0.81077792  0.50228853
   0.61845300  0.94991087  0.50514926
   0.76191200  0.09386030  0.51134261
   0.76257990  0.23759207  0.51184151
   0.76289836  0.38129267  0.51145025
   0.76336727  0.52658385  0.50980319
   0.76731031  0.67274694  0.51954949
   0.76376784  0.80557055  0.51498471
   0.76193534  0.95028613  0.51140929
   0.90493994  0.09458535  0.51012438
   0.90502773  0.23774689  0.51050940
   0.90543348  0.38120339  0.51001452
   0.90591884  0.52458043  0.50415243
   0.90736638  0.66801674  0.50236636
   0.90811278  0.81134152  0.50448803
   0.90597288  0.95248384  0.50752489
   0.46473562  0.36173131  0.55045900
   0.40973138  0.41548050  0.42577324
   0.40701742  0.56228784  0.41258174
   0.63711182  0.53733936  0.55430139
   0.58481473  0.41899050  0.44353758
   0.57700702  0.72151733  0.49335319
   0.42648949  0.71556426  0.48396532
   0.72046527  0.71639265  0.52426457
   0.52597523  0.60341272  0.56021417
   0.49897471  0.50583176  0.54549259
   0.47660878  0.54298509  0.56977595
Direct configuration=     8
   0.00118200  0.00057756  0.50272689
   0.00040342  0.14295115  0.50635442
   0.00035649  0.28586517  0.50613428
   0.00074414  0.42890150  0.50522046
   0.00118726  0.57199783  0.50055674
   0.00229674  0.71540360  0.49777585
   0.00282014  0.85877708  0.49876046
   0.14446890  0.00124666  0.49306491
   0.14359285  0.14366140  0.49717971
   0.14275927  0.28607932  0.49517985
   0.14333816  0.42929876  0.49323925
   0.14395345  0.57186991  0.49491312
   0.14412661  0.71486776  0.49326902
   0.14453841  0.85812715  0.49240475
   0.28687549  0.00061483  0.49140598
   0.28671999  0.14333226  0.48956650
   0.28571409  0.28678844  0.48459317
   0.28271479  0.42752296  0.46386708
   0.28700587  0.57277866  0.47407282
   0.28634760  0.71532862  0.48770260
   0.28652597  0.85804882  0.49145289
   0.42968632  0.00021085  0.49521712
   0.42944604  0.14292938  0.49453091
   0.42531202  0.27970748  0.51203697
   0.42854949  0.85688597  0.49332447
   0.57176627  0.99892670  0.50364447
   0.57218392  0.14236779  0.50574256
   0.57295857  0.28571821  0.50007409
   0.57004164  0.85398104  0.49973104
   0.71392047  0.99776403  0.50983798
   0.71479533  0.14202527  0.51102694
   0.71527719  0.28578827  0.51076702
   0.71562844  0.42950385  0.50443288
   0.72287607  0.57798679  0.52664377
   0.71443467  0.85424499  0.51085449
   0.85754796  0.99934235  0.51085928
   0.85721977  0.14219124  0.51141220
   0.85770533  0.28556690  0.51168145
   0.85824997  0.42909786  0.51029242
   0.85910941  0.57305538  0.50390546
   0.86145870  0.71682217  0.50676213
   0.85951482  0.85747915  0.50877317
   0.04851883  0.09585650  0.50259593
   0.04767626  0.23814863  0.50345267
   0.04812869  0.38129011  0.50257025
   0.04875282  0.52419328  0.50097049
   0.04908083  0.66731140  0.49668299
   0.04965353  0.81057522  0.49567843
   0.04940574  0.95359327  0.49787467
   0.19147238  0.09609786  0.49165941
   0.19044105  0.23879543  0.49390138
   0.18964144  0.38095066  0.48652064
   0.19182121  0.52468587  0.48916300
   0.19129261  0.66719953  0.49145322
   0.19169575  0.81027632  0.49176850
   0.19194086  0.95327701  0.49143998
   0.33438545  0.09580682  0.49182069
   0.33401095  0.23859019  0.49348656
   0.32588889  0.37638517  0.45877323
   0.32635439  0.52168567  0.45108483
   0.33686143  0.67077543  0.48080862
   0.33378483  0.81016978  0.49068348
   0.33435692  0.95299493  0.49216095
   0.47734557  0.09531959  0.49756541
   0.47675616  0.23796311  0.50050243
   0.47253682  0.80548801  0.49209928
   0.47688513  0.95217734  0.49756214
   0.61946046  0.09429442  0.50775551
   0.62017766  0.23794206  0.50804520
   0.62437456  0.37845920  0.48549478
   0.62096634  0.81078003  0.50228549
   0.61845407  0.94991169  0.50514738
   0.76191335  0.09386048  0.51134524
   0.76258126  0.23759202  0.51184565
   0.76289878  0.38129280  0.51145570
   0.76336803  0.52658405  0.50980968
   0.76731210  0.67274974  0.51955242
   0.76376821  0.80557041  0.51498518
   0.76193536  0.95028668  0.51140858
   0.90494117  0.09458617  0.51012603
   0.90502872  0.23774646  0.51051220
   0.90543416  0.38120306  0.51001868
   0.90591924  0.52458047  0.50415540
   0.90736773  0.66801663  0.50237064
   0.90811210  0.81133993  0.50449028
   0.90597223  0.95248402  0.50752719
   0.46473324  0.36173285  0.55044457
   0.40972700  0.41547519  0.42574821
   0.40701628  0.56228902  0.41256477
   0.63711087  0.53734076  0.55430479
   0.58482133  0.41899134  0.44353484
   0.57700625  0.72151744  0.49335345
   0.42648980  0.71556505  0.48394633
   0.72046604  0.71639335  0.52426516
   0.52593819  0.60340341  0.56019373
   0.49896308  0.50582481  0.54550416
   0.47658633  0.54297248  0.56977595
Direct configuration=     9