  99  99   0   0
  0.3914025E+02  0.1727104E-08  0.1727104E-08  0.1500000E-08  0.0000000E+00
  1.000000000000000E-004
  CAR 
 unknown system                          
      6.11524715    -31.37121397  301     -2.39702884      1.00000000
    -31.371  0.0000E+00  0.0000E+00  0.0000E+00  0.0000E+00
    -31.246  0.0000E+00  0.0000E+00  0.0000E+00  0.0000E+00
    -31.121  0.0000E+00  0.0000E+00  0.0000E+00  0.0000E+00
    -30.996  0.0000E+00  0.0000E+00  0.0000E+00  0.0000E+00
    -30.871  0.0000E+00  0.0000E+00  0.0000E+00  0.0000E+00
    -30.746  0.0000E+00  0.0000E+00  0.0000E+00  0.0000E+00
    -30.621  0.0000E+00  0.0000E+00  0.0000E+00  0.0000E+00
    -30.497  0.0000E+00  0.0000E+00  0.0000E+00  0.0000E+00
    -30.372  0.0000E+00  0.0000E+00  0.0000E+00  0.0000E+00
    -30.247  0.0000E+00  0.0000E+00  0.0000E+00  0.0000E+00
    -30.122  0.0000E+00  0.0000E+00  0.0000E+00  0.0000E+00
    -29.997  0.0000E+00  0.0000E+00  0.0000E+00  0.0000E+00
    -29.872  0.2919E-10  0.2919E-10  0.3647E-11  0.3647E-11
    -29.747  0.9790E-04  0.9790E-04  0.1223E-04  0.1223E-04
    -29.622  0.7109E-02  0.7109E-02  0.9005E-03  0.9005E-03
    -29.497  0.7961E-03  0.7961E-03  0.1000E-02  0.1000E-02
    -29.372  0.5780E-08  0.5780E-08  0.1000E-02  0.1000E-02
    -29.247  0.0000E+00  0.0000E+00  0.1000E-02  0.1000E-02
    -29.122  0.0000E+00  0.0000E+00  0.1000E-02  0.1000E-02
    -28.997  0.0000E+00  0.0000E+00  0.1000E-02  0.1000E-02
    -28.872  0.0000E+00  0.0000E+00  0.1000E-02  0.1000E-02
    -28.747  0.0000E+00  0.0000E+00  0.1000E-02  0.1000E-02
    -28.622  0.0000E+00  0.0000E+00  0.1000E-02  0.1000E-02
    -28.497  0.0000E+00  0.0000E+00  0.1000E-02  0.1000E-02
    -28.372  0.0000E+00  0.0000E+00  0.1000E-02  0.1000E-02
    -28.247  0.0000E+00  0.0000E+00  0.1000E-02  0.1000E-02
    -28.122  0.0000E+00  0.0000E+00  0.1000E-02  0.1000E-02
    -27.997  0.0000E+00  0.0000E+00  0.1000E-02  0.1000E-02
    -27.872  0.0000E+00  0.0000E+00  0.1000E-02  0.1000E-02
    -27.748  0.0000E+00  0.0000E+00  0.1000E-02  0.1000E-02
    -27.623  0.0000E+00  0.0000E+00  0.1000E-02  0.1000E-02
    -27.498  0.0000E+00  0.0000E+00  0.1000E-02  0.1000E-02
    -27.373  0.0000E+00  0.0000E+00  0.1000E-02  0.1000E-02
    -27.248  0.0000E+00  0.0000E+00  0.1000E-02  0.1000E-02
    -27.123  0.0000E+00  0.0000E+00  0.1000E-02  0.1000E-02
    -26.998  0.0000E+00  0.0000E+00  0.1000E-02  0.1000E-02
    -26.873  0.0000E+00  0.0000E+00  0.1000E-02  0.1000E-02
    -26.748  0.0000E+00  0.0000E+00  0.1000E-02  0.1000E-02
    -26.623  0.0000E+00  0.0000E+00  0.1000E-02  0.1000E-02
    -26.498  0.0000E+00  0.0000E+00  0.1000E-02  0.1000E-02
    -26.373  0.0000E+00  0.0000E+00  0.1000E-02  0.1000E-02
    -26.248  0.0000E+00  0.0000E+00  0.1000E-02  0.1000E-02
    -26.123  0.0000E+00  0.0000E+00  0.1000E-02  0.1000E-02
    -25.998  0.0000E+00  0.0000E+00  0.1000E-02  0.1000E-02
    -25.873  0.0000E+00  0.0000E+00  0.1000E-02  0.1000E-02
    -25.748  0.0000E+00  0.0000E+00  0.1000E-02  0.1000E-02
    -25.623  0.0000E+00  0.0000E+00  0.1000E-02  0.1000E-02
    -25.498  0.0000E+00  0.0000E+00  0.1000E-02  0.1000E-02
    -25.373  0.0000E+00  0.0000E+00  0.1000E-02  0.1000E-02
    -25.248  0.0000E+00  0.0000E+00  0.1000E-02  0.1000E-02
    -25.123  0.0000E+00  0.0000E+00  0.1000E-02  0.1000E-02
    -24.999  0.0000E+00  0.0000E+00  0.1000E-02  0.1000E-02
    -24.874  0.0000E+00  0.0000E+00  0.1000E-02  0.1000E-02
    -24.749  0.0000E+00  0.0000E+00  0.1000E-02  0.1000E-02
    -24.624  0.0000E+00  0.0000E+00  0.1000E-02  0.1000E-02
    -24.499  0.0000E+00  0.0000E+00  0.1000E-02  0.1000E-02
    -24.374  0.2221E-17  0.2221E-17  0.1000E-02  0.1000E-02
    -24.249  0.2014E-07  0.2014E-07  0.1000E-02  0.1000E-02
    -24.124  0.1214E-02  0.1214E-02  0.1152E-02  0.1152E-02
    -23.999  0.6740E-02  0.6740E-02  0.1994E-02  0.1994E-02
    -23.874  0.4898E-04  0.4898E-04  0.2000E-02  0.2000E-02
    -23.749  0.6190E-11  0.6190E-11  0.2000E-02  0.2000E-02
    -23.624  0.0000E+00  0.0000E+00  0.2000E-02  0.2000E-02
    -23.499  0.0000E+00  0.0000E+00  0.2000E-02  0.2000E-02
    -23.374  0.0000E+00  0.0000E+00  0.2000E-02  0.2000E-02
    -23.249  0.0000E+00  0.0000E+00  0.2000E-02  0.2000E-02
    -23.124  0.0000E+00  0.0000E+00  0.2000E-02  0.2000E-02
    -22.999  0.0000E+00  0.0000E+00  0.2000E-02  0.2000E-02
    -22.874  0.0000E+00  0.0000E+00  0.2000E-02  0.2000E-02
    -22.749  0.0000E+00  0.0000E+00  0.2000E-02  0.2000E-02
    -22.624  0.0000E+00  0.0000E+00  0.2000E-02  0.2000E-02
    -22.499  0.0000E+00  0.0000E+00  0.2000E-02  0.2000E-02
    -22.374  0.0000E+00  0.0000E+00  0.2000E-02  0.2000E-02
    -22.250  0.0000E+00  0.0000E+00  0.2000E-02  0.2000E-02
    -22.125  0.0000E+00  0.0000E+00  0.2000E-02  0.2000E-02
    -22.000  0.7673E-13  0.7673E-13  0.2000E-02  0.2000E-02
    -21.875  0.2968E-05  0.2968E-05  0.2000E-02  0.2000E-02
    -21.750  0.2073E-02  0.2073E-02  0.2259E-02  0.2259E-02
    -21.625  0.8501E-02  0.8501E-02  0.3322E-02  0.3322E-02
    -21.500  0.3448E-02  0.3448E-02  0.3752E-02  0.3752E-02
    -21.375  0.7095E-02  0.7095E-02  0.4639E-02  0.4639E-02
    -21.250  0.8851E-02  0.8851E-02  0.5745E-02  0.5745E-02
    -21.125  0.4636E-02  0.4636E-02  0.6324E-02  0.6324E-02
    -21.000  0.2467E-02  0.2467E-02  0.6632E-02  0.6632E-02
    -20.875  0.1274E-01  0.1274E-01  0.8224E-02  0.8224E-02
    -20.750  0.9163E-02  0.9163E-02  0.9369E-02  0.9369E-02
    -20.625  0.3032E-02  0.3032E-02  0.9748E-02  0.9748E-02
    -20.500  0.2455E-02  0.2455E-02  0.1005E-01  0.1005E-01
    -20.375  0.6918E-02  0.6918E-02  0.1092E-01  0.1092E-01
    -20.250  0.1195E-01  0.1195E-01  0.1241E-01  0.1241E-01
    -20.125  0.1188E-01  0.1188E-01  0.1390E-01  0.1390E-01
    -20.000  0.2744E-02  0.2744E-02  0.1424E-01  0.1424E-01
    -19.875  0.2237E-02  0.2237E-02  0.1452E-01  0.1452E-01
    -19.750  0.8468E-02  0.8468E-02  0.1558E-01  0.1558E-01
    -19.625  0.3577E-02  0.3577E-02  0.1602E-01  0.1602E-01
    -19.501  0.1016E-01  0.1016E-01  0.1729E-01  0.1729E-01
    -19.376  0.1469E-01  0.1469E-01  0.1913E-01  0.1913E-01
    -19.251  0.4824E-02  0.4824E-02  0.1973E-01  0.1973E-01
    -19.126  0.2836E-02  0.2836E-02  0.2009E-01  0.2009E-01
    -19.001  0.8481E-02  0.8481E-02  0.2115E-01  0.2115E-01
    -18.876  0.5383E-02  0.5383E-02  0.2182E-01  0.2182E-01
    -18.751  0.3663E-02  0.3663E-02  0.2228E-01  0.2228E-01
    -18.626  0.6719E-02  0.6719E-02  0.2312E-01  0.2312E-01
    -18.501  0.1421E-01  0.1421E-01  0.2489E-01  0.2489E-01
    -18.376  0.9678E-02  0.9678E-02  0.2610E-01  0.2610E-01
    -18.251  0.4224E-02  0.4224E-02  0.2663E-01  0.2663E-01
    -18.126  0.8034E-02  0.8034E-02  0.2763E-01  0.2763E-01
    -18.001  0.7709E-02  0.7709E-02  0.2860E-01  0.2860E-01
    -17.876  0.6903E-02  0.6903E-02  0.2946E-01  0.2946E-01
    -17.751  0.4406E-02  0.4406E-02  0.3001E-01  0.3001E-01
    -17.626  0.3579E-02  0.3579E-02  0.3046E-01  0.3046E-01
    -17.501  0.6384E-02  0.6384E-02  0.3125E-01  0.3125E-01
    -17.376  0.1716E-01  0.1716E-01  0.3340E-01  0.3340E-01
    -17.251  0.8620E-02  0.8620E-02  0.3448E-01  0.3448E-01
    -17.126  0.1193E-01  0.1193E-01  0.3597E-01  0.3597E-01
    -17.001  0.3887E-02  0.3887E-02  0.3645E-01  0.3645E-01
    -16.876  0.8153E-02  0.8153E-02  0.3747E-01  0.3747E-01
    -16.751  0.9654E-02  0.9654E-02  0.3868E-01  0.3868E-01
    -16.627  0.3513E-02  0.3513E-02  0.3912E-01  0.3912E-01
    -16.502  0.6530E-02  0.6530E-02  0.3993E-01  0.3993E-01
    -16.377  0.6612E-02  0.6612E-02  0.4076E-01  0.4076E-01
    -16.252  0.1623E-01  0.1623E-01  0.4279E-01  0.4279E-01
    -16.127  0.8102E-02  0.8102E-02  0.4380E-01  0.4380E-01
    -16.002  0.1994E-02  0.1994E-02  0.4405E-01  0.4405E-01
    -15.877  0.3484E-02  0.3484E-02  0.4448E-01  0.4448E-01
    -15.752  0.2195E-02  0.2195E-02  0.4476E-01  0.4476E-01
    -15.627  0.3537E-02  0.3537E-02  0.4520E-01  0.4520E-01
    -15.502  0.1035E-02  0.1035E-02  0.4533E-01  0.4533E-01
    -15.377  0.7466E-02  0.7466E-02  0.4626E-01  0.4626E-01
    -15.252  0.7838E-02  0.7838E-02  0.4724E-01  0.4724E-01
    -15.127  0.7944E-02  0.7944E-02  0.4823E-01  0.4823E-01
    -15.002  0.6045E-02  0.6045E-02  0.4899E-01  0.4899E-01
    -14.877  0.1395E-01  0.1395E-01  0.5073E-01  0.5073E-01
    -14.752  0.1011E-01  0.1011E-01  0.5199E-01  0.5199E-01
    -14.627  0.2268E-02  0.2268E-02  0.5228E-01  0.5228E-01
    -14.502  0.1106E-01  0.1106E-01  0.5366E-01  0.5366E-01
    -14.377  0.1118E-01  0.1118E-01  0.5506E-01  0.5506E-01
    -14.252  0.8169E-02  0.8169E-02  0.5608E-01  0.5608E-01
    -14.127  0.9128E-02  0.9128E-02  0.5722E-01  0.5722E-01
    -14.002  0.1183E-01  0.1183E-01  0.5870E-01  0.5870E-01
    -13.878  0.4856E-02  0.4856E-02  0.5930E-01  0.5930E-01
    -13.753  0.4574E-02  0.4574E-02  0.5987E-01  0.5987E-01
    -13.628  0.5496E-02  0.5496E-02  0.6056E-01  0.6056E-01
    -13.503  0.8483E-02  0.8483E-02  0.6162E-01  0.6162E-01
    -13.378  0.8663E-02  0.8663E-02  0.6270E-01  0.6270E-01
    -13.253  0.7922E-02  0.7922E-02  0.6369E-01  0.6369E-01
    -13.128  0.6906E-02  0.6906E-02  0.6456E-01  0.6456E-01
    -13.003  0.6202E-02  0.6202E-02  0.6533E-01  0.6533E-01
    -12.878  0.2888E-02  0.2888E-02  0.6569E-01  0.6569E-01
    -12.753  0.8585E-02  0.8585E-02  0.6676E-01  0.6676E-01
    -12.628  0.6417E-02  0.6417E-02  0.6757E-01  0.6757E-01
    -12.503  0.8798E-02  0.8798E-02  0.6867E-01  0.6867E-01
    -12.378  0.1557E-01  0.1557E-01  0.7061E-01  0.7061E-01
    -12.253  0.1240E-01  0.1240E-01  0.7216E-01  0.7216E-01
    -12.128  0.6621E-02  0.6621E-02  0.7299E-01  0.7299E-01
    -12.003  0.8018E-02  0.8018E-02  0.7399E-01  0.7399E-01
    -11.878  0.6087E-02  0.6087E-02  0.7475E-01  0.7475E-01
    -11.753  0.9611E-02  0.9611E-02  0.7595E-01  0.7595E-01
    -11.628  0.8922E-02  0.8922E-02  0.7707E-01  0.7707E-01
    -11.503  0.6781E-02  0.6781E-02  0.7791E-01  0.7791E-01
    -11.378  0.1282E-01  0.1282E-01  0.7952E-01  0.7952E-01
    -11.253  0.1125E-01  0.1125E-01  0.8092E-01  0.8092E-01
    -11.129  0.1411E-01  0.1411E-01  0.8269E-01  0.8269E-01
    -11.004  0.7871E-02  0.7871E-02  0.8367E-01  0.8367E-01
    -10.879  0.9226E-02  0.9226E-02  0.8482E-01  0.8482E-01
    -10.754  0.1534E-01  0.1534E-01  0.8674E-01  0.8674E-01
    -10.629  0.5578E-02  0.5578E-02  0.8744E-01  0.8744E-01
    -10.504  0.6164E-02  0.6164E-02  0.8821E-01  0.8821E-01
    -10.379  0.5515E-02  0.5515E-02  0.8890E-01  0.8890E-01
    -10.254  0.1285E-01  0.1285E-01  0.9050E-01  0.9050E-01
    -10.129  0.1121E-01  0.1121E-01  0.9190E-01  0.9190E-01
    -10.004  0.1757E-01  0.1757E-01  0.9410E-01  0.9410E-01
     -9.879  0.1741E-01  0.1741E-01  0.9627E-01  0.9627E-01
     -9.754  0.1672E-01  0.1672E-01  0.9836E-01  0.9836E-01
     -9.629  0.1877E-01  0.1877E-01  0.1007E+00  0.1007E+00
     -9.504  0.1119E-01  0.1119E-01  0.1021E+00  0.1021E+00
     -9.379  0.1724E-01  0.1724E-01  0.1043E+00  0.1043E+00
     -9.254  0.1700E-01  0.1700E-01  0.1064E+00  0.1064E+00
     -9.129  0.1534E-01  0.1534E-01  0.1083E+00  0.1083E+00
     -9.004  0.2232E-01  0.2232E-01  0.1111E+00  0.1111E+00
     -8.879  0.2378E-01  0.2378E-01  0.1141E+00  0.1141E+00
     -8.754  0.3202E-01  0.3202E-01  0.1181E+00  0.1181E+00
     -8.629  0.2343E-01  0.2343E-01  0.1210E+00  0.1210E+00
     -8.504  0.1743E-01  0.1743E-01  0.1232E+00  0.1232E+00
     -8.380  0.1928E-01  0.1928E-01  0.1256E+00  0.1256E+00
     -8.255  0.1888E-01  0.1888E-01  0.1279E+00  0.1279E+00
     -8.130  0.1882E-01  0.1882E-01  0.1303E+00  0.1303E+00
     -8.005  0.2364E-01  0.2364E-01  0.1332E+00  0.1332E+00
     -7.880  0.1784E-01  0.1784E-01  0.1355E+00  0.1355E+00
     -7.755  0.1969E-01  0.1969E-01  0.1379E+00  0.1379E+00
     -7.630  0.1640E-01  0.1640E-01  0.1400E+00  0.1400E+00
     -7.505  0.1418E-01  0.1418E-01  0.1418E+00  0.1418E+00
     -7.380  0.6960E-02  0.6960E-02  0.1426E+00  0.1426E+00
     -7.255  0.1279E-01  0.1279E-01  0.1442E+00  0.1442E+00
     -7.130  0.2400E-01  0.2400E-01  0.1472E+00  0.1472E+00
     -7.005  0.1981E-01  0.1981E-01  0.1497E+00  0.1497E+00
     -6.880  0.1607E-01  0.1607E-01  0.1517E+00  0.1517E+00
     -6.755  0.1141E-01  0.1141E-01  0.1531E+00  0.1531E+00
     -6.630  0.8776E-02  0.8776E-02  0.1542E+00  0.1542E+00
     -6.505  0.1294E-01  0.1294E-01  0.1558E+00  0.1558E+00
     -6.380  0.1244E-01  0.1244E-01  0.1574E+00  0.1574E+00
     -6.255  0.1257E-01  0.1257E-01  0.1590E+00  0.1590E+00
     -6.130  0.1383E-01  0.1383E-01  0.1607E+00  0.1607E+00
     -6.005  0.2188E-01  0.2188E-01  0.1634E+00  0.1634E+00
     -5.880  0.1338E-01  0.1338E-01  0.1651E+00  0.1651E+00
     -5.755  0.1546E-01  0.1546E-01  0.1670E+00  0.1670E+00
     -5.631  0.1493E-01  0.1493E-01  0.1689E+00  0.1689E+00
     -5.506  0.1158E-01  0.1158E-01  0.1703E+00  0.1703E+00
     -5.381  0.7065E-02  0.7065E-02  0.1712E+00  0.1712E+00
     -5.256  0.3943E-02  0.3943E-02  0.1717E+00  0.1717E+00
     -5.131  0.2146E-02  0.2146E-02  0.1720E+00  0.1720E+00
     -5.006  0.1043E-01  0.1043E-01  0.1733E+00  0.1733E+00
     -4.881  0.2228E-01  0.2228E-01  0.1761E+00  0.1761E+00
     -4.756  0.1538E-01  0.1538E-01  0.1780E+00  0.1780E+00
     -4.631  0.5963E-02  0.5963E-02  0.1787E+00  0.1787E+00
     -4.506  0.9828E-02  0.9828E-02  0.1800E+00  0.1800E+00
     -4.381  0.2213E-02  0.2213E-02  0.1803E+00  0.1803E+00
     -4.256  0.2205E-02  0.2205E-02  0.1805E+00  0.1805E+00
     -4.131  0.8506E-02  0.8506E-02  0.1816E+00  0.1816E+00
     -4.006  0.6651E-02  0.6651E-02  0.1824E+00  0.1824E+00
     -3.881  0.7412E-02  0.7412E-02  0.1833E+00  0.1833E+00
     -3.756  0.7509E-02  0.7509E-02  0.1843E+00  0.1843E+00
     -3.631  0.5632E-02  0.5632E-02  0.1850E+00  0.1850E+00
     -3.506  0.9684E-04  0.9684E-04  0.1850E+00  0.1850E+00
     -3.381  0.3616E-03  0.3616E-03  0.1850E+00  0.1850E+00
     -3.256  0.2983E-02  0.2983E-02  0.1854E+00  0.1854E+00
     -3.131  0.6318E-02  0.6318E-02  0.1862E+00  0.1862E+00
     -3.006  0.8133E-03  0.8133E-03  0.1863E+00  0.1863E+00
     -2.882  0.1523E-02  0.1523E-02  0.1865E+00  0.1865E+00
     -2.757  0.4882E-05  0.4882E-05  0.1865E+00  0.1865E+00
     -2.632  0.5714E-03  0.5714E-03  0.1866E+00  0.1866E+00
     -2.507  0.3398E-02  0.3398E-02  0.1870E+00  0.1870E+00
     -2.382  0.3233E-04  0.3233E-04  0.1870E+00  0.1870E+00
     -2.257  0.2332E-03  0.2332E-03  0.1870E+00  0.1870E+00
     -2.132  0.3648E-02  0.3648E-02  0.1875E+00  0.1875E+00
     -2.007  0.1207E-03  0.1207E-03  0.1875E+00  0.1875E+00
     -1.882  0.2950E-05  0.2950E-05  0.1875E+00  0.1875E+00
     -1.757  0.1546E-02  0.1546E-02  0.1877E+00  0.1877E+00
     -1.632  0.2612E-02  0.2612E-02  0.1880E+00  0.1880E+00
     -1.507  0.6918E-02  0.6918E-02  0.1889E+00  0.1889E+00
     -1.382  0.9254E-03  0.9254E-03  0.1890E+00  0.1890E+00
     -1.257  0.1810E-03  0.1810E-03  0.1890E+00  0.1890E+00
     -1.132  0.7024E-02  0.7024E-02  0.1899E+00  0.1899E+00
     -1.007  0.4812E-02  0.4812E-02  0.1905E+00  0.1905E+00
     -0.882  0.4905E-02  0.4905E-02  0.1911E+00  0.1911E+00
     -0.757  0.1612E-01  0.1612E-01  0.1931E+00  0.1931E+00
     -0.632  0.7080E-02  0.7080E-02  0.1940E+00  0.1940E+00
     -0.507  0.9126E-02  0.9126E-02  0.1952E+00  0.1952E+00
     -0.382  0.1045E-01  0.1045E-01  0.1965E+00  0.1965E+00
     -0.257  0.5986E-02  0.5986E-02  0.1972E+00  0.1972E+00
     -0.132  0.5688E-02  0.5688E-02  0.1979E+00  0.1979E+00
     -0.008  0.9035E-02  0.9035E-02  0.1990E+00  0.1990E+00
      0.117  0.8287E-02  0.8287E-02  0.2001E+00  0.2001E+00
      0.242  0.1237E-01  0.1237E-01  0.2016E+00  0.2016E+00
      0.367  0.8817E-02  0.8817E-02  0.2027E+00  0.2027E+00
      0.492  0.2155E-02  0.2155E-02  0.2030E+00  0.2030E+00
      0.617  0.3319E-02  0.3319E-02  0.2034E+00  0.2034E+00
      0.742  0.1269E-01  0.1269E-01  0.2050E+00  0.2050E+00
      0.867  0.9806E-02  0.9805E-02  0.2062E+00  0.2062E+00
      0.992  0.5657E-02  0.5657E-02  0.2069E+00  0.2069E+00
      1.117  0.1017E-01  0.1017E-01  0.2082E+00  0.2082E+00
      1.242  0.6790E-02  0.6790E-02  0.2091E+00  0.2091E+00
      1.367  0.8323E-02  0.8323E-02  0.2101E+00  0.2101E+00
      1.492  0.1213E-01  0.1213E-01  0.2116E+00  0.2116E+00
      1.617  0.1888E-01  0.1888E-01  0.2140E+00  0.2140E+00
      1.742  0.1329E-01  0.1329E-01  0.2156E+00  0.2156E+00
      1.867  0.1027E-01  0.1027E-01  0.2169E+00  0.2169E+00
      1.992  0.1483E-01  0.1483E-01  0.2188E+00  0.2188E+00
      2.117  0.1787E-01  0.1787E-01  0.2210E+00  0.2210E+00
      2.242  0.1659E-01  0.1659E-01  0.2231E+00  0.2231E+00
      2.367  0.2140E-01  0.2140E-01  0.2257E+00  0.2257E+00
      2.492  0.2341E-01  0.2341E-01  0.2287E+00  0.2287E+00
      2.617  0.6701E-02  0.6701E-02  0.2295E+00  0.2295E+00
      2.741  0.1453E-01  0.1453E-01  0.2313E+00  0.2313E+00
      2.866  0.2661E-01  0.2661E-01  0.2346E+00  0.2346E+00
      2.991  0.3723E-01  0.3723E-01  0.2393E+00  0.2393E+00
      3.116  0.2199E-01  0.2199E-01  0.2420E+00  0.2420E+00
      3.241  0.2326E-01  0.2326E-01  0.2450E+00  0.2450E+00
      3.366  0.1756E-01  0.1756E-01  0.2471E+00  0.2471E+00
      3.491  0.2032E-01  0.2032E-01  0.2497E+00  0.2497E+00
      3.616  0.1938E-01  0.1938E-01  0.2521E+00  0.2521E+00
      3.741  0.1950E-01  0.1950E-01  0.2545E+00  0.2545E+00
      3.866  0.2551E-01  0.2551E-01  0.2577E+00  0.2577E+00
      3.991  0.2232E-01  0.2232E-01  0.2605E+00  0.2605E+00
      4.116  0.1916E-01  0.1916E-01  0.2629E+00  0.2629E+00
      4.241  0.1961E-01  0.1961E-01  0.2654E+00  0.2654E+00
      4.366  0.2592E-01  0.2592E-01  0.2686E+00  0.2686E+00
      4.491  0.1111E-01  0.1111E-01  0.2700E+00  0.2700E+00
      4.616  0.4575E-04  0.4574E-04  0.2700E+00  0.2700E+00
      4.741  0.1162E-10  0.1162E-10  0.2700E+00  0.2700E+00
      4.866  0.0000E+00  0.0000E+00  0.2700E+00  0.2700E+00
      4.991  0.0000E+00  0.0000E+00  0.2700E+00  0.2700E+00
      5.116  0.0000E+00  0.0000E+00  0.2700E+00  0.2700E+00
      5.241  0.0000E+00  0.0000E+00  0.2700E+00  0.2700E+00
      5.366  0.0000E+00  0.0000E+00  0.2700E+00  0.2700E+00
      5.490  0.0000E+00  0.0000E+00  0.2700E+00  0.2700E+00
      5.615  0.0000E+00  0.0000E+00  0.2700E+00  0.2700E+00
      5.740  0.0000E+00  0.0000E+00  0.2700E+00  0.2700E+00
      5.865  0.0000E+00  0.0000E+00  0.2700E+00  0.2700E+00
      5.990  0.0000E+00  0.0000E+00  0.2700E+00  0.2700E+00
      6.115  0.0000E+00  0.0000E+00  0.2700E+00  0.2700E+00
