       N       E                     dE             d eps       ncg     rms          rms(c)
DAV:   1     0.333173121282E+04    0.33317E+04   -0.14009E+05  4630   0.105E+03
DAV:   2    -0.253710863721E+03   -0.35854E+04   -0.33761E+04  6520   0.259E+02
DAV:   3    -0.874433090884E+03   -0.62072E+03   -0.61797E+03  5390   0.111E+02
DAV:   4    -0.896539730115E+03   -0.22107E+02   -0.22025E+02  5420   0.263E+01
DAV:   5    -0.897196904723E+03   -0.65717E+00   -0.65637E+00  6160   0.397E+00    0.522E+01
DAV:   6    -0.879341378621E+03    0.17856E+02   -0.22705E+01  5270   0.806E+00    0.339E+01
DAV:   7    -0.856738307339E+03    0.22603E+02   -0.33849E+01  5130   0.933E+00    0.205E+01
DAV:   8    -0.851792589637E+03    0.49457E+01   -0.24645E+01  5260   0.758E+00    0.830E+00
DAV:   9    -0.851698475599E+03    0.94114E-01   -0.11684E+00  5030   0.218E+00    0.319E+00
DAV:  10    -0.851607529891E+03    0.90946E-01   -0.48244E-01  5110   0.132E+00    0.978E-01
DAV:  11    -0.851593980855E+03    0.13549E-01   -0.94112E-02  4910   0.638E-01    0.346E-01
DAV:  12    -0.851592825932E+03    0.11549E-02   -0.15169E-02  5310   0.275E-01    0.170E-01
DAV:  13    -0.851592626875E+03    0.19906E-03   -0.23997E-03  5350   0.103E-01    0.109E-01
DAV:  14    -0.851592640331E+03   -0.13456E-04   -0.77468E-04  5160   0.624E-02    0.525E-02
DAV:  15    -0.851592694329E+03   -0.53998E-04   -0.99388E-05  5030   0.201E-02    0.315E-02
DAV:  16    -0.851592709106E+03   -0.14777E-04   -0.39148E-05  4940   0.158E-02    0.879E-03
DAV:  17    -0.851592707840E+03    0.12663E-05   -0.75413E-06  5270   0.662E-03    0.519E-03
DAV:  18    -0.851592708225E+03   -0.38523E-06   -0.36450E-06  4490   0.484E-03
   1 F= -.85948800E+03 E0= -.85948800E+03  d E =-.859488E+03  mag=     0.0000
       N       E                     dE             d eps       ncg     rms          rms(c)
DAV:   1    -0.851592703841E+03    0.39987E-05   -0.55617E-04  4590   0.453E-02    0.494E-03
DAV:   2    -0.851592704650E+03   -0.80871E-06   -0.12279E-05  4680   0.619E-03    0.402E-03
DAV:   3    -0.851592704464E+03    0.18598E-06   -0.21199E-07  2930   0.108E-03
   2 F= -.85948799E+03 E0= -.85948799E+03  d E =0.803136E-05  mag=    -0.0000
       N       E                     dE             d eps       ncg     rms          rms(c)
DAV:   1    -0.851592691616E+03    0.13034E-04   -0.21542E-03  4540   0.871E-02    0.968E-03
DAV:   2    -0.851592694601E+03   -0.29855E-05   -0.42286E-05  4540   0.111E-02    0.744E-03
DAV:   3    -0.851592694348E+03    0.25299E-06   -0.61760E-07  3440   0.179E-03
   3 F= -.85948798E+03 E0= -.85948798E+03  d E =0.188457E-04  mag=     0.0000
       N       E                     dE             d eps       ncg     rms          rms(c)
DAV:   1    -0.851592673397E+03    0.21204E-04   -0.49716E-03  4540   0.130E-01    0.145E-02
DAV:   2    -0.851592680282E+03   -0.68850E-05   -0.96275E-05  4480   0.164E-02    0.112E-02
DAV:   3    -0.851592679831E+03    0.45128E-06   -0.13415E-06  3860   0.254E-03
   4 F= -.85948795E+03 E0= -.85948795E+03  d E =0.278961E-04  mag=    -0.0000
       N       E                     dE             d eps       ncg     rms          rms(c)
DAV:   1    -0.851592647609E+03    0.32673E-04   -0.86993E-03  4540   0.171E-01    0.195E-02
DAV:   2    -0.851592659172E+03   -0.11563E-04   -0.16444E-04  4480   0.215E-02    0.151E-02
DAV:   3    -0.851592658506E+03    0.66603E-06   -0.26457E-06  4400   0.342E-03
   5 F= -.85948791E+03 E0= -.85948791E+03  d E =0.390549E-04  mag=     0.0000
       N       E                     dE             d eps       ncg     rms          rms(c)
DAV:   1    -0.851592615556E+03    0.43617E-04   -0.12551E-02  4540   0.205E-01    0.241E-02
DAV:   2    -0.851592630923E+03   -0.15368E-04   -0.22796E-04  4480   0.255E-02    0.187E-02
DAV:   3    -0.851592630120E+03    0.80281E-06   -0.40444E-06  4750   0.421E-03
   6 F= -.85948786E+03 E0= -.85948786E+03  d E =0.502650E-04  mag=    -0.0000
       N       E                     dE             d eps       ncg     rms          rms(c)
DAV:   1    -0.851592579747E+03    0.51176E-04   -0.17050E-02  4540   0.239E-01    0.286E-02
DAV:   2    -0.851592599535E+03   -0.19787E-04   -0.30195E-04  4480   0.296E-02    0.224E-02
DAV:   3    -0.851592598547E+03    0.98779E-06   -0.58354E-06  4920   0.504E-03
   7 F= -.85948780E+03 E0= -.85948780E+03  d E =0.581342E-04  mag=     0.0000
       N       E                     dE             d eps       ncg     rms          rms(c)
DAV:   1    -0.851592517527E+03    0.82008E-04   -0.28683E-02  4540   0.309E-01    0.370E-02
DAV:   2    -0.851592551283E+03   -0.33756E-04   -0.50980E-04  4480   0.383E-02    0.291E-02
DAV:   3    -0.851592549241E+03    0.20424E-05   -0.97923E-06  5080   0.653E-03    0.214E-02
DAV:   4    -0.851592557603E+03   -0.83622E-05   -0.15322E-05  4360   0.835E-03    0.438E-03
DAV:   5    -0.851592557963E+03   -0.36003E-06   -0.39897E-06  4580   0.340E-03
   8 F= -.85948773E+03 E0= -.85948773E+03  d E =0.750880E-04  mag=    -0.0000
       N       E                     dE             d eps       ncg     rms          rms(c)
DAV:   1    -0.851592427953E+03    0.12965E-03   -0.47252E-02  4540   0.393E-01    0.455E-02
DAV:   2    -0.851592490367E+03   -0.62414E-04   -0.89655E-04  4480   0.503E-02    0.357E-02
DAV:   3    -0.851592484113E+03    0.62542E-05   -0.16596E-05  5160   0.855E-03    0.268E-02
DAV:   4    -0.851592493872E+03   -0.97592E-05   -0.31451E-05  4360   0.118E-02    0.601E-03
DAV:   5    -0.851592494471E+03   -0.59888E-06   -0.72178E-06  4920   0.464E-03
   9 F= -.85948762E+03 E0= -.85948762E+03  d E =0.102207E-03  mag=     0.0000
       N       E                     dE             d eps       ncg     rms          rms(c)
DAV:   1    -0.851592300215E+03    0.19366E-03   -0.74928E-02  4480   0.491E-01    0.581E-02
DAV:   2    -0.851592399250E+03   -0.99035E-04   -0.14169E-03  4480   0.625E-02    0.453E-02
DAV:   3    -0.851592389305E+03    0.99449E-05   -0.26556E-05  5220   0.107E-02    0.339E-02
DAV:   4    -0.851592404328E+03   -0.15023E-04   -0.48543E-05  4400   0.144E-02    0.755E-03
DAV:   5    -0.851592405508E+03   -0.11801E-05   -0.11081E-05  4980   0.568E-03    0.481E-03
DAV:   6    -0.851592405451E+03    0.57036E-07   -0.19755E-06  3780   0.306E-03
  10 F= -.85948749E+03 E0= -.85948749E+03  d E =0.133439E-03  mag=     0.0000
       N       E                     dE             d eps       ncg     rms          rms(c)
DAV:   1    -0.851592135350E+03    0.27016E-03   -0.11078E-01  4460   0.597E-01    0.708E-02
DAV:   2    -0.851592276466E+03   -0.14112E-03   -0.20321E-03  4480   0.753E-02    0.558E-02
DAV:   3    -0.851592260067E+03    0.16398E-04   -0.41030E-05  5210   0.133E-02    0.415E-02
DAV:   4    -0.851592279332E+03   -0.19264E-04   -0.73668E-05  4640   0.176E-02    0.944E-03
DAV:   5    -0.851592280933E+03   -0.16018E-05   -0.16864E-05  4940   0.711E-03    0.595E-03
DAV:   6    -0.851592280916E+03    0.17630E-07   -0.29933E-06  4040   0.352E-03
  11 F= -.85948731E+03 E0= -.85948731E+03  d E =0.181380E-03  mag=    -0.0000
       N       E                     dE             d eps       ncg     rms          rms(c)
DAV:   1    -0.851591880414E+03    0.40052E-03   -0.17237E-01  4400   0.736E-01    0.880E-02
DAV:   2    -0.851592103710E+03   -0.22330E-03   -0.31637E-03  4470   0.924E-02    0.698E-02
DAV:   3    -0.851592077487E+03    0.26223E-04   -0.61983E-05  5220   0.165E-02    0.521E-02
DAV:   4    -0.851592106086E+03   -0.28599E-04   -0.12603E-04  4880   0.227E-02    0.115E-02
DAV:   5    -0.851592107599E+03   -0.15130E-05   -0.27437E-05  4940   0.920E-03    0.749E-03
DAV:   6    -0.851592107805E+03   -0.20598E-06   -0.46166E-06  4180   0.440E-03
  12 F= -.85948705E+03 E0= -.85948705E+03  d E =0.256285E-03  mag=     0.0000
       N       E                     dE             d eps       ncg     rms          rms(c)
DAV:   1    -0.851591510277E+03    0.59732E-03   -0.25893E-01  4380   0.899E-01    0.110E-01
DAV:   2    -0.851591840698E+03   -0.33042E-03   -0.47285E-03  4490   0.113E-01    0.872E-02
DAV:   3    -0.851591798338E+03    0.42361E-04   -0.10342E-04  5280   0.208E-02    0.645E-02
DAV:   4    -0.851591835334E+03   -0.36996E-04   -0.17817E-04  4960   0.273E-02    0.149E-02
DAV:   5    -0.851591839521E+03   -0.41868E-05   -0.41499E-05  4970   0.110E-02    0.922E-03
DAV:   6    -0.851591839701E+03   -0.18033E-06   -0.66151E-06  4200   0.502E-03
  13 F= -.85948670E+03 E0= -.85948670E+03  d E =0.355881E-03  mag=     0.0000
       N       E                     dE             d eps       ncg     rms          rms(c)
DAV:   1    -0.851590621883E+03    0.12176E-02   -0.40427E-01  4340   0.115E+00    0.135E-01
DAV:   2    -0.851591200089E+03   -0.57821E-03   -0.78784E-03  4580   0.148E-01    0.111E-01
DAV:   3    -0.851591118345E+03    0.81744E-04   -0.19401E-04  5460   0.278E-02    0.842E-02
DAV:   4    -0.851591141811E+03   -0.23466E-04   -0.33139E-04  4740   0.383E-02    0.220E-02
DAV:   5    -0.851591149606E+03   -0.77952E-05   -0.76372E-05  4940   0.153E-02    0.136E-02
DAV:   6    -0.851591150666E+03   -0.10600E-05   -0.15307E-05  4600   0.773E-03    0.573E-03
DAV:   7    -0.851591150700E+03   -0.33921E-07   -0.17412E-06  4080   0.261E-03
  14 F= -.85948589E+03 E0= -.85948589E+03  d E =0.802051E-03  mag=    -0.0000
       N       E                     dE             d eps       ncg     rms          rms(c)
DAV:   1    -0.851591655581E+03   -0.50492E-03   -0.29892E-02  4500   0.354E-01    0.393E-02
DAV:   2    -0.851591707489E+03   -0.51908E-04   -0.75532E-04  5240   0.509E-02    0.356E-02
DAV:   3    -0.851591691818E+03    0.15671E-04   -0.37445E-05  5880   0.115E-02    0.265E-02
DAV:   4    -0.851591679140E+03    0.12678E-04   -0.27217E-05  4500   0.113E-02    0.114E-02
DAV:   5    -0.851591678544E+03    0.59579E-06   -0.87516E-06  4380   0.535E-03
  15 F= -.85948643E+03 E0= -.85948643E+03  d E =-.533936E-03  mag=    -0.0000
       N       E                     dE             d eps       ncg     rms          rms(c)
DAV:   1    -0.851591678910E+03    0.22977E-06   -0.49169E-05  4480   0.133E-02    0.259E-03
DAV:   2    -0.851591678942E+03   -0.31599E-07   -0.12291E-06  2960   0.204E-03
  16 F= -.85948643E+03 E0= -.85948643E+03  d E =-.709562E-07  mag=    -0.0000
       N       E                     dE             d eps       ncg     rms          rms(c)
DAV:   1    -0.851591677601E+03    0.13095E-05   -0.17548E-04  4480   0.247E-02    0.360E-03
DAV:   2    -0.851591677763E+03   -0.16290E-06   -0.34306E-06  3820   0.321E-03
  17 F= -.85948643E+03 E0= -.85948643E+03  d E =0.183389E-05  mag=    -0.0000
       N       E                     dE             d eps       ncg     rms          rms(c)
DAV:   1    -0.851591673346E+03    0.42544E-05   -0.35334E-04  4480   0.344E-02    0.569E-03
DAV:   2    -0.851591673588E+03   -0.24193E-06   -0.66057E-06  4590   0.434E-03
  18 F= -.85948642E+03 E0= -.85948642E+03  d E =0.535080E-05  mag=     0.0000
       N       E                     dE             d eps       ncg     rms          rms(c)
DAV:   1    -0.851591665710E+03    0.76358E-05   -0.55946E-04  4480   0.424E-02    0.759E-03
DAV:   2    -0.851591666017E+03   -0.30629E-06   -0.98356E-06  4540   0.518E-03
  19 F= -.85948641E+03 E0= -.85948641E+03  d E =0.932396E-05  mag=     0.0000
       N       E                     dE             d eps       ncg     rms          rms(c)
DAV:   1    -0.851591655972E+03    0.97381E-05   -0.78926E-04  4420   0.497E-02    0.922E-03
DAV:   2    -0.851591656352E+03   -0.37919E-06   -0.13307E-05  4660   0.595E-03    0.746E-03
DAV:   3    -0.851591656441E+03   -0.89771E-07   -0.52694E-07  3070   0.168E-03
  20 F= -.85948640E+03 E0= -.85948640E+03  d E =0.118366E-04  mag=    -0.0000
       N       E                     dE             d eps       ncg     rms          rms(c)
DAV:   1    -0.851591644035E+03    0.12317E-04   -0.10656E-03  4420   0.576E-02    0.726E-03
DAV:   2    -0.851591645253E+03   -0.12178E-05   -0.17803E-05  4600   0.677E-03    0.562E-03
DAV:   3    -0.851591645217E+03    0.35208E-07   -0.27737E-07  3130   0.119E-03
  21 F= -.85948639E+03 E0= -.85948639E+03  d E =0.137239E-04  mag=    -0.0000
       N       E                     dE             d eps       ncg     rms          rms(c)
DAV:   1    -0.851591627871E+03    0.17381E-04   -0.17355E-03  4400   0.733E-02    0.904E-03
DAV:   2    -0.851591629877E+03   -0.20056E-05   -0.29349E-05  4580   0.868E-03    0.705E-03
DAV:   3    -0.851591629742E+03    0.13509E-06   -0.51996E-07  3290   0.156E-03
  22 F= -.85948637E+03 E0= -.85948637E+03  d E =0.183670E-04  mag=    -0.0000
       N       E                     dE             d eps       ncg     rms          rms(c)
DAV:   1    -0.851591605484E+03    0.24392E-04   -0.28128E-03  4360   0.928E-02    0.116E-02
DAV:   2    -0.851591608649E+03   -0.31643E-05   -0.47055E-05  4540   0.110E-02    0.907E-03
DAV:   3    -0.851591608430E+03    0.21834E-06   -0.84214E-07  3550   0.197E-03
  23 F= -.85948634E+03 E0= -.85948634E+03  d E =0.248463E-04  mag=    -0.0000
       N       E                     dE             d eps       ncg     rms          rms(c)
DAV:   1    -0.851591576268E+03    0.32381E-04   -0.45463E-03  4360   0.117E-01    0.147E-02
DAV:   2    -0.851591581373E+03   -0.51048E-05   -0.75793E-05  4500   0.138E-02    0.115E-02
DAV:   3    -0.851591581011E+03    0.36207E-06   -0.13909E-06  3900   0.246E-03
  24 F= -.85948631E+03 E0= -.85948631E+03  d E =0.320911E-04  mag=    -0.0000
       N       E                     dE             d eps       ncg     rms          rms(c)
DAV:   1    -0.851591539549E+03    0.41824E-04   -0.73067E-03  4340   0.147E-01    0.187E-02
DAV:   2    -0.851591547846E+03   -0.82973E-05   -0.12276E-04  4500   0.174E-02    0.145E-02
DAV:   3    -0.851591547234E+03    0.61262E-06   -0.23075E-06  4190   0.310E-03
  25 F= -.85948627E+03 E0= -.85948627E+03  d E =0.399044E-04  mag=    -0.0000
       N       E                     dE             d eps       ncg     rms          rms(c)
DAV:   1    -0.851591491598E+03    0.56249E-04   -0.11464E-02  4320   0.184E-01    0.236E-02
DAV:   2    -0.851591504670E+03   -0.13072E-04   -0.19278E-04  4460   0.217E-02    0.183E-02
DAV:   3    -0.851591503699E+03    0.97103E-06   -0.37209E-06  4450   0.389E-03
  26 F= -.85948622E+03 E0= -.85948622E+03  d E =0.532766E-04  mag=    -0.0000
       N       E                     dE             d eps       ncg     rms          rms(c)
DAV:   1    -0.851591431686E+03    0.72984E-04   -0.17038E-02  4320   0.223E-01    0.289E-02
DAV:   2    -0.851591450533E+03   -0.18846E-04   -0.27963E-04  4480   0.261E-02    0.223E-02
DAV:   3    -0.851591449260E+03    0.12723E-05   -0.55562E-06  4810   0.475E-03    0.163E-02
DAV:   4    -0.851591454009E+03   -0.47487E-05   -0.93454E-06  4290   0.621E-03    0.318E-03
DAV:   5    -0.851591454124E+03   -0.11504E-06   -0.22112E-06  4040   0.256E-03
  27 F= -.85948615E+03 E0= -.85948615E+03  d E =0.644073E-04  mag=    -0.0000
       N       E                     dE             d eps       ncg     rms          rms(c)
DAV:   1    -0.851591352259E+03    0.10175E-03   -0.25972E-02  4360   0.274E-01    0.340E-02
DAV:   2    -0.851591384395E+03   -0.32136E-04   -0.45631E-04  4420   0.331E-02    0.261E-02
DAV:   3    -0.851591380864E+03    0.35313E-05   -0.86366E-06  4980   0.599E-03    0.193E-02
DAV:   4    -0.851591386117E+03   -0.52527E-05   -0.16779E-05  4380   0.833E-03    0.422E-03
DAV:   5    -0.851591386266E+03   -0.14927E-06   -0.38006E-06  4480   0.341E-03
  28 F= -.85948607E+03 E0= -.85948607E+03  d E =0.883865E-04  mag=     0.0000
       N       E                     dE             d eps       ncg     rms          rms(c)
DAV:   1    -0.851591245661E+03    0.14046E-03   -0.40197E-02  4360   0.336E-01    0.421E-02
DAV:   2    -0.851591296854E+03   -0.51193E-04   -0.71918E-04  4400   0.407E-02    0.320E-02
DAV:   3    -0.851591291383E+03    0.54712E-05   -0.12962E-05  5060   0.728E-03    0.238E-02
DAV:   4    -0.851591299545E+03   -0.81619E-05   -0.26044E-05  4400   0.103E-02    0.514E-03
DAV:   5    -0.851591299922E+03   -0.37761E-06   -0.57685E-06  4960   0.411E-03
  29 F= -.85948595E+03 E0= -.85948595E+03  d E =0.111434E-03  mag=    -0.0000
       N       E                     dE             d eps       ncg     rms          rms(c)
DAV:   1    -0.851591115751E+03    0.18379E-03   -0.59976E-02  4360   0.409E-01    0.514E-02
DAV:   2    -0.851591192495E+03   -0.76743E-04   -0.10686E-03  4370   0.495E-02    0.389E-02
DAV:   3    -0.851591184432E+03    0.80629E-05   -0.19372E-05  5120   0.884E-03    0.289E-02
DAV:   4    -0.851591196361E+03   -0.11929E-04   -0.37801E-05  4420   0.123E-02    0.627E-03
DAV:   5    -0.851591196921E+03   -0.55987E-06   -0.83643E-06  4960   0.494E-03
  30 F= -.85948582E+03 E0= -.85948582E+03  d E =0.135877E-03  mag=     0.0000
       N       E                     dE             d eps       ncg     rms          rms(c)
DAV:   1    -0.851590957859E+03    0.23850E-03   -0.89228E-02  4360   0.499E-01    0.629E-02
DAV:   2    -0.851591071047E+03   -0.11319E-03   -0.15822E-03  4430   0.603E-02    0.470E-02
DAV:   3    -0.851591060157E+03    0.10890E-04   -0.29289E-05  5180   0.109E-02    0.348E-02
DAV:   4    -0.851591077338E+03   -0.17181E-04   -0.52525E-05  4530   0.146E-02    0.762E-03
DAV:   5    -0.851591078216E+03   -0.87835E-06   -0.11931E-05  4960   0.593E-03    0.505E-03
DAV:   6    -0.851591078246E+03   -0.29948E-07   -0.23247E-06  3880   0.301E-03
  31 F= -.85948566E+03 E0= -.85948566E+03  d E =0.159367E-03  mag=    -0.0000
       N       E                     dE             d eps       ncg     rms          rms(c)
DAV:   1    -0.851590773942E+03    0.30427E-03   -0.13487E-01  4360   0.615E-01    0.761E-02
DAV:   2    -0.851590946037E+03   -0.17209E-03   -0.24042E-03  4400   0.744E-02    0.572E-02
DAV:   3    -0.851590927988E+03    0.18049E-04   -0.44539E-05  5160   0.134E-02    0.424E-02
DAV:   4    -0.851590951993E+03   -0.24005E-04   -0.82987E-05  4810   0.182E-02    0.941E-03
DAV:   5    -0.851590953423E+03   -0.14299E-05   -0.18310E-05  4960   0.734E-03    0.624E-03
DAV:   6    -0.851590953564E+03   -0.14181E-06   -0.33186E-06  4120   0.361E-03
  32 F= -.85948547E+03 E0= -.85948547E+03  d E =0.185953E-03  mag=     0.0000
       N       E                     dE             d eps       ncg     rms          rms(c)
DAV:   1    -0.851590530821E+03    0.42260E-03   -0.19330E-01  4360   0.744E-01    0.910E-02
DAV:   2    -0.851590773210E+03   -0.24239E-03   -0.34057E-03  4420   0.898E-02    0.686E-02
DAV:   3    -0.851590747165E+03    0.26045E-04   -0.65953E-05  5200   0.163E-02    0.507E-02
DAV:   4    -0.851590780753E+03   -0.33588E-04   -0.11887E-04  4870   0.222E-02    0.115E-02
DAV:   5    -0.851590782490E+03   -0.17373E-05   -0.26470E-05  4960   0.893E-03    0.753E-03
DAV:   6    -0.851590782690E+03   -0.20005E-06   -0.52816E-06  4220   0.456E-03
  33 F= -.85948523E+03 E0= -.85948523E+03  d E =0.244437E-03  mag=    -0.0000
       N       E                     dE             d eps       ncg     rms          rms(c)
DAV:   1    -0.851590168620E+03    0.61387E-03   -0.28632E-01  4360   0.913E-01    0.111E-01
DAV:   2    -0.851590537571E+03   -0.36895E-03   -0.51223E-03  4420   0.111E-01    0.842E-02
DAV:   3    -0.851590496087E+03    0.41484E-04   -0.10373E-04  5220   0.203E-02    0.624E-02
DAV:   4    -0.851590538527E+03   -0.42440E-04   -0.17825E-04  5020   0.273E-02    0.147E-02
DAV:   5    -0.851590542572E+03   -0.40452E-05   -0.39728E-05  4960   0.108E-02    0.945E-03
DAV:   6    -0.851590542792E+03   -0.21970E-06   -0.80561E-06  4220   0.566E-03
  34 F= -.85948490E+03 E0= -.85948490E+03  d E =0.326112E-03  mag=    -0.0000
       N       E                     dE             d eps       ncg     rms          rms(c)
DAV:   1    -0.851589541447E+03    0.10011E-02   -0.41322E-01  4340   0.112E+00    0.134E-01
DAV:   2    -0.851590103825E+03   -0.56238E-03   -0.76801E-03  4480   0.140E-01    0.103E-01
DAV:   3    -0.851590035607E+03    0.68218E-04   -0.17852E-04  5280   0.264E-02    0.769E-02
DAV:   4    -0.851590074663E+03   -0.39055E-04   -0.26140E-04  4890   0.339E-02    0.204E-02
DAV:   5    -0.851590083631E+03   -0.89689E-05   -0.63383E-05  4920   0.136E-02    0.121E-02
DAV:   6    -0.851590084275E+03   -0.64386E-06   -0.12103E-05  4620   0.674E-03    0.520E-03
DAV:   7    -0.851590084330E+03   -0.54744E-07   -0.14718E-06  3800   0.236E-03
  35 F= -.85948435E+03 E0= -.85948435E+03  d E =0.549306E-03  mag=    -0.0000
       N       E                     dE             d eps       ncg     rms          rms(c)
DAV:   1    -0.851590358100E+03   -0.27382E-03   -0.13158E-02  4420   0.235E-01    0.262E-02
DAV:   2    -0.851590381217E+03   -0.23117E-04   -0.33420E-04  5300   0.339E-02    0.235E-02
DAV:   3    -0.851590374102E+03    0.71154E-05   -0.17032E-05  5720   0.763E-03    0.174E-02
DAV:   4    -0.851590368816E+03    0.52855E-05   -0.12936E-05  4440   0.761E-03    0.768E-03
DAV:   5    -0.851590368516E+03    0.30036E-06   -0.35496E-06  3500   0.345E-03
  36 F= -.85948463E+03 E0= -.85948463E+03  d E =-.281662E-03  mag=     0.0000
       N       E                     dE             d eps       ncg     rms          rms(c)
DAV:   1    -0.851590124107E+03    0.24471E-03   -0.14341E-02  4360   0.244E-01    0.271E-02
DAV:   2    -0.851590149902E+03   -0.25794E-04   -0.35642E-04  5300   0.350E-02    0.240E-02
DAV:   3    -0.851590143194E+03    0.67075E-05   -0.17258E-05  5740   0.772E-03    0.179E-02
DAV:   4    -0.851590138486E+03    0.47085E-05   -0.14822E-05  4460   0.813E-03    0.768E-03
DAV:   5    -0.851590138367E+03    0.11867E-06   -0.35819E-06  3580   0.349E-03
  37 F= -.85948440E+03 E0= -.85948440E+03  d E =0.235231E-03  mag=     0.0000
       N       E                     dE             d eps       ncg     rms          rms(c)
DAV:   1    -0.851590225997E+03   -0.87511E-04   -0.62861E-04  4500   0.513E-02    0.591E-03
DAV:   2    -0.851590227025E+03   -0.10286E-05   -0.17085E-05  5320   0.763E-03    0.551E-03
DAV:   3    -0.851590226599E+03    0.42572E-06   -0.68106E-07  2410   0.171E-03
  38 F= -.85948449E+03 E0= -.85948449E+03  d E =-.885532E-04  mag=     0.0000
       N       E                     dE             d eps       ncg     rms          rms(c)
DAV:   1    -0.851590322043E+03   -0.95018E-04   -0.19130E-03  4400   0.895E-02    0.109E-02
DAV:   2    -0.851590325091E+03   -0.30478E-05   -0.45820E-05  5480   0.126E-02    0.972E-03
DAV:   3    -0.851590323867E+03    0.12238E-05   -0.22310E-06  3280   0.303E-03    0.696E-03
DAV:   4    -0.851590323236E+03    0.63106E-06   -0.35125E-06  4080   0.376E-03
  39 F= -.85948458E+03 E0= -.85948458E+03  d E =-.969176E-04  mag=    -0.0000
       N       E                     dE             d eps       ncg     rms          rms(c)
DAV:   1    -0.851590336386E+03   -0.12519E-04   -0.28467E-03  4400   0.109E-01    0.131E-02
DAV:   2    -0.851590341211E+03   -0.48253E-05   -0.71942E-05  5300   0.158E-02    0.116E-02
DAV:   3    -0.851590339457E+03    0.17544E-05   -0.39873E-06  4370   0.381E-03    0.836E-03
DAV:   4    -0.851590338505E+03    0.95145E-06   -0.40193E-06  4060   0.404E-03
  40 F= -.85948460E+03 E0= -.85948460E+03  d E =-.150033E-04  mag=    -0.0000
       N       E                     dE             d eps       ncg     rms          rms(c)
DAV:   1    -0.851590338663E+03    0.79357E-06   -0.29517E-06  3580   0.343E-03    0.160E-03
DAV:   2    -0.851590338678E+03   -0.14406E-07   -0.15656E-07  2400   0.808E-04
  41 F= -.85948460E+03 E0= -.85948460E+03  d E =-.799276E-07  mag=     0.0000
       N       E                     dE             d eps       ncg     rms          rms(c)
DAV:   1    -0.851590338913E+03   -0.24935E-06   -0.82131E-06  4240   0.559E-03    0.949E-04
DAV:   2    -0.851590338925E+03   -0.12384E-07   -0.20325E-07  2480   0.855E-04
  42 F= -.85948460E+03 E0= -.85948460E+03  d E =-.516710E-07  mag=    -0.0000
       N       E                     dE             d eps       ncg     rms          rms(c)
DAV:   1    -0.851590338895E+03    0.17986E-07   -0.17282E-05  4400   0.804E-03    0.140E-03
DAV:   2    -0.851590338908E+03   -0.13330E-07   -0.36694E-07  2480   0.114E-03
  43 F= -.85948460E+03 E0= -.85948460E+03  d E =0.304828E-06  mag=    -0.0000
       N       E                     dE             d eps       ncg     rms          rms(c)
DAV:   1    -0.851590338194E+03    0.70067E-06   -0.28114E-05  4480   0.102E-02    0.185E-03
DAV:   2    -0.851590338207E+03   -0.13213E-07   -0.52732E-07  2480   0.135E-03
  44 F= -.85948460E+03 E0= -.85948460E+03  d E =0.109504E-05  mag=     0.0000
       N       E                     dE             d eps       ncg     rms          rms(c)
DAV:   1    -0.851590336634E+03    0.15605E-05   -0.40049E-05  4460   0.119E-02    0.219E-03
DAV:   2    -0.851590336656E+03   -0.22570E-07   -0.72859E-07  2650   0.156E-03
  45 F= -.85948460E+03 E0= -.85948460E+03  d E =0.203378E-05  mag=     0.0000
       N       E                     dE             d eps       ncg     rms          rms(c)
DAV:   1    -0.851590334105E+03    0.25284E-05   -0.52264E-05  4470   0.134E-02    0.253E-03
DAV:   2    -0.851590334134E+03   -0.29053E-07   -0.93508E-07  2840   0.173E-03
  46 F= -.85948459E+03 E0= -.85948459E+03  d E =0.311475E-05  mag=    -0.0000
       N       E                     dE             d eps       ncg     rms          rms(c)
DAV:   1    -0.851590330227E+03    0.38780E-05   -0.80223E-05  4430   0.163E-02    0.301E-03
DAV:   2    -0.851590330277E+03   -0.49586E-07   -0.13974E-06  3120   0.206E-03
  47 F= -.85948459E+03 E0= -.85948459E+03  d E =0.464947E-05  mag=    -0.0000
       N       E                     dE             d eps       ncg     rms          rms(c)
DAV:   1    -0.851590324980E+03    0.52468E-05   -0.12189E-04  4380   0.196E-02    0.368E-03
DAV:   2    -0.851590325056E+03   -0.75866E-07   -0.20827E-06  3360   0.243E-03
  48 F= -.85948458E+03 E0= -.85948458E+03  d E =0.626114E-05  mag=     0.0000
       N       E                     dE             d eps       ncg     rms          rms(c)
DAV:   1    -0.851590318592E+03    0.63883E-05   -0.18565E-04  4400   0.237E-02    0.453E-03
DAV:   2    -0.851590318705E+03   -0.11260E-06   -0.30939E-06  3500   0.289E-03
  49 F= -.85948457E+03 E0= -.85948457E+03  d E =0.768313E-05  mag=     0.0000
       N       E                     dE             d eps       ncg     rms          rms(c)
DAV:   1    -0.851590311309E+03    0.72829E-05   -0.28460E-04  4420   0.292E-02    0.559E-03
DAV:   2    -0.851590311491E+03   -0.18223E-06   -0.47522E-06  3900   0.352E-03
  50 F= -.85948457E+03 E0= -.85948457E+03  d E =0.890373E-05  mag=    -0.0000
       N       E                     dE             d eps       ncg     rms          rms(c)
DAV:   1    -0.851590302422E+03    0.88876E-05   -0.44405E-04  4380   0.365E-02    0.698E-03
DAV:   2    -0.851590302702E+03   -0.28026E-06   -0.73759E-06  4400   0.437E-03
  51 F= -.85948455E+03 E0= -.85948455E+03  d E =0.108463E-04  mag=    -0.0000
       N       E                     dE             d eps       ncg     rms          rms(c)
DAV:   1    -0.851590290838E+03    0.11583E-04   -0.69871E-04  4360   0.459E-02    0.876E-03
DAV:   2    -0.851590291297E+03   -0.45834E-06   -0.11774E-05  4460   0.553E-03    0.711E-03
DAV:   3    -0.851590291379E+03   -0.81942E-07   -0.43588E-07  3110   0.150E-03
  52 F= -.85948454E+03 E0= -.85948454E+03  d E =0.137922E-04  mag=     0.0000
       N       E                     dE             d eps       ncg     rms          rms(c)
DAV:   1    -0.851590275246E+03    0.16051E-04   -0.10527E-03  4340   0.562E-02    0.737E-03
DAV:   2    -0.851590276492E+03   -0.12463E-05   -0.17614E-05  4520   0.666E-03    0.576E-03
DAV:   3    -0.851590276449E+03    0.42783E-07   -0.28116E-07  3010   0.118E-03
  53 F= -.85948452E+03 E0= -.85948452E+03  d E =0.180384E-04  mag=     0.0000
       N       E                     dE             d eps       ncg     rms          rms(c)
DAV:   1    -0.851590255788E+03    0.20704E-04   -0.15922E-03  4340   0.686E-02    0.890E-03
DAV:   2    -0.851590257683E+03   -0.18957E-05   -0.26840E-05  4460   0.815E-03    0.694E-03
DAV:   3    -0.851590257566E+03    0.11769E-06   -0.45398E-07  3310   0.145E-03
  54 F= -.85948450E+03 E0= -.85948450E+03  d E =0.227751E-04  mag=    -0.0000
       N       E                     dE             d eps       ncg     rms          rms(c)
DAV:   1    -0.851590232657E+03    0.25027E-04   -0.24065E-03  4340   0.837E-02    0.110E-02
DAV:   2    -0.851590235486E+03   -0.28293E-05   -0.40172E-05  4460   0.988E-03    0.858E-03
DAV:   3    -0.851590235323E+03    0.16322E-06   -0.67238E-07  3480   0.175E-03
  55 F= -.85948447E+03 E0= -.85948447E+03  d E =0.269979E-04  mag=     0.0000
       N       E                     dE             d eps       ncg     rms          rms(c)
DAV:   1    -0.851590204617E+03    0.30869E-04   -0.36779E-03  4340   0.103E-01    0.136E-02
DAV:   2    -0.851590208962E+03   -0.43457E-05   -0.61747E-05  4420   0.122E-02    0.106E-02
DAV:   3    -0.851590208697E+03    0.26562E-06   -0.10480E-06  3640   0.216E-03
  56 F= -.85948444E+03 E0= -.85948444E+03  d E =0.322765E-04  mag=    -0.0000
       N       E                     dE             d eps       ncg     rms          rms(c)
DAV:   1    -0.851590169048E+03    0.39914E-04   -0.55152E-03  4340   0.126E-01    0.167E-02
DAV:   2    -0.851590175494E+03   -0.64453E-05   -0.92230E-05  4420   0.149E-02    0.130E-02
DAV:   3    -0.851590175105E+03    0.38811E-06   -0.16195E-06  3900   0.264E-03
  57 F= -.85948440E+03 E0= -.85948440E+03  d E =0.405188E-04  mag=    -0.0000
       N       E                     dE             d eps       ncg     rms          rms(c)
DAV:   1    -0.851590125296E+03    0.50197E-04   -0.81774E-03  4340   0.154E-01    0.203E-02
DAV:   2    -0.851590134785E+03   -0.94889E-05   -0.13602E-04  4420   0.181E-02    0.158E-02
DAV:   3    -0.851590134150E+03    0.63524E-06   -0.24427E-06  4120   0.322E-03
  58 F= -.85948435E+03 E0= -.85948435E+03  d E =0.494674E-04  mag=    -0.0000
       N       E                     dE             d eps       ncg     rms          rms(c)
DAV:   1    -0.851590070681E+03    0.64104E-04   -0.12202E-02  4340   0.188E-01    0.248E-02
DAV:   2    -0.851590084779E+03   -0.14098E-04   -0.20231E-04  4400   0.222E-02    0.194E-02
DAV:   3    -0.851590083821E+03    0.95773E-06   -0.37837E-06  4440   0.396E-03
  59 F= -.85948429E+03 E0= -.85948429E+03  d E =0.611994E-04  mag=    -0.0000
       N       E                     dE             d eps       ncg     rms          rms(c)
DAV:   1    -0.851590001382E+03    0.83397E-04   -0.18041E-02  4340   0.230E-01    0.304E-02
DAV:   2    -0.851590021933E+03   -0.20550E-04   -0.29852E-04  4400   0.271E-02    0.238E-02
DAV:   3    -0.851590020537E+03    0.13959E-05   -0.57616E-06  4810   0.487E-03    0.174E-02
DAV:   4    -0.851590026074E+03   -0.55373E-05   -0.10168E-05  4280   0.642E-03    0.334E-03
DAV:   5    -0.851590026176E+03   -0.10214E-06   -0.23376E-06  4090   0.262E-03
  60 F= -.85948422E+03 E0= -.85948422E+03  d E =0.712437E-04  mag=    -0.0000
       N       E                     dE             d eps       ncg     rms          rms(c)
DAV:   1    -0.851589909732E+03    0.11634E-03   -0.26446E-02  4380   0.279E-01    0.357E-02
DAV:   2    -0.851589942983E+03   -0.33251E-04   -0.46955E-04  4380   0.342E-02    0.277E-02
DAV:   3    -0.851589939211E+03    0.37724E-05   -0.88350E-06  4900   0.611E-03    0.205E-02
DAV:   4    -0.851589945684E+03   -0.64737E-05   -0.17244E-05  4410   0.842E-03    0.433E-03
DAV:   5    -0.851589945822E+03   -0.13781E-06   -0.38652E-06  4540   0.341E-03
  61 F= -.85948412E+03 E0= -.85948412E+03  d E =0.978177E-04  mag=    -0.0000
       N       E                     dE             d eps       ncg     rms          rms(c)
DAV:   1    -0.851589797820E+03    0.14786E-03   -0.38738E-02  4380   0.335E-01    0.432E-02
DAV:   2    -0.851589846797E+03   -0.48977E-04   -0.69163E-04  4360   0.411E-02    0.335E-02
DAV:   3    -0.851589841153E+03    0.56433E-05   -0.12768E-05  5060   0.730E-03    0.250E-02
DAV:   4    -0.851589851208E+03   -0.10055E-04   -0.26128E-05  4400   0.102E-02    0.529E-03
DAV:   5    -0.851589851392E+03   -0.18400E-06   -0.57404E-06  4860   0.414E-03
  62 F= -.85948400E+03 E0= -.85948400E+03  d E =0.117662E-03  mag=     0.0000
       N       E                     dE             d eps       ncg     rms          rms(c)
DAV:   1    -0.851589659362E+03    0.19185E-03   -0.58641E-02  4400   0.408E-01    0.530E-02
DAV:   2    -0.851589735314E+03   -0.75952E-04   -0.10661E-03  4400   0.500E-02    0.409E-02
DAV:   3    -0.851589726847E+03    0.84677E-05   -0.18634E-05  5140   0.878E-03    0.307E-02
DAV:   4    -0.851589741988E+03   -0.15141E-04   -0.40609E-05  4420   0.125E-02    0.642E-03
DAV:   5    -0.851589742428E+03   -0.43980E-06   -0.86732E-06  4990   0.502E-03
  63 F= -.85948387E+03 E0= -.85948387E+03  d E =0.137559E-03  mag=    -0.0000
       N       E                     dE             d eps       ncg     rms          rms(c)
DAV:   1    -0.851589494045E+03    0.24794E-03   -0.80352E-02  4400   0.480E-01    0.631E-02
DAV:   2    -0.851589594975E+03   -0.10093E-03   -0.14286E-03  4400   0.586E-02    0.485E-02
DAV:   3    -0.851589584348E+03    0.10626E-04   -0.25995E-05  5080   0.104E-02    0.360E-02
DAV:   4    -0.851589605781E+03   -0.21433E-04   -0.52625E-05  4500   0.144E-02    0.756E-03
DAV:   5    -0.851589606131E+03   -0.34976E-06   -0.11674E-05  4920   0.594E-03    0.505E-03
DAV:   6    -0.851589606105E+03    0.25539E-07   -0.25210E-06  3860   0.310E-03
  64 F= -.85948369E+03 E0= -.85948369E+03  d E =0.171425E-03  mag=    -0.0000
       N       E                     dE             d eps       ncg     rms          rms(c)
DAV:   1    -0.851589279899E+03    0.32623E-03   -0.11661E-01  4360   0.576E-01    0.753E-02
DAV:   2    -0.851589429096E+03   -0.14920E-03   -0.20916E-03  4400   0.704E-02    0.587E-02
DAV:   3    -0.851589412066E+03    0.17031E-04   -0.39049E-05  5120   0.128E-02    0.437E-02
DAV:   4    -0.851589440114E+03   -0.28049E-04   -0.82527E-05  4660   0.179E-02    0.924E-03
DAV:   5    -0.851589440747E+03   -0.63280E-06   -0.17750E-05  4980   0.733E-03    0.622E-03
DAV:   6    -0.851589440800E+03   -0.53202E-07   -0.35477E-06  4080   0.369E-03
  65 F= -.85948348E+03 E0= -.85948348E+03  d E =0.209670E-03  mag=     0.0000
       N       E                     dE             d eps       ncg     rms          rms(c)
DAV:   1    -0.851589021978E+03    0.41877E-03   -0.16428E-01  4360   0.685E-01    0.899E-02
DAV:   2    -0.851589232446E+03   -0.21047E-03   -0.29312E-03  4420   0.839E-02    0.701E-02
DAV:   3    -0.851589208428E+03    0.24018E-04   -0.57407E-05  5240   0.155E-02    0.519E-02
DAV:   4    -0.851589243981E+03   -0.35553E-04   -0.11408E-04  4860   0.211E-02    0.111E-02
DAV:   5    -0.851589245287E+03   -0.13057E-05   -0.25048E-05  4980   0.874E-03    0.733E-03
DAV:   6    -0.851589245412E+03   -0.12515E-06   -0.48528E-06  4220   0.421E-03
  66 F= -.85948323E+03 E0= -.85948323E+03  d E =0.253189E-03  mag=     0.0000
       N       E                     dE             d eps       ncg     rms          rms(c)
DAV:   1    -0.851588666159E+03    0.57913E-03   -0.23570E-01  4360   0.825E-01    0.108E-01
DAV:   2    -0.851588976540E+03   -0.31038E-03   -0.42565E-03  4460   0.101E-01    0.844E-02
DAV:   3    -0.851588939205E+03    0.37335E-04   -0.88247E-05  5180   0.190E-02    0.626E-02
DAV:   4    -0.851588980731E+03   -0.41526E-04   -0.16696E-04  4860   0.258E-02    0.142E-02
DAV:   5    -0.851588983800E+03   -0.30690E-05   -0.37650E-05  5000   0.106E-02    0.909E-03
DAV:   6    -0.851588984215E+03   -0.41472E-06   -0.71786E-06  4220   0.515E-03
  67 F= -.85948290E+03 E0= -.85948290E+03  d E =0.328051E-03  mag=    -0.0000
       N       E                     dE             d eps       ncg     rms          rms(c)
DAV:   1    -0.851588013577E+03    0.97022E-03   -0.34294E-01  4340   0.102E+00    0.130E-01
DAV:   2    -0.851588496357E+03   -0.48278E-03   -0.64711E-03  4580   0.128E-01    0.103E-01
DAV:   3    -0.851588431964E+03    0.64394E-04   -0.16034E-04  5300   0.251E-02    0.769E-02
DAV:   4    -0.851588467397E+03   -0.35433E-04   -0.24431E-04  4760   0.321E-02    0.206E-02
DAV:   5    -0.851588476314E+03   -0.89175E-05   -0.57682E-05  4980   0.131E-02    0.120E-02
DAV:   6    -0.851588477411E+03   -0.10970E-05   -0.11987E-05  4580   0.642E-03    0.526E-03
DAV:   7    -0.851588477438E+03   -0.26848E-07   -0.14010E-06  3840   0.236E-03
  68 F= -.85948232E+03 E0= -.85948232E+03  d E =0.586274E-03  mag=     0.0000
       N       E                     dE             d eps       ncg     rms          rms(c)
DAV:   1    -0.851588787687E+03   -0.31028E-03   -0.15788E-02  4440   0.257E-01    0.291E-02
DAV:   2    -0.851588814536E+03   -0.26849E-04   -0.40196E-04  5280   0.372E-02    0.261E-02
DAV:   3    -0.851588805646E+03    0.88901E-05   -0.22098E-05  5800   0.867E-03    0.192E-02
DAV:   4    -0.851588799688E+03    0.59578E-05   -0.15318E-05  4440   0.825E-03    0.891E-03
DAV:   5    -0.851588799327E+03    0.36109E-06   -0.43174E-06  3580   0.387E-03
  69 F= -.85948264E+03 E0= -.85948264E+03  d E =-.328068E-03  mag=    -0.0000
       N       E                     dE             d eps       ncg     rms          rms(c)
DAV:   1    -0.851588514989E+03    0.28470E-03   -0.15793E-02  4320   0.258E-01    0.289E-02
DAV:   2    -0.851588542701E+03   -0.27713E-04   -0.39580E-04  5280   0.372E-02    0.255E-02
DAV:   3    -0.851588534924E+03    0.77770E-05   -0.20722E-05  5740   0.846E-03    0.190E-02
DAV:   4    -0.851588530125E+03    0.47993E-05   -0.16066E-05  4420   0.846E-03    0.851E-03
DAV:   5    -0.851588530017E+03    0.10757E-06   -0.40233E-06  3560   0.374E-03
  70 F= -.85948238E+03 E0= -.85948238E+03  d E =0.266904E-03  mag=     0.0000
       N       E                     dE             d eps       ncg     rms          rms(c)
DAV:   1    -0.851588638462E+03   -0.10834E-03   -0.76874E-04  4560   0.568E-02    0.659E-03
DAV:   2    -0.851588639666E+03   -0.12035E-05   -0.20711E-05  5340   0.841E-03    0.614E-03
DAV:   3    -0.851588639127E+03    0.53876E-06   -0.90646E-07  2460   0.197E-03
  71 F= -.85948249E+03 E0= -.85948249E+03  d E =-.107599E-03  mag=     0.0000
       N       E                     dE             d eps       ncg     rms          rms(c)
DAV:   1    -0.851588757495E+03   -0.11783E-03   -0.23256E-03  4440   0.988E-02    0.122E-02
DAV:   2    -0.851588761059E+03   -0.35635E-05   -0.55312E-05  5400   0.138E-02    0.109E-02
DAV:   3    -0.851588759554E+03    0.15051E-05   -0.31687E-06  4000   0.349E-03    0.775E-03
DAV:   4    -0.851588758830E+03    0.72402E-06   -0.34999E-06  3860   0.383E-03
  72 F= -.85948260E+03 E0= -.85948260E+03  d E =-.116911E-03  mag=     0.0000
       N       E                     dE             d eps       ncg     rms          rms(c)
DAV:   1    -0.851588776286E+03   -0.16732E-04   -0.33933E-03  4340   0.119E-01    0.141E-02
DAV:   2    -0.851588782094E+03   -0.58086E-05   -0.85269E-05  5280   0.172E-02    0.125E-02
DAV:   3    -0.851588780158E+03    0.19360E-05   -0.47965E-06  4870   0.413E-03    0.920E-03
DAV:   4    -0.851588779090E+03    0.10686E-05   -0.42412E-06  4120   0.425E-03    0.413E-03
DAV:   5    -0.851588779040E+03    0.49855E-07   -0.88348E-07  2720   0.182E-03
  73 F= -.85948262E+03 E0= -.85948262E+03  d E =-.164367E-04  mag=    -0.0000
       N       E                     dE             d eps       ncg     rms          rms(c)
DAV:   1    -0.851588779736E+03   -0.64690E-06   -0.28116E-06  3510   0.342E-03    0.105E-03
DAV:   2    -0.851588779741E+03   -0.43947E-08   -0.14776E-07  2400   0.756E-04
  74 F= -.85948262E+03 E0= -.85948262E+03  d E =-.647515E-06  mag=     0.0000
       N       E                     dE             d eps       ncg     rms          rms(c)
DAV:   1    -0.851588780821E+03   -0.10844E-05   -0.85960E-06  4240   0.586E-03    0.104E-03
DAV:   2    -0.851588780829E+03   -0.84328E-08   -0.20092E-07  2400   0.881E-04
  75 F= -.85948262E+03 E0= -.85948262E+03  d E =-.977462E-06  mag=     0.0000
       N       E                     dE             d eps       ncg     rms          rms(c)
DAV:   1    -0.851588781823E+03   -0.10022E-05   -0.18426E-05  4420   0.856E-03    0.148E-03
DAV:   2    -0.851588781836E+03   -0.13351E-07   -0.40485E-07  2480   0.123E-03
  76 F= -.85948262E+03 E0= -.85948262E+03  d E =-.832123E-06  mag=     0.0000
       N       E                     dE             d eps       ncg     rms          rms(c)
DAV:   1    -0.851588782273E+03   -0.45023E-06   -0.29422E-05  4440   0.107E-02    0.193E-03
DAV:   2    -0.851588782285E+03   -0.12144E-07   -0.58156E-07  2520   0.147E-03
  77 F= -.85948262E+03 E0= -.85948262E+03  d E =-.194855E-06  mag=     0.0000
       N       E                     dE             d eps       ncg     rms          rms(c)
DAV:   1    -0.851588781794E+03    0.47978E-06   -0.40101E-05  4440   0.123E-02    0.225E-03
DAV:   2    -0.851588781812E+03   -0.18583E-07   -0.76649E-07  2680   0.167E-03
  78 F= -.85948262E+03 E0= -.85948262E+03  d E =0.821246E-06  mag=     0.0000
       N       E                     dE             d eps       ncg     rms          rms(c)
DAV:   1    -0.851588780117E+03    0.16762E-05   -0.49187E-05  4440   0.134E-02    0.252E-03
DAV:   2    -0.851588780135E+03   -0.17993E-07   -0.91519E-07  2920   0.178E-03
  79 F= -.85948262E+03 E0= -.85948262E+03  d E =0.214457E-05  mag=    -0.0000
       N       E                     dE             d eps       ncg     rms          rms(c)
DAV:   1    -0.851588776952E+03    0.31651E-05   -0.69330E-05  4400   0.154E-02    0.290E-03
DAV:   2    -0.851588776981E+03   -0.28631E-07   -0.12456E-06  3240   0.199E-03
  80 F= -.85948261E+03 E0= -.85948261E+03  d E =0.378741E-05  mag=     0.0000
       N       E                     dE             d eps       ncg     rms          rms(c)
DAV:   1    -0.851588772648E+03    0.43047E-05   -0.95879E-05  4420   0.174E-02    0.341E-03
DAV:   2    -0.851588772681E+03   -0.33462E-07   -0.16523E-06  3280   0.216E-03
  81 F= -.85948261E+03 E0= -.85948261E+03  d E =0.514820E-05  mag=     0.0000
       N       E                     dE             d eps       ncg     rms          rms(c)
DAV:   1    -0.851588767708E+03    0.49394E-05   -0.13670E-04  4360   0.200E-02    0.404E-03
DAV:   2    -0.851588767743E+03   -0.34554E-07   -0.22607E-06  3480   0.241E-03
  82 F= -.85948260E+03 E0= -.85948260E+03  d E =0.606166E-05  mag=    -0.0000
       N       E                     dE             d eps       ncg     rms          rms(c)
DAV:   1    -0.851588762793E+03    0.49147E-05   -0.20312E-04  4380   0.240E-02    0.486E-03
DAV:   2    -0.851588762833E+03   -0.39487E-07   -0.33464E-06  3580   0.286E-03
  83 F= -.85948260E+03 E0= -.85948260E+03  d E =0.644429E-05  mag=     0.0000
       N       E                     dE             d eps       ncg     rms          rms(c)
DAV:   1    -0.851588757257E+03    0.55368E-05   -0.31579E-04  4360   0.302E-02    0.601E-03
DAV:   2    -0.851588757312E+03   -0.55319E-07   -0.52758E-06  4140   0.359E-03
  84 F= -.85948259E+03 E0= -.85948259E+03  d E =0.757065E-05  mag=    -0.0000
       N       E                     dE             d eps       ncg     rms          rms(c)
DAV:   1    -0.851588750015E+03    0.72418E-05   -0.49585E-04  4380   0.380E-02    0.758E-03
DAV:   2    -0.851588750130E+03   -0.11507E-06   -0.83440E-06  4400   0.453E-03
  85 F= -.85948258E+03 E0= -.85948258E+03  d E =0.972785E-05  mag=     0.0000
       N       E                     dE             d eps       ncg     rms          rms(c)
DAV:   1    -0.851588739659E+03    0.10355E-04   -0.75422E-04  4320   0.466E-02    0.944E-03
DAV:   2    -0.851588739843E+03   -0.18371E-06   -0.12693E-05  4520   0.554E-03    0.759E-03
DAV:   3    -0.851588740183E+03   -0.33985E-06   -0.49987E-07  3080   0.155E-03
  86 F= -.85948257E+03 E0= -.85948257E+03  d E =0.131612E-04  mag=     0.0000
       N       E                     dE             d eps       ncg     rms          rms(c)
DAV:   1    -0.851588726355E+03    0.13488E-04   -0.11071E-03  4340   0.556E-02    0.785E-03
DAV:   2    -0.851588727384E+03   -0.10292E-05   -0.18346E-05  4500   0.643E-03    0.599E-03
DAV:   3    -0.851588727381E+03    0.30268E-08   -0.29663E-07  3420   0.115E-03
  87 F= -.85948255E+03 E0= -.85948255E+03  d E =0.164413E-04  mag=    -0.0000
       N       E                     dE             d eps       ncg     rms          rms(c)
DAV:   1    -0.851588709660E+03    0.17724E-04   -0.16175E-03  4320   0.669E-02    0.935E-03
DAV:   2    -0.851588711213E+03   -0.15524E-05   -0.27027E-05  4460   0.778E-03    0.714E-03
DAV:   3    -0.851588711120E+03    0.92434E-07   -0.45633E-07  3320   0.142E-03
  88 F= -.85948253E+03 E0= -.85948253E+03  d E =0.204707E-04  mag=    -0.0000
       N       E                     dE             d eps       ncg     rms          rms(c)
DAV:   1    -0.851588689085E+03    0.22127E-04   -0.24066E-03  4340   0.816E-02    0.115E-02
DAV:   2    -0.851588691379E+03   -0.22935E-05   -0.40148E-05  4540   0.950E-03    0.876E-03
DAV:   3    -0.851588691246E+03    0.13317E-06   -0.68785E-07  3580   0.174E-03
  89 F= -.85948250E+03 E0= -.85948250E+03  d E =0.248474E-04  mag=    -0.0000
       N       E                     dE             d eps       ncg     rms          rms(c)
DAV:   1    -0.851588661703E+03    0.29676E-04   -0.35924E-03  4320   0.990E-02    0.140E-02
DAV:   2    -0.851588665181E+03   -0.34783E-05   -0.60497E-05  4520   0.115E-02    0.107E-02
DAV:   3    -0.851588664980E+03    0.20129E-06   -0.10357E-06  3720   0.212E-03
  90 F= -.85948247E+03 E0= -.85948247E+03  d E =0.326451E-04  mag=    -0.0000
       N       E                     dE             d eps       ncg     rms          rms(c)
DAV:   1    -0.851588627063E+03    0.38118E-04   -0.51659E-03  4320   0.118E-01    0.168E-02
DAV:   2    -0.851588632029E+03   -0.49656E-05   -0.86335E-05  4480   0.137E-02    0.129E-02
DAV:   3    -0.851588631769E+03    0.25921E-06   -0.14410E-06  3790   0.249E-03
  91 F= -.85948243E+03 E0= -.85948243E+03  d E =0.413629E-04  mag=    -0.0000
       N       E                     dE             d eps       ncg     rms          rms(c)
DAV:   1    -0.851588584978E+03    0.47050E-04   -0.75728E-03  4320   0.143E-01    0.203E-02
DAV:   2    -0.851588592545E+03   -0.75666E-05   -0.12767E-04  4460   0.167E-02    0.156E-02
DAV:   3    -0.851588592131E+03    0.41410E-06   -0.22025E-06  4080   0.302E-03
  92 F= -.85948238E+03 E0= -.85948238E+03  d E =0.486738E-04  mag=     0.0000
       N       E                     dE             d eps       ncg     rms          rms(c)
DAV:   1    -0.851588531612E+03    0.60933E-04   -0.11373E-02  4320   0.175E-01    0.251E-02
DAV:   2    -0.851588543342E+03   -0.11730E-04   -0.19249E-04  4440   0.204E-02    0.192E-02
DAV:   3    -0.851588542650E+03    0.69129E-06   -0.34023E-06  4380   0.370E-03
  93 F= -.85948232E+03 E0= -.85948232E+03  d E =0.597362E-04  mag=    -0.0000
       N       E                     dE             d eps       ncg     rms          rms(c)
DAV:   1    -0.851588469010E+03    0.74331E-04   -0.16748E-02  4320   0.210E-01    0.308E-02
DAV:   2    -0.851588486517E+03   -0.17507E-04   -0.28362E-04  4400   0.246E-02    0.234E-02
DAV:   3    -0.851588485606E+03    0.91108E-06   -0.51842E-06  4670   0.453E-03
  94 F= -.85948225E+03 E0= -.85948225E+03  d E =0.683863E-04  mag=     0.0000
       N       E                     dE             d eps       ncg     rms          rms(c)
DAV:   1    -0.851588390691E+03    0.95827E-04   -0.24082E-02  4320   0.254E-01    0.372E-02
DAV:   2    -0.851588416612E+03   -0.25922E-04   -0.40634E-04  4400   0.297E-02    0.286E-02
DAV:   3    -0.851588415182E+03    0.14303E-05   -0.74418E-06  5030   0.542E-03    0.209E-02
DAV:   4    -0.851588425777E+03   -0.10595E-04   -0.13192E-05  4360   0.705E-03    0.384E-03
DAV:   5    -0.851588426087E+03   -0.31001E-06   -0.29039E-06  4260   0.288E-03
  95 F= -.85948218E+03 E0= -.85948218E+03  d E =0.724341E-04  mag=     0.0000
       N       E                     dE             d eps       ncg     rms          rms(c)
DAV:   1    -0.851588303387E+03    0.12239E-03   -0.33900E-02  4380   0.300E-01    0.423E-02
DAV:   2    -0.851588345754E+03   -0.42367E-04   -0.61443E-04  4400   0.364E-02    0.325E-02
DAV:   3    -0.851588341205E+03    0.45493E-05   -0.10183E-05  4900   0.644E-03    0.243E-02
DAV:   4    -0.851588353094E+03   -0.11889E-04   -0.23837E-05  4380   0.939E-03    0.499E-03
DAV:   5    -0.851588353378E+03   -0.28359E-06   -0.48523E-06  4700   0.380E-03
  96 F= -.85948209E+03 E0= -.85948209E+03  d E =0.930270E-04  mag=     0.0000
       N       E                     dE             d eps       ncg     rms          rms(c)
DAV:   1    -0.851588178509E+03    0.17458E-03   -0.47547E-02  4360   0.350E-01    0.505E-02
DAV:   2    -0.851588240333E+03   -0.61823E-04   -0.87623E-04  4440   0.427E-02    0.388E-02
DAV:   3    -0.851588234162E+03    0.61704E-05   -0.13912E-05  5060   0.748E-03    0.291E-02
DAV:   4    -0.851588250569E+03   -0.16407E-04   -0.34524E-05  4420   0.111E-02    0.594E-03
DAV:   5    -0.851588250927E+03   -0.35792E-06   -0.68269E-06  4900   0.449E-03
  97 F= -.85948197E+03 E0= -.85948197E+03  d E =0.122056E-03  mag=    -0.0000
       N       E                     dE             d eps       ncg     rms          rms(c)
DAV:   1    -0.851588018853E+03    0.23172E-03   -0.65908E-02  4340   0.408E-01    0.601E-02
DAV:   2    -0.851588105941E+03   -0.87088E-04   -0.12154E-03  4420   0.500E-02    0.459E-02
DAV:   3    -0.851588097957E+03    0.79840E-05   -0.19488E-05  5180   0.873E-03    0.344E-02
DAV:   4    -0.851588120314E+03   -0.22357E-04   -0.45514E-05  4420   0.127E-02    0.689E-03
DAV:   5    -0.851588120811E+03   -0.49709E-06   -0.89831E-06  4860   0.515E-03
  98 F= -.85948181E+03 E0= -.85948181E+03  d E =0.155590E-03  mag=    -0.0000
       N       E                     dE             d eps       ncg     rms          rms(c)
DAV:   1    -0.851587825675E+03    0.29464E-03   -0.94784E-02  4340   0.483E-01    0.722E-02
DAV:   2    -0.851587956652E+03   -0.13098E-03   -0.17874E-03  4560   0.596E-02    0.547E-02
DAV:   3    -0.851587945069E+03    0.11583E-04   -0.28989E-05  5240   0.105E-02    0.410E-02
DAV:   4    -0.851587974012E+03   -0.28944E-04   -0.65745E-05  4540   0.151E-02    0.835E-03
DAV:   5    -0.851587975184E+03   -0.11713E-05   -0.13127E-05  4840   0.613E-03    0.599E-03
DAV:   6    -0.851587975141E+03    0.42644E-07   -0.31467E-06  4080   0.344E-03
  99 F= -.85948163E+03 E0= -.85948163E+03  d E =0.182633E-03  mag=     0.0000
       N       E                     dE             d eps       ncg     rms          rms(c)
DAV:   1    -0.851587601565E+03    0.37362E-03   -0.12451E-01  4320   0.566E-01    0.824E-02
DAV:   2    -0.851587777314E+03   -0.17575E-03   -0.23621E-03  4540   0.707E-02    0.636E-02
DAV:   3    -0.851587758810E+03    0.18505E-04   -0.43627E-05  5260   0.130E-02    0.477E-02
DAV:   4    -0.851587789829E+03   -0.31019E-04   -0.92269E-05  4580   0.185E-02    0.107E-02
DAV:   5    -0.851587791850E+03   -0.20212E-05   -0.18839E-05  4880   0.756E-03    0.729E-03
DAV:   6    -0.851587791970E+03   -0.11990E-06   -0.49278E-06  4160   0.434E-03
 100 F= -.85948141E+03 E0= -.85948141E+03  d E =0.217770E-03  mag=    -0.0000
       N       E                     dE             d eps       ncg     rms          rms(c)
DAV:   1    -0.851587187058E+03    0.60479E-03   -0.18016E-01  4320   0.720E-01    0.992E-02
DAV:   2    -0.851587457702E+03   -0.27064E-03   -0.36009E-03  4680   0.935E-02    0.779E-02
DAV:   3    -0.851587423378E+03    0.34324E-04   -0.88200E-05  5340   0.182E-02    0.584E-02
DAV:   4    -0.851587446732E+03   -0.23354E-04   -0.13630E-04  4600   0.236E-02    0.162E-02
DAV:   5    -0.851587453442E+03   -0.67101E-05   -0.29471E-05  4860   0.967E-03    0.945E-03
DAV:   6    -0.851587453981E+03   -0.53888E-06   -0.68707E-06  4640   0.470E-03
 101 F= -.85948100E+03 E0= -.85948100E+03  d E =0.411097E-03  mag=    -0.0000
       N       E                     dE             d eps       ncg     rms          rms(c)
DAV:   1    -0.851587721295E+03   -0.26785E-03   -0.14563E-02  4480   0.247E-01    0.279E-02
DAV:   2    -0.851587745634E+03   -0.24339E-04   -0.37054E-04  5340   0.358E-02    0.254E-02
DAV:   3    -0.851587737408E+03    0.82259E-05   -0.19120E-05  5700   0.821E-03    0.189E-02
DAV:   4    -0.851587730935E+03    0.64730E-05   -0.14656E-05  4380   0.819E-03    0.833E-03
DAV:   5    -0.851587730591E+03    0.34391E-06   -0.44669E-06  3620   0.394E-03
 102 F= -.85948129E+03 E0= -.85948129E+03  d E =-.287863E-03  mag=    -0.0000
       N       E                     dE             d eps       ncg     rms          rms(c)
DAV:   1    -0.851587468334E+03    0.26260E-03   -0.13288E-02  4380   0.235E-01    0.264E-02
DAV:   2    -0.851587491798E+03   -0.23465E-04   -0.33228E-04  5340   0.340E-02    0.234E-02
DAV:   3    -0.851587485359E+03    0.64396E-05   -0.16636E-05  5760   0.768E-03    0.177E-02
DAV:   4    -0.851587480780E+03    0.45788E-05   -0.13408E-05  4340   0.778E-03    0.765E-03
DAV:   5    -0.851587480669E+03    0.11120E-06   -0.34728E-06  3500   0.350E-03
 103 F= -.85948105E+03 E0= -.85948105E+03  d E =0.240476E-03  mag=     0.0000
       N       E                     dE             d eps       ncg     rms          rms(c)
DAV:   1    -0.851587584534E+03   -0.10375E-03   -0.74728E-04  4480   0.558E-02    0.646E-03
DAV:   2    -0.851587585725E+03   -0.11907E-05   -0.20029E-05  5390   0.828E-03    0.602E-03
DAV:   3    -0.851587585204E+03    0.52105E-06   -0.85192E-07  2510   0.194E-03
 104 F= -.85948115E+03 E0= -.85948115E+03  d E =-.101914E-03  mag=    -0.0000
       N       E                     dE             d eps       ncg     rms          rms(c)
DAV:   1    -0.851587696621E+03   -0.11090E-03   -0.22398E-03  4480   0.967E-02    0.120E-02
DAV:   2    -0.851587700067E+03   -0.34457E-05   -0.52962E-05  5360   0.136E-02    0.107E-02
DAV:   3    -0.851587698608E+03    0.14587E-05   -0.29503E-06  4020   0.344E-03    0.765E-03
DAV:   4    -0.851587697839E+03    0.76895E-06   -0.36056E-06  3960   0.388E-03
 105 F= -.85948126E+03 E0= -.85948126E+03  d E =-.107702E-03  mag=    -0.0000
       N       E                     dE             d eps       ncg     rms          rms(c)
DAV:   1    -0.851587712571E+03   -0.13964E-04   -0.31983E-03  4420   0.115E-01    0.138E-02
DAV:   2    -0.851587718100E+03   -0.55282E-05   -0.80344E-05  5340   0.167E-02    0.123E-02
DAV:   3    -0.851587716252E+03    0.18479E-05   -0.42100E-06  4500   0.399E-03    0.909E-03
DAV:   4    -0.851587715122E+03    0.11293E-05   -0.46881E-06  4180   0.442E-03    0.381E-03
DAV:   5    -0.851587715065E+03    0.57407E-07   -0.89640E-07  2700   0.187E-03
 106 F= -.85948127E+03 E0= -.85948127E+03  d E =-.108035E-04  mag=     0.0000
       N       E                     dE             d eps       ncg     rms          rms(c)
DAV:   1    -0.851587716174E+03   -0.10514E-05   -0.31124E-06  3520   0.364E-03    0.101E-03
DAV:   2    -0.851587716181E+03   -0.72323E-08   -0.17042E-07  2400   0.800E-04
 107 F= -.85948127E+03 E0= -.85948127E+03  d E =-.114601E-05  mag=     0.0000
       N       E                     dE             d eps       ncg     rms          rms(c)
DAV:   1    -0.851587717993E+03   -0.18196E-05   -0.93160E-06  4320   0.620E-03    0.106E-03
DAV:   2    -0.851587718002E+03   -0.90295E-08   -0.22862E-07  2340   0.946E-04
 108 F= -.85948127E+03 E0= -.85948127E+03  d E =-.187069E-05  mag=     0.0000
       N       E                     dE             d eps       ncg     rms          rms(c)
DAV:   1    -0.851587720018E+03   -0.20247E-05   -0.19396E-05  4500   0.890E-03    0.152E-03
DAV:   2    -0.851587720033E+03   -0.15469E-07   -0.42938E-07  2450   0.129E-03
 109 F= -.85948127E+03 E0= -.85948127E+03  d E =-.209546E-05  mag=     0.0000
       N       E                     dE             d eps       ncg     rms          rms(c)
DAV:   1    -0.851587721601E+03   -0.15830E-05   -0.30111E-05  4460   0.110E-02    0.193E-03
DAV:   2    -0.851587721624E+03   -0.23196E-07   -0.63004E-07  2530   0.156E-03
 110 F= -.85948127E+03 E0= -.85948127E+03  d E =-.163205E-05  mag=     0.0000
       N       E                     dE             d eps       ncg     rms          rms(c)
DAV:   1    -0.851587722060E+03   -0.45886E-06   -0.39294E-05  4400   0.125E-02    0.222E-03
DAV:   2    -0.851587722090E+03   -0.30268E-07   -0.79964E-07  2900   0.174E-03
 111 F= -.85948127E+03 E0= -.85948127E+03  d E =-.419373E-06  mag=     0.0000
       N       E                     dE             d eps       ncg     rms          rms(c)
DAV:   1    -0.851587721126E+03    0.93381E-06   -0.44860E-05  4420   0.131E-02    0.241E-03
DAV:   2    -0.851587721155E+03   -0.28733E-07   -0.88509E-07  2750   0.180E-03
 112 F= -.85948127E+03 E0= -.85948127E+03  d E =0.111267E-05  mag=    -0.0000
       N       E                     dE             d eps       ncg     rms          rms(c)
DAV:   1    -0.851587718633E+03    0.24930E-05   -0.54959E-05  4410   0.140E-02    0.261E-03
DAV:   2    -0.851587718669E+03   -0.36373E-07   -0.10433E-06  3110   0.187E-03
 113 F= -.85948127E+03 E0= -.85948127E+03  d E =0.284836E-05  mag=     0.0000
       N       E                     dE             d eps       ncg     rms          rms(c)
DAV:   1    -0.851587715571E+03    0.30617E-05   -0.63866E-05  4400   0.141E-02    0.283E-03
DAV:   2    -0.851587715610E+03   -0.38672E-07   -0.11377E-06  3080   0.181E-03
 114 F= -.85948127E+03 E0= -.85948127E+03  d E =0.371184E-05  mag=     0.0000
       N       E                     dE             d eps       ncg     rms          rms(c)
DAV:   1    -0.851587712632E+03    0.29393E-05   -0.78124E-05  4340   0.144E-02    0.306E-03
DAV:   2    -0.851587712665E+03   -0.33237E-07   -0.13056E-06  3160   0.174E-03
 115 F= -.85948126E+03 E0= -.85948126E+03  d E =0.396586E-05  mag=     0.0000
       N       E                     dE             d eps       ncg     rms          rms(c)
DAV:   1    -0.851587710811E+03    0.18216E-05   -0.11016E-04  4360   0.166E-02    0.350E-03
DAV:   2    -0.851587710859E+03   -0.48771E-07   -0.18211E-06  3440   0.196E-03
 116 F= -.85948126E+03 E0= -.85948126E+03  d E =0.327860E-05  mag=     0.0000
       N       E                     dE             d eps       ncg     rms          rms(c)
DAV:   1    -0.851587709290E+03    0.15210E-05   -0.17543E-04  4360   0.218E-02    0.434E-03
DAV:   2    -0.851587709385E+03   -0.95039E-07   -0.30157E-06  3610   0.266E-03
 117 F= -.85948126E+03 E0= -.85948126E+03  d E =0.341439E-05  mag=     0.0000
       N       E                     dE             d eps       ncg     rms          rms(c)
DAV:   1    -0.851587706553E+03    0.27363E-05   -0.27608E-04  4360   0.279E-02    0.553E-03
DAV:   2    -0.851587706715E+03   -0.16149E-06   -0.49806E-06  3980   0.348E-03
 118 F= -.85948125E+03 E0= -.85948125E+03  d E =0.500943E-05  mag=    -0.0000
       N       E                     dE             d eps       ncg     rms          rms(c)
DAV:   1    -0.851587701003E+03    0.55507E-05   -0.40477E-04  4320   0.334E-02    0.691E-03
DAV:   2    -0.851587701191E+03   -0.18826E-06   -0.71011E-06  4460   0.407E-03
 119 F= -.85948124E+03 E0= -.85948124E+03  d E =0.826804E-05  mag=     0.0000
       N       E                     dE             d eps       ncg     rms          rms(c)
DAV:   1    -0.851587693242E+03    0.77610E-05   -0.56008E-04  4340   0.375E-02    0.824E-03
DAV:   2    -0.851587693460E+03   -0.21869E-06   -0.94111E-06  4360   0.441E-03
 120 F= -.85948123E+03 E0= -.85948123E+03  d E =0.109266E-04  mag=     0.0000
       N       E                     dE             d eps       ncg     rms          rms(c)
DAV:   1    -0.851587684824E+03    0.84178E-05   -0.81088E-04  4320   0.441E-02    0.976E-03
DAV:   2    -0.851587685107E+03   -0.28349E-06   -0.13565E-05  4500   0.513E-03    0.759E-03
DAV:   3    -0.851587685608E+03   -0.50082E-06   -0.38375E-07  3130   0.127E-03
 121 F= -.85948122E+03 E0= -.85948122E+03  d E =0.113205E-04  mag=    -0.0000
       N       E                     dE             d eps       ncg     rms          rms(c)
DAV:   1    -0.851587675039E+03    0.10068E-04   -0.12389E-03  4320   0.551E-02    0.817E-03
DAV:   2    -0.851587676441E+03   -0.14024E-05   -0.21344E-05  4480   0.647E-03    0.591E-03
DAV:   3    -0.851587676422E+03    0.19762E-07   -0.31720E-07  3390   0.111E-03
 122 F= -.85948121E+03 E0= -.85948121E+03  d E =0.132922E-04  mag=     0.0000
       N       E                     dE             d eps       ncg     rms          rms(c)
DAV:   1    -0.851587661077E+03    0.15364E-04   -0.18481E-03  4320   0.662E-02    0.996E-03
DAV:   2    -0.851587663160E+03   -0.20826E-05   -0.32051E-05  4540   0.773E-03    0.728E-03
DAV:   3    -0.851587663084E+03    0.76012E-07   -0.45788E-07  3490   0.132E-03
 123 F= -.85948119E+03 E0= -.85948119E+03  d E =0.187171E-04  mag=    -0.0000
       N       E                     dE             d eps       ncg     rms          rms(c)
DAV:   1    -0.851587644434E+03    0.18726E-04   -0.26398E-03  4320   0.770E-02    0.120E-02
DAV:   2    -0.851587647193E+03   -0.27590E-05   -0.44637E-05  4500   0.879E-03    0.866E-03
DAV:   3    -0.851587647155E+03    0.37689E-07   -0.59875E-07  3660   0.147E-03
 124 F= -.85948117E+03 E0= -.85948117E+03  d E =0.227824E-04  mag=     0.0000
