<?xml version="1.0" encoding="ISO-8859-1"?>
<modeling>
 <generator>
  <i name="program" type="string">vasp </i>
  <i name="version" type="string">6.4.2  </i>
  <i name="subversion" type="string">20Jul23 (build Aug 26 2025 15:10:52) complex                          parallel </i>
  <i name="platform" type="string">LinuxIFC </i>
  <i name="date" type="string">2025 12 16 </i>
  <i name="time" type="string">07:56:45 </i>
 </generator>
 <incar>
  <i type="int" name="ISTART">     0</i>
  <i type="string" name="ALGO">Normal</i>
  <i type="logical" name="ADDGRID"> T  </i>
  <i type="int" name="ISPIN">     2</i>
  <i type="int" name="IMIX">     4</i>
  <i name="AMIX">      0.20000000</i>
  <i name="BMIX">      0.00010000</i>
  <i name="AMIX_MAG">      0.80000000</i>
  <i name="BMIX_MAG">      0.00010000</i>
  <i type="int" name="ICHARG">     2</i>
  <i type="int" name="NELM">   200</i>
  <i type="int" name="IBRION">     3</i>
  <i name="EDIFF">      0.00000100</i>
  <i name="EDIFFG">     -0.03000000</i>
  <i type="int" name="NSW">  1000</i>
  <i type="int" name="ISIF">     2</i>
  <i type="int" name="ISYM">     0</i>
  <i name="ENCUT">    520.00000000</i>
  <i name="POTIM">      0.00000000</i>
  <v name="MAGMOM">      0.60000000      0.60000000      0.60000000      0.60000000      0.60000000      0.60000000      0.60000000      0.60000000      0.60000000      0.60000000      0.60000000      0.60000000      0.60000000      0.60000000      0.60000000      0.60000000      0.60000000      0.60000000      0.60000000      0.60000000
      0.60000000      0.60000000      0.60000000      0.60000000      0.60000000      0.60000000      0.60000000      0.60000000      0.60000000      0.60000000      0.60000000      0.60000000      0.60000000      0.60000000      0.60000000      0.60000000      0.60000000      0.60000000      0.60000000      0.60000000
      0.60000000      0.60000000      0.60000000      0.60000000      0.60000000      0.60000000      0.60000000      0.60000000      0.60000000      0.60000000      0.60000000      0.60000000      0.60000000      0.60000000      0.60000000      0.60000000      0.60000000      0.60000000      0.60000000      0.60000000
      0.60000000      0.60000000      0.60000000      0.60000000      0.60000000      0.60000000      0.60000000      0.60000000      0.60000000      0.60000000      0.60000000      0.60000000      0.60000000      0.60000000      0.60000000      0.60000000      0.60000000      0.60000000      0.60000000      0.60000000
      0.60000000      0.60000000      0.60000000      0.60000000      0.60000000      0.60000000      0.60000000      0.60000000      0.60000000      0.60000000      0.60000000      0.60000000      0.60000000      0.60000000      0.60000000      0.60000000      0.60000000      0.60000000      0.60000000</v>
  <i type="string" name="LREAL">Auto</i>
  <i type="int" name="ISMEAR">     0</i>
  <i name="SIGMA">      0.05000000</i>
  <i type="logical" name="LWAVE"> F  </i>
  <i type="logical" name="LCHARG"> F  </i>
  <i type="logical" name="LASPH"> T  </i>
  <i type="int" name="IVDW">    12</i>
  <i name="SPRING">     -5.00000000</i>
 </incar>
 <primitive_cell>
  <structure name="primitive_cell" >
   <crystal>
    <varray name="basis" >
     <v>      17.27103806       0.00000000       0.00000000 </v>
     <v>      -8.63551903      14.95715771       0.00000000 </v>
     <v>       0.00000000       0.00000000      15.00000000 </v>
    </varray>
    <i name="volume">   3874.88459904 </i>
    <varray name="rec_basis" >
     <v>       0.05790040       0.03342881       0.00000000 </v>
     <v>       0.00000000       0.06685762       0.00000000 </v>
     <v>       0.00000000       0.00000000       0.06666667 </v>
    </varray>
   </crystal>
   <varray name="positions" >
    <v>       0.00023878       0.00040524       0.49952079 </v>
    <v>       0.99957988       0.14292915       0.50274434 </v>
    <v>       0.99937662       0.28578053       0.50461120 </v>
    <v>       0.99985310       0.42891113       0.50339017 </v>
    <v>       0.00069569       0.57207681       0.50073222 </v>
    <v>       0.00179562       0.71539301       0.49735093 </v>
    <v>       0.00156761       0.85840782       0.49661217 </v>
    <v>       0.14333587       0.00080991       0.50956828 </v>
    <v>       0.14229002       0.14299794       0.51357563 </v>
    <v>       0.14120466       0.28505746       0.51849979 </v>
    <v>       0.14150430       0.42835309       0.51792323 </v>
    <v>       0.14289938       0.57157771       0.51289323 </v>
    <v>       0.14365498       0.71481811       0.50924953 </v>
    <v>       0.14378907       0.85802845       0.50757658 </v>
    <v>       0.28616712       0.00062251       0.51226811 </v>
    <v>       0.28561252       0.14313749       0.51912422 </v>
    <v>       0.28419194       0.28614779       0.53303922 </v>
    <v>       0.28147117       0.42668658       0.54158446 </v>
    <v>       0.28517365       0.57032074       0.53007802 </v>
    <v>       0.28602293       0.71481191       0.51696470 </v>
    <v>       0.28625236       0.85791844       0.51157763 </v>
    <v>       0.42914184       0.00088968       0.50798148 </v>
    <v>       0.42889594       0.14375903       0.51109375 </v>
    <v>       0.42679713       0.28338286       0.52039939 </v>
    <v>       0.42720260       0.71622126       0.51676464 </v>
    <v>       0.42896765       0.85779942       0.50921388 </v>
    <v>       0.57164607       0.00091404       0.50093976 </v>
    <v>       0.57163881       0.14366898       0.50193648 </v>
    <v>       0.57239727       0.28758389       0.50029011 </v>
    <v>       0.57243252       0.85813246       0.49733477 </v>
    <v>       0.71439261       0.00042037       0.49178936 </v>
    <v>       0.71445574       0.14350222       0.49626963 </v>
    <v>       0.71440527       0.28654489       0.49419910 </v>
    <v>       0.71433553       0.42875596       0.48348005 </v>
    <v>       0.72177975       0.57461365       0.45433181 </v>
    <v>       0.72566099       0.72009476       0.44943655 </v>
    <v>       0.71382525       0.85788879       0.47828728 </v>
    <v>       0.85747962       0.00062795       0.48964567 </v>
    <v>       0.85697276       0.14320412       0.49536004 </v>
    <v>       0.85702965       0.28607676       0.49638951 </v>
    <v>       0.85770373       0.42917230       0.49233433 </v>
    <v>       0.85907356       0.57270250       0.48508849 </v>
    <v>       0.86124456       0.71646912       0.47808351 </v>
    <v>       0.85881256       0.85815744       0.48236578 </v>
    <v>       0.04747102       0.09551458       0.50524330 </v>
    <v>       0.04645656       0.23774548       0.50831326 </v>
    <v>       0.04666652       0.38092357       0.50834538 </v>
    <v>       0.04798500       0.52425154       0.50569009 </v>
    <v>       0.04861968       0.66741505       0.50291290 </v>
    <v>       0.04882531       0.81050670       0.50085701 </v>
    <v>       0.04830637       0.95317361       0.50225253 </v>
    <v>       0.19035662       0.09549279       0.51504451 </v>
    <v>       0.18907868       0.23776540       0.52118290 </v>
    <v>       0.18750060       0.37976210       0.52522207 </v>
    <v>       0.18974946       0.52357860       0.51995686 </v>
    <v>       0.19080130       0.66717008       0.51392136 </v>
    <v>       0.19124458       0.81031359       0.51006406 </v>
    <v>       0.19114982       0.95314475       0.51041121 </v>
    <v>       0.33370674       0.09609452       0.51461400 </v>
    <v>       0.33365494       0.23826730       0.52584558 </v>
    <v>       0.32655453       0.37762600       0.54893331 </v>
    <v>       0.32761827       0.52109691       0.54554993 </v>
    <v>       0.33420576       0.66771053       0.52249933 </v>
    <v>       0.33384849       0.81001024       0.51295503 </v>
    <v>       0.33373932       0.95307279       0.51076091 </v>
    <v>       0.47656333       0.09605669       0.50668846 </v>
    <v>       0.47575070       0.23914347       0.51080115 </v>
    <v>       0.47595100       0.80948618       0.50796055 </v>
    <v>       0.47658788       0.95322565       0.50571207 </v>
    <v>       0.61908866       0.09599283       0.49941598 </v>
    <v>       0.61926239       0.23908388       0.49841486 </v>
    <v>       0.62130397       0.38091130       0.49108433 </v>
    <v>       0.62082226       0.81363013       0.48623892 </v>
    <v>       0.61930139       0.95325117       0.49641246 </v>
    <v>       0.76197058       0.09585255       0.49416065 </v>
    <v>       0.76198686       0.23860940       0.49532462 </v>
    <v>       0.76241293       0.38163815       0.48947201 </v>
    <v>       0.76393312       0.52586323       0.47368524 </v>
    <v>       0.76795628       0.66883715       0.45859548 </v>
    <v>       0.76350914       0.81048086       0.46885262 </v>
    <v>       0.76225935       0.95313596       0.48581511 </v>
    <v>       0.90457245       0.09535129       0.49556932 </v>
    <v>       0.90439742       0.23831984       0.49838576 </v>
    <v>       0.90477566       0.38150747       0.49711128 </v>
    <v>       0.90579474       0.52471521       0.49321162 </v>
    <v>       0.90714457       0.66790487       0.48680187 </v>
    <v>       0.90695743       0.81109055       0.48540845 </v>
    <v>       0.90534295       0.95287905       0.49087113 </v>
    <v>       0.46271986       0.35601989       0.52235631 </v>
    <v>       0.39721130       0.41430727       0.56552894 </v>
    <v>       0.39905533       0.55457556       0.55932320 </v>
    <v>       0.65098255       0.53939768       0.43834198 </v>
    <v>       0.58569106       0.41801954       0.49151439 </v>
    <v>       0.58412295       0.74140327       0.48430429 </v>
    <v>       0.46317903       0.67955630       0.51810453 </v>
    <v>       0.47504639       0.50879125       0.46177464 </v>
    <v>       0.56754519       0.57821293       0.49667356 </v>
    <v>       0.63747735       0.67272199       0.42153998 </v>
    <v>       0.51612537       0.52022388       0.51098055 </v>
   </varray>
  </structure>
  <varray name="primitive_index" >
   <v type="int" >        1 </v>
   <v type="int" >        2 </v>
   <v type="int" >        3 </v>
   <v type="int" >        4 </v>
   <v type="int" >        5 </v>
   <v type="int" >        6 </v>
   <v type="int" >        7 </v>
   <v type="int" >        8 </v>
   <v type="int" >        9 </v>
   <v type="int" >       10 </v>
   <v type="int" >       11 </v>
   <v type="int" >       12 </v>
   <v type="int" >       13 </v>
   <v type="int" >       14 </v>
   <v type="int" >       15 </v>
   <v type="int" >       16 </v>
   <v type="int" >       17 </v>
   <v type="int" >       18 </v>
   <v type="int" >       19 </v>
   <v type="int" >       20 </v>
   <v type="int" >       21 </v>
   <v type="int" >       22 </v>
   <v type="int" >       23 </v>
   <v type="int" >       24 </v>
   <v type="int" >       25 </v>
   <v type="int" >       26 </v>
   <v type="int" >       27 </v>
   <v type="int" >       28 </v>
   <v type="int" >       29 </v>
   <v type="int" >       30 </v>
   <v type="int" >       31 </v>
   <v type="int" >       32 </v>
   <v type="int" >       33 </v>
   <v type="int" >       34 </v>
   <v type="int" >       35 </v>
   <v type="int" >       36 </v>
   <v type="int" >       37 </v>
   <v type="int" >       38 </v>
   <v type="int" >       39 </v>
   <v type="int" >       40 </v>
   <v type="int" >       41 </v>
   <v type="int" >       42 </v>
   <v type="int" >       43 </v>
   <v type="int" >       44 </v>
   <v type="int" >       45 </v>
   <v type="int" >       46 </v>
   <v type="int" >       47 </v>
   <v type="int" >       48 </v>
   <v type="int" >       49 </v>
   <v type="int" >       50 </v>
   <v type="int" >       51 </v>
   <v type="int" >       52 </v>
   <v type="int" >       53 </v>
   <v type="int" >       54 </v>
   <v type="int" >       55 </v>
   <v type="int" >       56 </v>
   <v type="int" >       57 </v>
   <v type="int" >       58 </v>
   <v type="int" >       59 </v>
   <v type="int" >       60 </v>
   <v type="int" >       61 </v>
   <v type="int" >       62 </v>
   <v type="int" >       63 </v>
   <v type="int" >       64 </v>
   <v type="int" >       65 </v>
   <v type="int" >       66 </v>
   <v type="int" >       67 </v>
   <v type="int" >       68 </v>
   <v type="int" >       69 </v>
   <v type="int" >       70 </v>
   <v type="int" >       71 </v>
   <v type="int" >       72 </v>
   <v type="int" >       73 </v>
   <v type="int" >       74 </v>
   <v type="int" >       75 </v>
   <v type="int" >       76 </v>
   <v type="int" >       77 </v>
   <v type="int" >       78 </v>
   <v type="int" >       79 </v>
   <v type="int" >       80 </v>
   <v type="int" >       81 </v>
   <v type="int" >       82 </v>
   <v type="int" >       83 </v>
   <v type="int" >       84 </v>
   <v type="int" >       85 </v>
   <v type="int" >       86 </v>
   <v type="int" >       87 </v>
   <v type="int" >       88 </v>
   <v type="int" >       89 </v>
   <v type="int" >       90 </v>
   <v type="int" >       91 </v>
   <v type="int" >       92 </v>
   <v type="int" >       93 </v>
   <v type="int" >       94 </v>
   <v type="int" >       95 </v>
   <v type="int" >       96 </v>
   <v type="int" >       97 </v>
   <v type="int" >       98 </v>
   <v type="int" >       99 </v>
  </varray>
 </primitive_cell>
 <kpoints>
  <generation param="Gamma">
   <v type="int" name="divisions">       2        2        1 </v>
   <v name="usershift">      0.00000000       0.00000000       0.00000000 </v>
   <v name="genvec1">      0.50000000       0.00000000       0.00000000 </v>
   <v name="genvec2">      0.00000000       0.50000000       0.00000000 </v>
   <v name="genvec3">      0.00000000       0.00000000       1.00000000 </v>
   <v name="shift">      0.00000000       0.00000000       0.00000000 </v>
  </generation>
  <varray name="kpointlist" >
   <v>       0.00000000       0.00000000       0.00000000 </v>
   <v>       0.50000000       0.00000000       0.00000000 </v>
   <v>       0.00000000       0.50000000       0.00000000 </v>
   <v>       0.50000000       0.50000000       0.00000000 </v>
  </varray>
  <varray name="weights" >
   <v>       0.25000000 </v>
   <v>       0.25000000 </v>
   <v>       0.25000000 </v>
   <v>       0.25000000 </v>
  </varray>
 </kpoints>
 <parameters>
  <separator name="general" >
   <i type="string" name="SYSTEM">unknown system</i>
   <i type="logical" name="LCOMPAT"> F  </i>
  </separator>
  <separator name="electronic" >
   <i type="string" name="PREC">normal</i>
   <i name="ENMAX">    520.00000000</i>
   <i name="ENAUG">    644.87300000</i>
   <i name="EDIFF">      0.00000100</i>
   <i type="int" name="IALGO">    38</i>
   <i type="int" name="IWAVPR">    11</i>
   <i type="int" name="NBANDS">   270</i>
   <i type="int" name="NBANDSLOW">    -1</i>
   <i type="int" name="NBANDSHIGH">    -1</i>
   <i name="NELECT">    374.00000000</i>
   <i type="int" name="TURBO">     0</i>
   <i type="int" name="IRESTART">     0</i>
   <i type="int" name="NREBOOT">     0</i>
   <i type="int" name="NMIN">     0</i>
   <i name="EREF">      0.00000000</i>
   <separator name="electronic smearing" >
    <i type="int" name="ISMEAR">     0</i>
    <i name="SIGMA">      0.05000000</i>
    <i name="KSPACING">      0.50000000</i>
    <i type="logical" name="KGAMMA"> T  </i>
    <i type="logical" name="KBLOWUP"> T  </i>
   </separator>
   <separator name="electronic projectors" >
    <i type="logical" name="LREAL"> T  </i>
    <v name="ROPT">     -0.00050000     -0.00050000     -0.00050000     -0.00050000</v>
    <i type="int" name="LMAXPAW">  -100</i>
    <i type="int" name="LMAXMIX">     2</i>
    <i type="logical" name="NLSPLINE"> F  </i>
   </separator>
   <separator name="electronic startup" >
    <i type="int" name="ISTART">     0</i>
    <i type="int" name="ICHARG">     2</i>
    <i type="int" name="INIWAV">     1</i>
   </separator>
   <separator name="electronic spin" >
    <i type="int" name="ISPIN">     2</i>
    <i type="logical" name="LNONCOLLINEAR"> F  </i>
    <v name="MAGMOM">      0.60000000      0.60000000      0.60000000      0.60000000      0.60000000      0.60000000      0.60000000      0.60000000      0.60000000      0.60000000      0.60000000      0.60000000      0.60000000      0.60000000      0.60000000      0.60000000      0.60000000      0.60000000      0.60000000      0.60000000
      0.60000000      0.60000000      0.60000000      0.60000000      0.60000000      0.60000000      0.60000000      0.60000000      0.60000000      0.60000000      0.60000000      0.60000000      0.60000000      0.60000000      0.60000000      0.60000000      0.60000000      0.60000000      0.60000000      0.60000000
      0.60000000      0.60000000      0.60000000      0.60000000      0.60000000      0.60000000      0.60000000      0.60000000      0.60000000      0.60000000      0.60000000      0.60000000      0.60000000      0.60000000      0.60000000      0.60000000      0.60000000      0.60000000      0.60000000      0.60000000
      0.60000000      0.60000000      0.60000000      0.60000000      0.60000000      0.60000000      0.60000000      0.60000000      0.60000000      0.60000000      0.60000000      0.60000000      0.60000000      0.60000000      0.60000000      0.60000000      0.60000000      0.60000000      0.60000000      0.60000000
      0.60000000      0.60000000      0.60000000      0.60000000      0.60000000      0.60000000      0.60000000      0.60000000      0.60000000      0.60000000      0.60000000      0.60000000      0.60000000      0.60000000      0.60000000      0.60000000      0.60000000      0.60000000      0.60000000</v>
    <i name="NUPDOWN">     -1.00000000</i>
    <i type="logical" name="LSORBIT"> F  </i>
    <v name="SAXIS">      0.00000000      0.00000000      1.00000000</v>
    <i type="logical" name="LSPIRAL"> F  </i>
    <v name="QSPIRAL">      0.00000000      0.00000000      0.00000000</v>
    <i type="logical" name="LZEROZ"> F  </i>
   </separator>
   <separator name="electronic exchange-correlation" >
    <i type="logical" name="LASPH"> T  </i>
    <i type="logical" name="LMETAGGA"> F  </i>
   </separator>
   <separator name="electronic convergence" >
    <i type="int" name="NELM">   200</i>
    <i type="int" name="NELMDL">    -5</i>
    <i type="int" name="NELMIN">     2</i>
    <i name="ENINI">    520.00000000</i>
    <separator name="electronic convergence detail" >
     <i type="logical" name="LDIAG"> T  </i>
     <i type="logical" name="LSUBROT"> F  </i>
     <i name="WEIMIN">      0.00100000</i>
     <i name="EBREAK">      0.00000000</i>
     <i name="DEPER">      0.30000000</i>
     <i type="int" name="NRMM">     4</i>
     <i name="TIME">      0.40000000</i>
    </separator>
   </separator>
   <separator name="electronic mixer" >
    <i name="AMIX">      0.20000000</i>
    <i name="BMIX">      0.00010000</i>
    <i name="AMIN">      0.10000000</i>
    <i name="AMIX_MAG">      0.80000000</i>
    <i name="BMIX_MAG">      0.00010000</i>
    <separator name="electronic mixer details" >
     <i type="int" name="IMIX">     4</i>
     <i type="logical" name="MIXFIRST"> F  </i>
     <i type="int" name="MAXMIX">   -45</i>
     <i name="WC">    100.00000000</i>
     <i type="int" name="INIMIX">     1</i>
     <i type="int" name="MIXPRE">     1</i>
     <i type="int" name="MREMOVE">     5</i>
    </separator>
   </separator>
   <separator name="electronic dipolcorrection" >
    <i type="logical" name="LDIPOL"> F  </i>
    <i type="logical" name="LMONO"> F  </i>
    <i type="int" name="IDIPOL">     0</i>
    <i name="EPSILON">      1.00000000</i>
    <v name="DIPOL">   -100.00000000   -100.00000000   -100.00000000</v>
    <i name="EFIELD">      0.00000000</i>
   </separator>
  </separator>
  <separator name="grids" >
   <i type="int" name="NGX">    96</i>
   <i type="int" name="NGY">    96</i>
   <i type="int" name="NGZ">    84</i>
   <i type="int" name="NGXF">   192</i>
   <i type="int" name="NGYF">   192</i>
   <i type="int" name="NGZF">   168</i>
   <i type="logical" name="ADDGRID"> T  </i>
  </separator>
  <separator name="ionic" >
   <i type="int" name="NSW">  1000</i>
   <i type="int" name="IBRION">     3</i>
   <i type="int" name="MDALGO">     0</i>
   <i type="int" name="ISIF">     2</i>
   <i name="PSTRESS">      0.00000000</i>
   <i name="EDIFFG">     -0.03000000</i>
   <i type="int" name="NFREE">     0</i>
   <i name="POTIM">      0.00000000</i>
   <i name="SMASS">     -3.00000000</i>
   <i name="SCALEE">      1.00000000</i>
  </separator>
  <separator name="ionic md" >
   <i name="TEBEG">      0.00010000</i>
   <i name="TEEND">      0.00010000</i>
   <i type="int" name="NBLOCK">     1</i>
   <i type="int" name="KBLOCK">  1000</i>
   <i type="int" name="NPACO">   256</i>
   <i name="APACO">     10.00000000</i>
  </separator>
  <separator name="symmetry" >
   <i type="int" name="ISYM">     0</i>
   <i name="SYMPREC">      0.00001000</i>
  </separator>
  <separator name="dos" >
   <i type="int" name="LORBIT">     0</i>
   <v name="RWIGS">     -1.00000000     -1.00000000     -1.00000000     -1.00000000</v>
   <i type="int" name="NEDOS">   301</i>
   <i name="EMIN">     10.00000000</i>
   <i name="EMAX">    -10.00000000</i>
   <i name="EFERMI">      0.00000000</i>
  </separator>
  <separator name="writing" >
   <i type="int" name="NWRITE">     2</i>
   <i type="logical" name="LWAVE"> F  </i>
   <i type="logical" name="LDOWNSAMPLE"> F  </i>
   <i type="logical" name="LCHARG"> F  </i>
   <i type="logical" name="LPARD"> F  </i>
   <i type="logical" name="LVTOT"> F  </i>
   <i type="logical" name="LVHAR"> F  </i>
   <i type="logical" name="LELF"> F  </i>
   <i type="logical" name="LOPTICS"> F  </i>
   <v name="STM">      0.00000000      0.00000000      0.00000000      0.00000000      0.00000000      0.00000000      0.00000000</v>
  </separator>
  <separator name="performance" >
   <i type="int" name="NPAR">     5</i>
   <i type="int" name="NSIM">     4</i>
   <i type="int" name="NBLK">    -1</i>
   <i type="logical" name="LPLANE"> T  </i>
   <i type="logical" name="LSCALAPACK"> T  </i>
   <i type="logical" name="LSCAAWARE"> F  </i>
   <i type="logical" name="LSCALU"> F  </i>
   <i type="logical" name="LASYNC"> F  </i>
   <i type="logical" name="LORBITALREAL"> F  </i>
  </separator>
  <separator name="miscellaneous" >
   <i type="int" name="IDIOT">     3</i>
   <i type="int" name="PHON_NSTRUCT">    -1</i>
   <i type="logical" name="LMUSIC"> F  </i>
   <v name="POMASS">     12.01100000      1.00000000     18.99800000     16.00000000</v>
   <v name="DARWINR">      0.00000000      0.00000000      0.00000000      0.00000000</v>
   <v name="DARWINV">      1.00000000      1.00000000      1.00000000      1.00000000</v>
   <i type="logical" name="LCORR"> T  </i>
  </separator>
  <i type="logical" name="GGA_COMPAT"> T  </i>
  <i type="logical" name="LBERRY"> F  </i>
  <i type="int" name="ICORELEVEL">     0</i>
  <i type="logical" name="LDAU"> F  </i>
  <i type="int" name="I_CONSTRAINED_M">     0</i>
  <separator name="electronic exchange-correlation" >
   <i type="string" name="GGA">--</i>
   <i type="int" name="VOSKOWN">     0</i>
   <i type="logical" name="LHFCALC"> F  </i>
   <i type="string" name="PRECFOCK"></i>
   <i type="logical" name="LSYMGRAD"> F  </i>
   <i type="logical" name="LHFONE"> F  </i>
   <i type="logical" name="LRHFCALC"> F  </i>
   <i type="logical" name="LTHOMAS"> F  </i>
   <i type="logical" name="LMODELHF"> F  </i>
   <i type="logical" name="LFOCKACE"> F  </i>
   <i name="ENCUT4O">     -1.00000000</i>
   <i type="int" name="EXXOEP">     0</i>
   <i type="int" name="FOURORBIT">     0</i>
   <i name="AEXX">      0.00000000</i>
   <i name="HFALPHA">      0.00000000</i>
   <i name="MCALPHA">      0.00000000</i>
   <i name="ALDAX">      1.00000000</i>
   <i name="AGGAX">      1.00000000</i>
   <i name="ALDAC">      1.00000000</i>
   <i name="AGGAC">      1.00000000</i>
   <i type="int" name="NKREDX">     1</i>
   <i type="int" name="NKREDY">     1</i>
   <i type="int" name="NKREDZ">     1</i>
   <i type="logical" name="SHIFTRED"> F  </i>
   <i type="logical" name="ODDONLY"> F  </i>
   <i type="logical" name="EVENONLY"> F  </i>
   <i type="int" name="LMAXFOCK">     0</i>
   <i type="int" name="NMAXFOCKAE">     0</i>
   <i type="logical" name="LFOCKAEDFT"> F  </i>
   <i name="HFSCREEN">      0.00000000</i>
   <i name="HFSCREENC">      0.00000000</i>
   <i type="int" name="NBANDSGWLOW">     0</i>
  </separator>
  <separator name="vdW DFT" >
   <i type="logical" name="LUSE_VDW"> F  </i>
   <i type="int" name="IVDW_NL">     1</i>
   <i type="logical" name="LSPIN_VDW"> F  </i>
   <i name="Zab_VDW">     -0.84910000</i>
   <i name="PARAM1">      0.12340000</i>
   <i name="PARAM2">      1.00000000</i>
   <i name="PARAM3">      0.00000000</i>
  </separator>
  <separator name="model GW" >
   <i type="int" name="MODEL_GW">     0</i>
   <i name="MODEL_EPS0">     23.48414909</i>
   <i name="MODEL_ALPHA">      1.00000000</i>
  </separator>
  <separator name="linear response parameters" >
   <i type="logical" name="LEPSILON"> F  </i>
   <i type="logical" name="LRPA"> F  </i>
   <i type="logical" name="LNABLA"> F  </i>
   <i type="logical" name="LVEL"> F  </i>
   <i name="CSHIFT">      0.10000000</i>
   <i name="OMEGAMAX">     -1.00000000</i>
   <i name="DEG_THRESHOLD">      0.00200000</i>
   <i name="RTIME">     -0.10000000</i>
   <i name="WPLASMAI">      0.00000000</i>
   <v name="DFIELD">      0.00000000      0.00000000      0.00000000</v>
   <v name="WPLASMA">      0.00000000      0.00000000      0.00000000      0.00000000      0.00000000      0.00000000      0.00000000      0.00000000      0.00000000</v>
  </separator>
  <separator name="orbital magnetization" >
   <i type="logical" name="NUCIND"> F  </i>
   <v name="MAGPOS">      0.00000000      0.00000000      0.00000000</v>
   <i type="logical" name="LNICSALL"> T  </i>
   <i type="logical" name="ORBITALMAG"> F  </i>
   <i type="logical" name="LMAGBLOCH"> F  </i>
   <i type="logical" name="LCHIMAG"> F  </i>
   <i type="logical" name="LGAUGE"> T  </i>
   <i type="int" name="MAGATOM">     0</i>
   <v name="MAGDIPOL">      0.00000000      0.00000000      0.00000000</v>
   <v name="AVECCONST">      0.00000000      0.00000000      0.00000000</v>
  </separator>
  <separator name="response functions" >
   <i type="logical" name="LALL_IN_ONE"> F  </i>
   <i type="int" name="IALL_IN_ONE">    -1</i>
   <i type="int" name="NBANDS_WAVE">    -1</i>
   <i type="logical" name="LFINITE_TEMPERATURE"> F  </i>
   <i type="logical" name="LADDER"> F  </i>
   <i type="logical" name="LRPAFORCE"> F  </i>
   <i type="logical" name="LFXC"> F  </i>
   <i type="logical" name="LHARTREE"> T  </i>
   <i type="int" name="IBSE">     0</i>
   <v type="int" name="KPOINT">    -1     0     0     0</v>
   <i type="logical" name="LTCTC"> F  </i>
   <i type="logical" name="LTCTE"> F  </i>
   <i type="logical" name="LTETE"> F  </i>
   <i type="logical" name="LTRIPLET"> F  </i>
   <i type="logical" name="LFXCEPS"> F  </i>
   <i type="logical" name="LFXHEG"> F  </i>
   <i type="int" name="NATURALO">     2</i>
   <i type="logical" name="LHOLEGF"> F  </i>
   <i type="logical" name="L2ORDER"> F  </i>
   <i type="logical" name="LDMP1"> F  </i>
   <i type="logical" name="LMP2LT"> F  </i>
   <i type="logical" name="LSMP2LT"> F  </i>
   <i type="logical" name="LGWLF"> F  </i>
   <i name="ENCUTGW">     -1.60000002</i>
   <i name="ENCUTGWSOFT">     -1.60000002</i>
   <i name="ENCUTLF">     -1.00000000</i>
   <i type="logical" name="LESF_SPLINES"> F  </i>
   <i type="int" name="LMAXMP2">    -1</i>
   <i name="SCISSOR">      0.00000000</i>
   <i type="int" name="NOMEGA">     0</i>
   <i type="int" name="NOMEGAR">     0</i>
   <i type="int" name="NBANDSGW">    -1</i>
   <i type="int" name="NBANDSO">    -1</i>
   <i type="int" name="NBANDSV">    -1</i>
   <i type="int" name="NELMGW">     1</i>
   <i type="int" name="NELMHF">     1</i>
   <i type="int" name="DIM">     3</i>
   <i type="int" name="IESPILON">     4</i>
   <i type="int" name="ANTIRES">     0</i>
   <i name="OMEGAMAX">    -30.00000000</i>
   <i name="OMEGAMIN">    -30.00000000</i>
   <i name="OMEGATL">   -200.00000000</i>
   <i type="int" name="OMEGAGRID">     0</i>
   <i name="CSHIFT">     -0.10000000</i>
   <i type="logical" name="LSELFENERGY"> F  </i>
   <i type="logical" name="LSPECTRAL"> F  </i>
   <i type="logical" name="LSPECTRALGW"> F  </i>
   <i type="logical" name="LSINGLES"> F  </i>
   <i type="logical" name="LFERMIGW"> F  </i>
   <i type="logical" name="ODDONLYGW"> F  </i>
   <i type="logical" name="EVENONLYGW"> F  </i>
   <i type="int" name="NKREDLFX">     1</i>
   <i type="int" name="NKREDLFY">     1</i>
   <i type="int" name="NKREDLFZ">     1</i>
   <i type="int" name="MAXMEM">  2800</i>
   <i type="int" name="TELESCOPE">     0</i>
   <i type="int" name="NTAUPAR">    -1</i>
   <i type="int" name="NOMEGAPAR">    -1</i>
   <i name="DAMP_NEWTON">      0.80000001</i>
   <i name="LAMBDA">      1.00000000</i>
  </separator>
  <separator name="External order field" >
   <i name="OFIELD_KAPPA">      0.00000000</i>
   <v name="OFIELD_K">      0.00000000      0.00000000      0.00000000</v>
   <i name="OFIELD_Q6_NEAR">      0.00000000</i>
   <i name="OFIELD_Q6_FAR">      0.00000000</i>
   <i name="OFIELD_A">      0.00000000</i>
  </separator>
  <separator name="optional k-points parameters" >
   <i type="int" name="KPOINTS_OPT_MODE">     1</i>
   <i type="logical" name="LKPOINTS_OPT"> F  </i>
  </separator>
 </parameters>
 <atominfo>
  <atoms>      99 </atoms>
  <types>       4 </types>
  <array name="atoms" >
   <dimension dim="1">ion</dimension>
   <field type="string">element</field>
   <field type="int">atomtype</field>
   <set>
    <rc><c>C </c><c>   1</c></rc>
    <rc><c>C </c><c>   1</c></rc>
    <rc><c>C </c><c>   1</c></rc>
    <rc><c>C </c><c>   1</c></rc>
    <rc><c>C </c><c>   1</c></rc>
    <rc><c>C </c><c>   1</c></rc>
    <rc><c>C </c><c>   1</c></rc>
    <rc><c>C </c><c>   1</c></rc>
    <rc><c>C </c><c>   1</c></rc>
    <rc><c>C </c><c>   1</c></rc>
    <rc><c>C </c><c>   1</c></rc>
    <rc><c>C </c><c>   1</c></rc>
    <rc><c>C </c><c>   1</c></rc>
    <rc><c>C </c><c>   1</c></rc>
    <rc><c>C </c><c>   1</c></rc>
    <rc><c>C </c><c>   1</c></rc>
    <rc><c>C </c><c>   1</c></rc>
    <rc><c>C </c><c>   1</c></rc>
    <rc><c>C </c><c>   1</c></rc>
    <rc><c>C </c><c>   1</c></rc>
    <rc><c>C </c><c>   1</c></rc>
    <rc><c>C </c><c>   1</c></rc>
    <rc><c>C </c><c>   1</c></rc>
    <rc><c>C </c><c>   1</c></rc>
    <rc><c>C </c><c>   1</c></rc>
    <rc><c>C </c><c>   1</c></rc>
    <rc><c>C </c><c>   1</c></rc>
    <rc><c>C </c><c>   1</c></rc>
    <rc><c>C </c><c>   1</c></rc>
    <rc><c>C </c><c>   1</c></rc>
    <rc><c>C </c><c>   1</c></rc>
    <rc><c>C </c><c>   1</c></rc>
    <rc><c>C </c><c>   1</c></rc>
    <rc><c>C </c><c>   1</c></rc>
    <rc><c>C </c><c>   1</c></rc>
    <rc><c>C </c><c>   1</c></rc>
    <rc><c>C </c><c>   1</c></rc>
    <rc><c>C </c><c>   1</c></rc>
    <rc><c>C </c><c>   1</c></rc>
    <rc><c>C </c><c>   1</c></rc>
    <rc><c>C </c><c>   1</c></rc>
    <rc><c>C </c><c>   1</c></rc>
    <rc><c>C </c><c>   1</c></rc>
    <rc><c>C </c><c>   1</c></rc>
    <rc><c>C </c><c>   1</c></rc>
    <rc><c>C </c><c>   1</c></rc>
    <rc><c>C </c><c>   1</c></rc>
    <rc><c>C </c><c>   1</c></rc>
    <rc><c>C </c><c>   1</c></rc>
    <rc><c>C </c><c>   1</c></rc>
    <rc><c>C </c><c>   1</c></rc>
    <rc><c>C </c><c>   1</c></rc>
    <rc><c>C </c><c>   1</c></rc>
    <rc><c>C </c><c>   1</c></rc>
    <rc><c>C </c><c>   1</c></rc>
    <rc><c>C </c><c>   1</c></rc>
    <rc><c>C </c><c>   1</c></rc>
    <rc><c>C </c><c>   1</c></rc>
    <rc><c>C </c><c>   1</c></rc>
    <rc><c>C </c><c>   1</c></rc>
    <rc><c>C </c><c>   1</c></rc>
    <rc><c>C </c><c>   1</c></rc>
    <rc><c>C </c><c>   1</c></rc>
    <rc><c>C </c><c>   1</c></rc>
    <rc><c>C </c><c>   1</c></rc>
    <rc><c>C </c><c>   1</c></rc>
    <rc><c>C </c><c>   1</c></rc>
    <rc><c>C </c><c>   1</c></rc>
    <rc><c>C </c><c>   1</c></rc>
    <rc><c>C </c><c>   1</c></rc>
    <rc><c>C </c><c>   1</c></rc>
    <rc><c>C </c><c>   1</c></rc>
    <rc><c>C </c><c>   1</c></rc>
    <rc><c>C </c><c>   1</c></rc>
    <rc><c>C </c><c>   1</c></rc>
    <rc><c>C </c><c>   1</c></rc>
    <rc><c>C </c><c>   1</c></rc>
    <rc><c>C </c><c>   1</c></rc>
    <rc><c>C </c><c>   1</c></rc>
    <rc><c>C </c><c>   1</c></rc>
    <rc><c>C </c><c>   1</c></rc>
    <rc><c>C </c><c>   1</c></rc>
    <rc><c>C </c><c>   1</c></rc>
    <rc><c>C </c><c>   1</c></rc>
    <rc><c>C </c><c>   1</c></rc>
    <rc><c>C </c><c>   1</c></rc>
    <rc><c>C </c><c>   1</c></rc>
    <rc><c>C </c><c>   1</c></rc>
    <rc><c>H </c><c>   2</c></rc>
    <rc><c>H </c><c>   2</c></rc>
    <rc><c>H </c><c>   2</c></rc>
    <rc><c>H </c><c>   2</c></rc>
    <rc><c>H </c><c>   2</c></rc>
    <rc><c>H </c><c>   2</c></rc>
    <rc><c>H </c><c>   2</c></rc>
    <rc><c>H </c><c>   2</c></rc>
    <rc><c>H </c><c>   2</c></rc>
    <rc><c>F </c><c>   3</c></rc>
    <rc><c>O </c><c>   4</c></rc>
   </set>
  </array>
  <array name="atomtypes" >
   <dimension dim="1">type</dimension>
   <field type="int">atomspertype</field>
   <field type="string">element</field>
   <field>mass</field>
   <field>valence</field>
   <field type="string">pseudopotential</field>
   <set>
    <rc><c>  88</c><c>C </c><c>     12.01100000</c><c>      4.00000000</c><c>  PAW_PBE C 08Apr2002                   </c></rc>
    <rc><c>   9</c><c>H </c><c>      1.00000000</c><c>      1.00000000</c><c>  PAW_PBE H 15Jun2001                   </c></rc>
    <rc><c>   1</c><c>F </c><c>     18.99800000</c><c>      7.00000000</c><c>  PAW_PBE F 08Apr2002                   </c></rc>
    <rc><c>   1</c><c>O </c><c>     16.00000000</c><c>      6.00000000</c><c>  PAW_PBE O 08Apr2002                   </c></rc>
   </set>
  </array>
 </atominfo>
 <structure name="initialpos" >
  <crystal>
   <varray name="basis" >
    <v>      17.27103806       0.00000000       0.00000000 </v>
    <v>      -8.63551903      14.95715771       0.00000000 </v>
    <v>       0.00000000       0.00000000      15.00000000 </v>
   </varray>
   <i name="volume">   3874.88459904 </i>
   <varray name="rec_basis" >
    <v>       0.05790040       0.03342881       0.00000000 </v>
    <v>       0.00000000       0.06685762       0.00000000 </v>
    <v>       0.00000000       0.00000000       0.06666667 </v>
   </varray>
  </crystal>
  <varray name="positions" >
   <v>       0.00023878       0.00040524       0.49952079 </v>
   <v>       0.99957988       0.14292915       0.50274434 </v>
   <v>       0.99937662       0.28578053       0.50461120 </v>
   <v>       0.99985310       0.42891113       0.50339017 </v>
   <v>       0.00069569       0.57207681       0.50073222 </v>
   <v>       0.00179562       0.71539301       0.49735093 </v>
   <v>       0.00156761       0.85840782       0.49661217 </v>
   <v>       0.14333587       0.00080991       0.50956828 </v>
   <v>       0.14229002       0.14299794       0.51357563 </v>
   <v>       0.14120466       0.28505746       0.51849979 </v>
   <v>       0.14150430       0.42835309       0.51792323 </v>
   <v>       0.14289938       0.57157771       0.51289323 </v>
   <v>       0.14365498       0.71481811       0.50924953 </v>
   <v>       0.14378907       0.85802845       0.50757658 </v>
   <v>       0.28616712       0.00062251       0.51226811 </v>
   <v>       0.28561252       0.14313749       0.51912422 </v>
   <v>       0.28419194       0.28614779       0.53303922 </v>
   <v>       0.28147117       0.42668658       0.54158446 </v>
   <v>       0.28517365       0.57032074       0.53007802 </v>
   <v>       0.28602293       0.71481191       0.51696470 </v>
   <v>       0.28625236       0.85791844       0.51157763 </v>
   <v>       0.42914184       0.00088968       0.50798148 </v>
   <v>       0.42889594       0.14375903       0.51109375 </v>
   <v>       0.42679713       0.28338286       0.52039939 </v>
   <v>       0.42720260       0.71622126       0.51676464 </v>
   <v>       0.42896765       0.85779942       0.50921388 </v>
   <v>       0.57164607       0.00091404       0.50093976 </v>
   <v>       0.57163881       0.14366898       0.50193648 </v>
   <v>       0.57239727       0.28758389       0.50029011 </v>
   <v>       0.57243252       0.85813246       0.49733477 </v>
   <v>       0.71439261       0.00042037       0.49178936 </v>
   <v>       0.71445574       0.14350222       0.49626963 </v>
   <v>       0.71440527       0.28654489       0.49419910 </v>
   <v>       0.71433553       0.42875596       0.48348005 </v>
   <v>       0.72177975       0.57461365       0.45433181 </v>
   <v>       0.72566099       0.72009476       0.44943655 </v>
   <v>       0.71382525       0.85788879       0.47828728 </v>
   <v>       0.85747962       0.00062795       0.48964567 </v>
   <v>       0.85697276       0.14320412       0.49536004 </v>
   <v>       0.85702965       0.28607676       0.49638951 </v>
   <v>       0.85770373       0.42917230       0.49233433 </v>
   <v>       0.85907356       0.57270250       0.48508849 </v>
   <v>       0.86124456       0.71646912       0.47808351 </v>
   <v>       0.85881256       0.85815744       0.48236578 </v>
   <v>       0.04747102       0.09551458       0.50524330 </v>
   <v>       0.04645656       0.23774548       0.50831326 </v>
   <v>       0.04666652       0.38092357       0.50834538 </v>
   <v>       0.04798500       0.52425154       0.50569009 </v>
   <v>       0.04861968       0.66741505       0.50291290 </v>
   <v>       0.04882531       0.81050670       0.50085701 </v>
   <v>       0.04830637       0.95317361       0.50225253 </v>
   <v>       0.19035662       0.09549279       0.51504451 </v>
   <v>       0.18907868       0.23776540       0.52118290 </v>
   <v>       0.18750060       0.37976210       0.52522207 </v>
   <v>       0.18974946       0.52357860       0.51995686 </v>
   <v>       0.19080130       0.66717008       0.51392136 </v>
   <v>       0.19124458       0.81031359       0.51006406 </v>
   <v>       0.19114982       0.95314475       0.51041121 </v>
   <v>       0.33370674       0.09609452       0.51461400 </v>
   <v>       0.33365494       0.23826730       0.52584558 </v>
   <v>       0.32655453       0.37762600       0.54893331 </v>
   <v>       0.32761827       0.52109691       0.54554993 </v>
   <v>       0.33420576       0.66771053       0.52249933 </v>
   <v>       0.33384849       0.81001024       0.51295503 </v>
   <v>       0.33373932       0.95307279       0.51076091 </v>
   <v>       0.47656333       0.09605669       0.50668846 </v>
   <v>       0.47575070       0.23914347       0.51080115 </v>
   <v>       0.47595100       0.80948618       0.50796055 </v>
   <v>       0.47658788       0.95322565       0.50571207 </v>
   <v>       0.61908866       0.09599283       0.49941598 </v>
   <v>       0.61926239       0.23908388       0.49841486 </v>
   <v>       0.62130397       0.38091130       0.49108433 </v>
   <v>       0.62082226       0.81363013       0.48623892 </v>
   <v>       0.61930139       0.95325117       0.49641246 </v>
   <v>       0.76197058       0.09585255       0.49416065 </v>
   <v>       0.76198686       0.23860940       0.49532462 </v>
   <v>       0.76241293       0.38163815       0.48947201 </v>
   <v>       0.76393312       0.52586323       0.47368524 </v>
   <v>       0.76795628       0.66883715       0.45859548 </v>
   <v>       0.76350914       0.81048086       0.46885262 </v>
   <v>       0.76225935       0.95313596       0.48581511 </v>
   <v>       0.90457245       0.09535129       0.49556932 </v>
   <v>       0.90439742       0.23831984       0.49838576 </v>
   <v>       0.90477566       0.38150747       0.49711128 </v>
   <v>       0.90579474       0.52471521       0.49321162 </v>
   <v>       0.90714457       0.66790487       0.48680187 </v>
   <v>       0.90695743       0.81109055       0.48540845 </v>
   <v>       0.90534295       0.95287905       0.49087113 </v>
   <v>       0.46271986       0.35601989       0.52235631 </v>
   <v>       0.39721130       0.41430727       0.56552894 </v>
   <v>       0.39905533       0.55457556       0.55932320 </v>
   <v>       0.65098255       0.53939768       0.43834198 </v>
   <v>       0.58569106       0.41801954       0.49151439 </v>
   <v>       0.58412295       0.74140327       0.48430429 </v>
   <v>       0.46317903       0.67955630       0.51810453 </v>
   <v>       0.47504639       0.50879125       0.46177464 </v>
   <v>       0.56754519       0.57821293       0.49667356 </v>
   <v>       0.63747735       0.67272199       0.42153998 </v>
   <v>       0.51612537       0.52022388       0.51098055 </v>
  </varray>
  <varray name="selective"  type="logical" >
   <v type="logical" >  T  T  T </v>
   <v type="logical" >  T  T  T </v>
   <v type="logical" >  T  T  T </v>
   <v type="logical" >  T  T  T </v>
   <v type="logical" >  T  T  T </v>
   <v type="logical" >  T  T  T </v>
   <v type="logical" >  T  T  T </v>
   <v type="logical" >  T  T  T </v>
   <v type="logical" >  T  T  T </v>
   <v type="logical" >  T  T  T </v>
   <v type="logical" >  T  T  T </v>
   <v type="logical" >  T  T  T </v>
   <v type="logical" >  T  T  T </v>
   <v type="logical" >  T  T  T </v>
   <v type="logical" >  T  T  T </v>
   <v type="logical" >  T  T  T </v>
   <v type="logical" >  T  T  T </v>
   <v type="logical" >  T  T  T </v>
   <v type="logical" >  T  T  T </v>
   <v type="logical" >  T  T  T </v>
   <v type="logical" >  T  T  T </v>
   <v type="logical" >  T  T  T </v>
   <v type="logical" >  T  T  T </v>
   <v type="logical" >  T  T  T </v>
   <v type="logical" >  T  T  T </v>
   <v type="logical" >  T  T  T </v>
   <v type="logical" >  T  T  T </v>
   <v type="logical" >  T  T  T </v>
   <v type="logical" >  T  T  T </v>
   <v type="logical" >  T  T  T </v>
   <v type="logical" >  T  T  T </v>
   <v type="logical" >  T  T  T </v>
   <v type="logical" >  T  T  T </v>
   <v type="logical" >  T  T  T </v>
   <v type="logical" >  T  T  T </v>
   <v type="logical" >  T  T  T </v>
   <v type="logical" >  T  T  T </v>
   <v type="logical" >  T  T  T </v>
   <v type="logical" >  T  T  T </v>
   <v type="logical" >  T  T  T </v>
   <v type="logical" >  T  T  T </v>
   <v type="logical" >  T  T  T </v>
   <v type="logical" >  T  T  T </v>
   <v type="logical" >  T  T  T </v>
   <v type="logical" >  T  T  T </v>
   <v type="logical" >  T  T  T </v>
   <v type="logical" >  T  T  T </v>
   <v type="logical" >  T  T  T </v>
   <v type="logical" >  T  T  T </v>
   <v type="logical" >  T  T  T </v>
   <v type="logical" >  T  T  T </v>
   <v type="logical" >  T  T  T </v>
   <v type="logical" >  T  T  T </v>
   <v type="logical" >  T  T  T </v>
   <v type="logical" >  T  T  T </v>
   <v type="logical" >  T  T  T </v>
   <v type="logical" >  T  T  T </v>
   <v type="logical" >  T  T  T </v>
   <v type="logical" >  T  T  T </v>
   <v type="logical" >  T  T  T </v>
   <v type="logical" >  T  T  T </v>
   <v type="logical" >  T  T  T </v>
   <v type="logical" >  T  T  T </v>
   <v type="logical" >  T  T  T </v>
   <v type="logical" >  T  T  T </v>
   <v type="logical" >  T  T  T </v>
   <v type="logical" >  T  T  T </v>
   <v type="logical" >  T  T  T </v>
   <v type="logical" >  T  T  T </v>
   <v type="logical" >  T  T  T </v>
   <v type="logical" >  T  T  T </v>
   <v type="logical" >  T  T  T </v>
   <v type="logical" >  T  T  T </v>
   <v type="logical" >  T  T  T </v>
   <v type="logical" >  T  T  T </v>
   <v type="logical" >  T  T  T </v>
   <v type="logical" >  T  T  T </v>
   <v type="logical" >  T  T  T </v>
   <v type="logical" >  T  T  T </v>
   <v type="logical" >  T  T  T </v>
   <v type="logical" >  T  T  T </v>
   <v type="logical" >  T  T  T </v>
   <v type="logical" >  T  T  T </v>
   <v type="logical" >  T  T  T </v>
   <v type="logical" >  T  T  T </v>
   <v type="logical" >  T  T  T </v>
   <v type="logical" >  T  T  T </v>
   <v type="logical" >  T  T  T </v>
   <v type="logical" >  T  T  T </v>
   <v type="logical" >  T  T  T </v>
   <v type="logical" >  T  T  T </v>
   <v type="logical" >  T  T  T </v>
   <v type="logical" >  T  T  T </v>
   <v type="logical" >  T  T  T </v>
   <v type="logical" >  T  T  T </v>
   <v type="logical" >  T  T  T </v>
   <v type="logical" >  T  T  T </v>
   <v type="logical" >  T  T  T </v>
   <v type="logical" >  T  T  T </v>
  </varray>
  <nose>
   <v>      -3.00000000       0.00000000       0.00010000       0.00010000 </v>
  </nose>
 </structure>
 <calculation>
  <scstep>
   <time name="dav">   80.95   81.53</time>
   <time name="total">   86.55   87.21</time>
   <energy>
    <i name="alphaZ">    181.20502200 </i>
    <i name="ewald">  37016.12712918 </i>
    <i name="hartreedc"> -47597.53131217 </i>
    <i name="XCdc">   1251.23065824 </i>
    <i name="pawpsdc">  10449.77820547 </i>
    <i name="pawaedc"> -10506.58854235 </i>
    <i name="eentropy">     -0.04566580 </i>
    <i name="bandstr">  -1615.90278908 </i>
    <i name="atom">  14153.45850732 </i>
    <i name="e_fr_energy">   3331.73121282 </i>
    <i name="e_wo_entrp">   3331.77687861 </i>
    <i name="e_0_energy">   3331.75404572 </i>
   </energy>
  </scstep>
  <scstep>
   <time name="dav">  104.84  105.67</time>
   <time name="total">  104.84  105.69</time>
   <energy>
    <i name="e_fr_energy">   -253.71086372 </i>
    <i name="e_wo_entrp">   -253.70296395 </i>
    <i name="e_0_energy">   -253.70691384 </i>
   </energy>
  </scstep>
  <scstep>
   <time name="dav">   92.00   92.71</time>
   <time name="total">   92.01   92.72</time>
   <energy>
    <i name="e_fr_energy">   -874.43309088 </i>
    <i name="e_wo_entrp">   -874.43303826 </i>
    <i name="e_0_energy">   -874.43306457 </i>
   </energy>
  </scstep>
  <scstep>
   <time name="dav">   92.48   93.20</time>
   <time name="total">   92.48   93.21</time>
   <energy>
    <i name="e_fr_energy">   -896.53973012 </i>
    <i name="e_wo_entrp">   -896.53966718 </i>
    <i name="e_0_energy">   -896.53969865 </i>
   </energy>
  </scstep>
  <scstep>
   <time name="dav">  103.57  104.34</time>
   <time name="total">  109.54  110.35</time>
   <energy>
    <i name="e_fr_energy">   -897.19690472 </i>
    <i name="e_wo_entrp">   -897.19683767 </i>
    <i name="e_0_energy">   -897.19687119 </i>
   </energy>
  </scstep>
  <scstep>
   <time name="dav">   89.52   90.14</time>
   <time name="total">  101.17  101.90</time>
   <energy>
    <i name="e_fr_energy">   -879.34137862 </i>
    <i name="e_wo_entrp">   -879.34015343 </i>
    <i name="e_0_energy">   -879.34076603 </i>
   </energy>
  </scstep>
  <scstep>
   <time name="dav">   87.62   88.17</time>
   <time name="total">   99.41  100.07</time>
   <energy>
    <i name="e_fr_energy">   -856.73830734 </i>
    <i name="e_wo_entrp">   -856.73830439 </i>
    <i name="e_0_energy">   -856.73830586 </i>
   </energy>
  </scstep>
  <scstep>
   <time name="dav">   88.93   89.57</time>
   <time name="total">  100.76  101.51</time>
   <energy>
    <i name="e_fr_energy">   -851.79258964 </i>
    <i name="e_wo_entrp">   -851.79258961 </i>
    <i name="e_0_energy">   -851.79258962 </i>
   </energy>
  </scstep>
  <scstep>
   <time name="dav">   86.54   87.13</time>
   <time name="total">   98.33   99.02</time>
   <energy>
    <i name="e_fr_energy">   -851.69847560 </i>
    <i name="e_wo_entrp">   -851.69847558 </i>
    <i name="e_0_energy">   -851.69847559 </i>
   </energy>
  </scstep>
  <scstep>
   <time name="dav">   87.38   87.97</time>
   <time name="total">   99.12   99.82</time>
   <energy>
    <i name="e_fr_energy">   -851.60752989 </i>
    <i name="e_wo_entrp">   -851.60752988 </i>
    <i name="e_0_energy">   -851.60752989 </i>
   </energy>
  </scstep>
  <scstep>
   <time name="dav">   85.91   86.50</time>
   <time name="total">   97.75   98.46</time>
   <energy>
    <i name="e_fr_energy">   -851.59398085 </i>
    <i name="e_wo_entrp">   -851.59398084 </i>
    <i name="e_0_energy">   -851.59398085 </i>
   </energy>
  </scstep>
  <scstep>
   <time name="dav">   90.82   91.44</time>
   <time name="total">  102.66  103.40</time>
   <energy>
    <i name="e_fr_energy">   -851.59282593 </i>
    <i name="e_wo_entrp">   -851.59282592 </i>
    <i name="e_0_energy">   -851.59282593 </i>
   </energy>
  </scstep>
  <scstep>
   <time name="dav">   90.55   91.16</time>
   <time name="total">  101.14  101.85</time>
   <energy>
    <i name="e_fr_energy">   -851.59262688 </i>
    <i name="e_wo_entrp">   -851.59262687 </i>
    <i name="e_0_energy">   -851.59262687 </i>
   </energy>
  </scstep>
  <scstep>
   <time name="dav">   88.92   89.54</time>
   <time name="total">  101.03  101.77</time>
   <energy>
    <i name="e_fr_energy">   -851.59264033 </i>
    <i name="e_wo_entrp">   -851.59264032 </i>
    <i name="e_0_energy">   -851.59264033 </i>
   </energy>
  </scstep>
  <scstep>
   <time name="dav">   86.70   87.30</time>
   <time name="total">   98.85   99.57</time>
   <energy>
    <i name="e_fr_energy">   -851.59269433 </i>
    <i name="e_wo_entrp">   -851.59269432 </i>
    <i name="e_0_energy">   -851.59269432 </i>
   </energy>
  </scstep>
  <scstep>
   <time name="dav">   84.10   84.68</time>
   <time name="total">   94.81   95.48</time>
   <energy>
    <i name="e_fr_energy">   -851.59270911 </i>
    <i name="e_wo_entrp">   -851.59270910 </i>
    <i name="e_0_energy">   -851.59270910 </i>
   </energy>
  </scstep>
  <scstep>
   <time name="dav">   87.55   88.14</time>
   <time name="total">   99.42  100.14</time>
   <energy>
    <i name="e_fr_energy">   -851.59270784 </i>
    <i name="e_wo_entrp">   -851.59270783 </i>
    <i name="e_0_energy">   -851.59270783 </i>
   </energy>
  </scstep>
  <scstep>
   <time name="dav">   76.18   76.78</time>
   <time name="total">   81.94   82.61</time>
   <energy>
    <i name="alphaZ">    181.20502200 </i>
    <i name="ewald">  37016.12712918 </i>
    <i name="hartreedc"> -49128.18713309 </i>
    <i name="XCdc">   1301.91179953 </i>
    <i name="pawpsdc">  37793.21538441 </i>
    <i name="pawaedc"> -37860.92985320 </i>
    <i name="eentropy">     -0.00000001 </i>
    <i name="bandstr">  -4308.39356437 </i>
    <i name="atom">  14153.45850732 </i>
    <i name="e_fr_energy">   -851.59270822 </i>
    <i name="e_wo_entrp">   -851.59270821 </i>
    <i name="e_0_energy">   -851.59270822 </i>
   </energy>
  </scstep>
  <structure>
   <crystal>
    <varray name="basis" >
     <v>      17.27103806       0.00000000       0.00000000 </v>
     <v>      -8.63551903      14.95715771       0.00000000 </v>
     <v>       0.00000000       0.00000000      15.00000000 </v>
    </varray>
    <i name="volume">   3874.88459904 </i>
    <varray name="rec_basis" >
     <v>       0.05790040       0.03342881       0.00000000 </v>
     <v>       0.00000000       0.06685762       0.00000000 </v>
     <v>       0.00000000       0.00000000       0.06666667 </v>
    </varray>
   </crystal>
   <varray name="positions" >
    <v>       0.00023878       0.00040524       0.49952079 </v>
    <v>       0.99957988       0.14292915       0.50274434 </v>
    <v>       0.99937662       0.28578053       0.50461120 </v>
    <v>       0.99985310       0.42891113       0.50339017 </v>
    <v>       0.00069569       0.57207681       0.50073222 </v>
    <v>       0.00179562       0.71539301       0.49735093 </v>
    <v>       0.00156761       0.85840782       0.49661217 </v>
    <v>       0.14333587       0.00080991       0.50956828 </v>
    <v>       0.14229002       0.14299794       0.51357563 </v>
    <v>       0.14120466       0.28505746       0.51849979 </v>
    <v>       0.14150430       0.42835309       0.51792323 </v>
    <v>       0.14289938       0.57157771       0.51289323 </v>
    <v>       0.14365498       0.71481811       0.50924953 </v>
    <v>       0.14378907       0.85802845       0.50757658 </v>
    <v>       0.28616712       0.00062251       0.51226811 </v>
    <v>       0.28561252       0.14313749       0.51912422 </v>
    <v>       0.28419194       0.28614779       0.53303922 </v>
    <v>       0.28147117       0.42668658       0.54158446 </v>
    <v>       0.28517365       0.57032074       0.53007802 </v>
    <v>       0.28602293       0.71481191       0.51696470 </v>
    <v>       0.28625236       0.85791844       0.51157763 </v>
    <v>       0.42914184       0.00088968       0.50798148 </v>
    <v>       0.42889594       0.14375903       0.51109375 </v>
    <v>       0.42679713       0.28338286       0.52039939 </v>
    <v>       0.42720260       0.71622126       0.51676464 </v>
    <v>       0.42896765       0.85779942       0.50921388 </v>
    <v>       0.57164607       0.00091404       0.50093976 </v>
    <v>       0.57163881       0.14366898       0.50193648 </v>
    <v>       0.57239727       0.28758389       0.50029011 </v>
    <v>       0.57243252       0.85813246       0.49733477 </v>
    <v>       0.71439261       0.00042037       0.49178936 </v>
    <v>       0.71445574       0.14350222       0.49626963 </v>
    <v>       0.71440527       0.28654489       0.49419910 </v>
    <v>       0.71433553       0.42875596       0.48348005 </v>
    <v>       0.72177975       0.57461365       0.45433181 </v>
    <v>       0.72566099       0.72009476       0.44943655 </v>
    <v>       0.71382525       0.85788879       0.47828728 </v>
    <v>       0.85747962       0.00062795       0.48964567 </v>
    <v>       0.85697276       0.14320412       0.49536004 </v>
    <v>       0.85702965       0.28607676       0.49638951 </v>
    <v>       0.85770373       0.42917230       0.49233433 </v>
    <v>       0.85907356       0.57270250       0.48508849 </v>
    <v>       0.86124456       0.71646912       0.47808351 </v>
    <v>       0.85881256       0.85815744       0.48236578 </v>
    <v>       0.04747102       0.09551458       0.50524330 </v>
    <v>       0.04645656       0.23774548       0.50831326 </v>
    <v>       0.04666652       0.38092357       0.50834538 </v>
    <v>       0.04798500       0.52425154       0.50569009 </v>
    <v>       0.04861968       0.66741505       0.50291290 </v>
    <v>       0.04882531       0.81050670       0.50085701 </v>
    <v>       0.04830637       0.95317361       0.50225253 </v>
    <v>       0.19035662       0.09549279       0.51504451 </v>
    <v>       0.18907868       0.23776540       0.52118290 </v>
    <v>       0.18750060       0.37976210       0.52522207 </v>
    <v>       0.18974946       0.52357860       0.51995686 </v>
    <v>       0.19080130       0.66717008       0.51392136 </v>
    <v>       0.19124458       0.81031359       0.51006406 </v>
    <v>       0.19114982       0.95314475       0.51041121 </v>
    <v>       0.33370674       0.09609452       0.51461400 </v>
    <v>       0.33365494       0.23826730       0.52584558 </v>
    <v>       0.32655453       0.37762600       0.54893331 </v>
    <v>       0.32761827       0.52109691       0.54554993 </v>
    <v>       0.33420576       0.66771053       0.52249933 </v>
    <v>       0.33384849       0.81001024       0.51295503 </v>
    <v>       0.33373932       0.95307279       0.51076091 </v>
    <v>       0.47656333       0.09605669       0.50668846 </v>
    <v>       0.47575070       0.23914347       0.51080115 </v>
    <v>       0.47595100       0.80948618       0.50796055 </v>
    <v>       0.47658788       0.95322565       0.50571207 </v>
    <v>       0.61908866       0.09599283       0.49941598 </v>
    <v>       0.61926239       0.23908388       0.49841486 </v>
    <v>       0.62130397       0.38091130       0.49108433 </v>
    <v>       0.62082226       0.81363013       0.48623892 </v>
    <v>       0.61930139       0.95325117       0.49641246 </v>
    <v>       0.76197058       0.09585255       0.49416065 </v>
    <v>       0.76198686       0.23860940       0.49532462 </v>
    <v>       0.76241293       0.38163815       0.48947201 </v>
    <v>       0.76393312       0.52586323       0.47368524 </v>
    <v>       0.76795628       0.66883715       0.45859548 </v>
    <v>       0.76350914       0.81048086       0.46885262 </v>
    <v>       0.76225935       0.95313596       0.48581511 </v>
    <v>       0.90457245       0.09535129       0.49556932 </v>
    <v>       0.90439742       0.23831984       0.49838576 </v>
    <v>       0.90477566       0.38150747       0.49711128 </v>
    <v>       0.90579474       0.52471521       0.49321162 </v>
    <v>       0.90714457       0.66790487       0.48680187 </v>
    <v>       0.90695743       0.81109055       0.48540845 </v>
    <v>       0.90534295       0.95287905       0.49087113 </v>
    <v>       0.46271986       0.35601989       0.52235631 </v>
    <v>       0.39721130       0.41430727       0.56552894 </v>
    <v>       0.39905533       0.55457556       0.55932320 </v>
    <v>       0.65098255       0.53939768       0.43834198 </v>
    <v>       0.58569106       0.41801954       0.49151439 </v>
    <v>       0.58412295       0.74140327       0.48430429 </v>
    <v>       0.46317903       0.67955630       0.51810453 </v>
    <v>       0.47504639       0.50879125       0.46177464 </v>
    <v>       0.56754519       0.57821293       0.49667356 </v>
    <v>       0.63747735       0.67272199       0.42153998 </v>
    <v>       0.51612537       0.52022388       0.51098055 </v>
   </varray>
  </structure>
  <varray name="forces" >
   <v>      -0.00056990      -0.00023628      -0.00172186 </v>
   <v>      -0.00092758      -0.00077809       0.00018410 </v>
   <v>       0.00058793      -0.00061899       0.00339653 </v>
   <v>       0.00139661      -0.00035120       0.00242422 </v>
   <v>       0.00043269       0.00197581      -0.00058352 </v>
   <v>       0.00056336       0.00155015      -0.00291773 </v>
   <v>       0.00044740       0.00033620      -0.00338214 </v>
   <v>       0.00090925      -0.00003136      -0.00109385 </v>
   <v>       0.00078955       0.00019470       0.00054999 </v>
   <v>       0.00056639       0.00066079       0.00154035 </v>
   <v>       0.00026098       0.00065003       0.00351010 </v>
   <v>       0.00126569       0.00135030       0.00338792 </v>
   <v>       0.00017859       0.00218292       0.00037921 </v>
   <v>       0.00133058      -0.00055299      -0.00269622 </v>
   <v>       0.00125777      -0.00040731      -0.00078995 </v>
   <v>       0.00225361       0.00070080       0.00031287 </v>
   <v>       0.00004347       0.00112481       0.00434422 </v>
   <v>       0.00041819       0.00166269       0.00150049 </v>
   <v>       0.00207199      -0.00017902       0.00389486 </v>
   <v>       0.00047471       0.00189299       0.00214271 </v>
   <v>       0.00057557       0.00098126       0.00027835 </v>
   <v>       0.00065632      -0.00061298       0.00018159 </v>
   <v>       0.00072543      -0.00076276      -0.00098148 </v>
   <v>       0.00002039      -0.00007770       0.00189085 </v>
   <v>      -0.00052791       0.00103173       0.00183383 </v>
   <v>      -0.00044805       0.00113450       0.00019271 </v>
   <v>      -0.00017804       0.00023887      -0.00027611 </v>
   <v>       0.00138720      -0.00213742      -0.00014099 </v>
   <v>       0.00092479      -0.00025776      -0.00083336 </v>
   <v>      -0.00320690       0.00142261      -0.00093609 </v>
   <v>      -0.00145460       0.00043591      -0.00074408 </v>
   <v>       0.00088540      -0.00159588       0.00087935 </v>
   <v>       0.00255928      -0.00145312      -0.00045873 </v>
   <v>       0.00053609       0.00084364      -0.00168597 </v>
   <v>      -0.00208616       0.00297551       0.00324267 </v>
   <v>      -0.00088511      -0.00008440       0.00190660 </v>
   <v>      -0.00134959       0.00048141      -0.00200976 </v>
   <v>      -0.00134492      -0.00067247       0.00126241 </v>
   <v>       0.00149365      -0.00151550       0.00091971 </v>
   <v>       0.00078029      -0.00152323       0.00111987 </v>
   <v>       0.00121151      -0.00016302      -0.00193373 </v>
   <v>       0.00155051       0.00035477      -0.00066713 </v>
   <v>      -0.00201760      -0.00228404      -0.00050198 </v>
   <v>      -0.00101840      -0.00087252      -0.00107535 </v>
   <v>       0.00092986      -0.00005191      -0.00013533 </v>
   <v>       0.00080535      -0.00009687       0.00218683 </v>
   <v>      -0.00001766       0.00004528       0.00194464 </v>
   <v>      -0.00092781      -0.00011545       0.00137717 </v>
   <v>      -0.00035803      -0.00188764      -0.00073079 </v>
   <v>       0.00011777       0.00091506      -0.00300958 </v>
   <v>      -0.00051016       0.00137190      -0.00270770 </v>
   <v>       0.00034366       0.00032115       0.00039645 </v>
   <v>      -0.00039980      -0.00113230       0.00203074 </v>
   <v>      -0.00053412      -0.00163776       0.00334896 </v>
   <v>      -0.00128383      -0.00096285       0.00389169 </v>
   <v>      -0.00059543      -0.00078259       0.00236973 </v>
   <v>      -0.00179467       0.00021677      -0.00126004 </v>
   <v>      -0.00200667       0.00090153      -0.00219963 </v>
   <v>       0.00063587       0.00076773       0.00013032 </v>
   <v>       0.00070809       0.00045059       0.00287250 </v>
   <v>      -0.00034590      -0.00154193       0.00311664 </v>
   <v>      -0.00377246      -0.00042163       0.00428184 </v>
   <v>       0.00132778       0.00144016       0.00257545 </v>
   <v>      -0.00013583      -0.00028807       0.00154238 </v>
   <v>       0.00051409      -0.00075418      -0.00156243 </v>
   <v>       0.00080561       0.00223586       0.00050460 </v>
   <v>       0.00013849       0.00135811       0.00027134 </v>
   <v>       0.00048555      -0.00043332      -0.00141582 </v>
   <v>      -0.00002036       0.00043285      -0.00052838 </v>
   <v>      -0.00026821       0.00159522       0.00043423 </v>
   <v>      -0.00124522       0.00213946      -0.00053402 </v>
   <v>       0.00088738      -0.00136112      -0.00006642 </v>
   <v>       0.00271076      -0.00130629      -0.00554187 </v>
   <v>      -0.00032716      -0.00060634      -0.00098761 </v>
   <v>       0.00057620       0.00119039       0.00153735 </v>
   <v>      -0.00008384       0.00211560       0.00108617 </v>
   <v>       0.00020402       0.00082843      -0.00206862 </v>
   <v>       0.00100479      -0.00126399       0.00007452 </v>
   <v>       0.00113768      -0.00257901       0.00317237 </v>
   <v>       0.00183256       0.00094907       0.00118783 </v>
   <v>       0.00163099      -0.00022538       0.00070790 </v>
   <v>       0.00147496       0.00052667       0.00240997 </v>
   <v>       0.00025871       0.00189486       0.00226019 </v>
   <v>      -0.00141102      -0.00009358       0.00117538 </v>
   <v>      -0.00024514      -0.00099293      -0.00227909 </v>
   <v>       0.00057680      -0.00228058      -0.00132655 </v>
   <v>      -0.00044838       0.00029666      -0.00160242 </v>
   <v>       0.00209063      -0.00020912       0.00175924 </v>
   <v>       0.00050315       0.00068690       0.00226001 </v>
   <v>      -0.00038048       0.00006682       0.00451954 </v>
   <v>      -0.00041530       0.00160795       0.00603415 </v>
   <v>      -0.00082836      -0.00115212       0.00734495 </v>
   <v>      -0.00020606       0.00031981      -0.00004712 </v>
   <v>      -0.00094614       0.00171462      -0.00568329 </v>
   <v>       0.00014686       0.00027955       0.00246503 </v>
   <v>      -0.01151613      -0.01253111      -0.00930530 </v>
   <v>      -0.00449779       0.00890046      -0.02738975 </v>
   <v>       0.00103125       0.00203224       0.00519068 </v>
   <v>       0.00010266      -0.00990795      -0.02192452 </v>
  </varray>
  <varray name="stress" >
   <v>       1.66370550       1.26977887       0.00466774 </v>
   <v>       1.26977722       0.34175181       0.00701476 </v>
   <v>       0.00466895       0.00701534      -0.29547596 </v>
  </varray>
  <energy>
   <i name="e_fr_energy">   -859.48800291 </i>
   <i name="e_wo_entrp">   -859.48800290 </i>
   <i name="e_0_energy">   -859.48800290 </i>
  </energy>
  <time name="totalsc"> 1955.23 1969.69</time>
 </calculation>
 <calculation>
  <scstep>
   <time name="dav">   80.60   81.20</time>
   <time name="total">   92.70   93.38</time>
   <energy>
    <i name="alphaZ">    181.20502200 </i>
    <i name="ewald">  37016.03500893 </i>
    <i name="hartreedc"> -49128.07670274 </i>
    <i name="XCdc">   1301.91110847 </i>
    <i name="pawpsdc">  37793.33606473 </i>
    <i name="pawaedc"> -37861.05012113 </i>
    <i name="eentropy">     -0.00000001 </i>
    <i name="bandstr">  -4308.41159141 </i>
    <i name="atom">  14153.45850732 </i>
    <i name="e_fr_energy">   -851.59270384 </i>
    <i name="e_wo_entrp">   -851.59270383 </i>
    <i name="e_0_energy">   -851.59270384 </i>
   </energy>
  </scstep>
  <scstep>
   <time name="dav">   79.27   79.91</time>
   <time name="total">   90.22   90.97</time>
   <energy>
    <i name="e_fr_energy">   -851.59270465 </i>
    <i name="e_wo_entrp">   -851.59270464 </i>
    <i name="e_0_energy">   -851.59270464 </i>
   </energy>
  </scstep>
  <scstep>
   <time name="dav">   55.02   55.30</time>
   <time name="total">   60.67   61.00</time>
   <energy>
    <i name="alphaZ">    181.20502200 </i>
    <i name="ewald">  37016.03500893 </i>
    <i name="hartreedc"> -49128.06962732 </i>
    <i name="XCdc">   1301.91098520 </i>
    <i name="pawpsdc">  37793.20171552 </i>
    <i name="pawaedc"> -37860.91578162 </i>
    <i name="eentropy">     -0.00000001 </i>
    <i name="bandstr">  -4308.41853448 </i>
    <i name="atom">  14153.45850732 </i>
    <i name="e_fr_energy">   -851.59270446 </i>
    <i name="e_wo_entrp">   -851.59270445 </i>
    <i name="e_0_energy">   -851.59270446 </i>
   </energy>
  </scstep>
  <structure>
   <crystal>
    <varray name="basis" >
     <v>      17.27103806       0.00000000       0.00000000 </v>
     <v>      -8.63551903      14.95715771       0.00000000 </v>
     <v>       0.00000000       0.00000000      15.00000000 </v>
    </varray>
    <i name="volume">   3874.88459904 </i>
    <varray name="rec_basis" >
     <v>       0.05790040       0.03342881       0.00000000 </v>
     <v>       0.00000000       0.06685762       0.00000000 </v>
     <v>       0.00000000       0.00000000       0.06666667 </v>
    </varray>
   </crystal>
   <varray name="positions" >
    <v>       0.00023803       0.00040485       0.49951917 </v>
    <v>       0.99957873       0.14292838       0.50274416 </v>
    <v>       0.99937638       0.28577987       0.50461343 </v>
    <v>       0.99985340       0.42891065       0.50339193 </v>
    <v>       0.00069619       0.57207789       0.50073197 </v>
    <v>       0.00179607       0.71539381       0.49734881 </v>
    <v>       0.00156764       0.85840780       0.49660944 </v>
    <v>       0.14333604       0.00080965       0.50956776 </v>
    <v>       0.14229019       0.14299783       0.51357598 </v>
    <v>       0.14120485       0.28505765       0.51850083 </v>
    <v>       0.14150427       0.42835326       0.51792588 </v>
    <v>       0.14290016       0.57157835       0.51289606 </v>
    <v>       0.14365543       0.71481932       0.50925045 </v>
    <v>       0.14378930       0.85802783       0.50757530 </v>
    <v>       0.28616740       0.00062200       0.51226801 </v>
    <v>       0.28561375       0.14313774       0.51912450 </v>
    <v>       0.28419200       0.28614833       0.53304189 </v>
    <v>       0.28147161       0.42668744       0.54158533 </v>
    <v>       0.28517441       0.57032034       0.53008101 </v>
    <v>       0.28602350       0.71481291       0.51696676 </v>
    <v>       0.28625271       0.85791884       0.51157849 </v>
    <v>       0.42914171       0.00088902       0.50798175 </v>
    <v>       0.42889581       0.14375830       0.51109305 </v>
    <v>       0.42679681       0.28338260       0.52040054 </v>
    <v>       0.42720232       0.71622163       0.51676608 </v>
    <v>       0.42896748       0.85779988       0.50921423 </v>
    <v>       0.57164573       0.00091388       0.50093923 </v>
    <v>       0.57163858       0.14366730       0.50193599 </v>
    <v>       0.57239741       0.28758355       0.50028878 </v>
    <v>       0.57243085       0.85813300       0.49733330 </v>
    <v>       0.71439159       0.00042037       0.49178778 </v>
    <v>       0.71445538       0.14350089       0.49626971 </v>
    <v>       0.71440592       0.28654371       0.49419794 </v>
    <v>       0.71433581       0.42875635       0.48347671 </v>
    <v>       0.72177959       0.57461553       0.45432733 </v>
    <v>       0.72566066       0.72009493       0.44943026 </v>
    <v>       0.71382438       0.85788890       0.47828290 </v>
    <v>       0.85747831       0.00062728       0.48964516 </v>
    <v>       0.85697277       0.14320286       0.49536010 </v>
    <v>       0.85702923       0.28607550       0.49638986 </v>
    <v>       0.85770401       0.42917197       0.49233224 </v>
    <v>       0.85907424       0.57270253       0.48508641 </v>
    <v>       0.86124233       0.71646741       0.47808049 </v>
    <v>       0.85881144       0.85815670       0.48236280 </v>
    <v>       0.04747120       0.09551430       0.50524299 </v>
    <v>       0.04645663       0.23774517       0.50831465 </v>
    <v>       0.04666614       0.38092336       0.50834688 </v>
    <v>       0.04798402       0.52425122       0.50569137 </v>
    <v>       0.04861845       0.66741355       0.50291274 </v>
    <v>       0.04882532       0.81050707       0.50085503 </v>
    <v>       0.04830620       0.95317429       0.50225056 </v>
    <v>       0.19035660       0.09549278       0.51504488 </v>
    <v>       0.18907772       0.23776440       0.52118420 </v>
    <v>       0.18749936       0.37976075       0.52522442 </v>
    <v>       0.18974799       0.52357769       0.51995992 </v>
    <v>       0.19080032       0.66716930       0.51392363 </v>
    <v>       0.19124326       0.81031349       0.51006392 </v>
    <v>       0.19114863       0.95314511       0.51041020 </v>
    <v>       0.33370707       0.09609481       0.51461428 </v>
    <v>       0.33365519       0.23826739       0.52584737 </v>
    <v>       0.32655354       0.37762479       0.54893489 </v>
    <v>       0.32761559       0.52109636       0.54555289 </v>
    <v>       0.33420666       0.66771122       0.52250151 </v>
    <v>       0.33384801       0.81000978       0.51295665 </v>
    <v>       0.33373906       0.95307204       0.51076034 </v>
    <v>       0.47656423       0.09605794       0.50668869 </v>
    <v>       0.47575094       0.23914419       0.51080107 </v>
    <v>       0.47595085       0.80948556       0.50795956 </v>
    <v>       0.47658770       0.95322565       0.50571173 </v>
    <v>       0.61908870       0.09599361       0.49941585 </v>
    <v>       0.61926205       0.23908510       0.49841376 </v>
    <v>       0.62130372       0.38091023       0.49108282 </v>
    <v>       0.62082315       0.81362889       0.48623315 </v>
    <v>       0.61930067       0.95325041       0.49641103 </v>
    <v>       0.76197096       0.09585307       0.49416101 </v>
    <v>       0.76198716       0.23861057       0.49532479 </v>
    <v>       0.76241297       0.38163850       0.48946929 </v>
    <v>       0.76393303       0.52586221       0.47368181 </v>
    <v>       0.76795600       0.66883539       0.45859175 </v>
    <v>       0.76351042       0.81048144       0.46884903 </v>
    <v>       0.76225992       0.95313557       0.48581371 </v>
    <v>       0.90457315       0.09535140       0.49557024 </v>
    <v>       0.90439785       0.23832087       0.49838697 </v>
    <v>       0.90477443       0.38150717       0.49711176 </v>
    <v>       0.90579389       0.52471432       0.49320951 </v>
    <v>       0.90714378       0.66790314       0.48679959 </v>
    <v>       0.90695698       0.81109055       0.48540562 </v>
    <v>       0.90534379       0.95287870       0.49087108 </v>
    <v>       0.46272007       0.35602015       0.52235800 </v>
    <v>       0.39721086       0.41430727       0.56553126 </v>
    <v>       0.39905525       0.55457627       0.55932743 </v>
    <v>       0.65098204       0.53939671       0.43833721 </v>
    <v>       0.58569081       0.41801970       0.49151339 </v>
    <v>       0.58412285       0.74140398       0.48429822 </v>
    <v>       0.46317887       0.67955615       0.51810633 </v>
    <v>       0.47505398       0.50879975       0.46178653 </v>
    <v>       0.56755360       0.57821811       0.49668510 </v>
    <v>       0.63747954       0.67272444       0.42153082 </v>
    <v>       0.51612615       0.52022439       0.51098893 </v>
   </varray>
  </structure>
  <varray name="forces" >
   <v>       0.00016845       0.00013068      -0.00151435 </v>
   <v>       0.00048495      -0.00022276       0.00055614 </v>
   <v>       0.00062101      -0.00008194       0.00343769 </v>
   <v>       0.00021654      -0.00024284       0.00239625 </v>
   <v>      -0.00003050       0.00023559      -0.00060091 </v>
   <v>       0.00015394       0.00040074      -0.00293918 </v>
   <v>       0.00001532       0.00066105      -0.00345901 </v>
   <v>      -0.00002425       0.00047864      -0.00120008 </v>
   <v>       0.00060028      -0.00010958       0.00062722 </v>
   <v>       0.00044879      -0.00025926       0.00175755 </v>
   <v>      -0.00013826      -0.00010832       0.00364714 </v>
   <v>       0.00014949       0.00027362       0.00344461 </v>
   <v>      -0.00023071       0.00055562       0.00043140 </v>
   <v>       0.00006950       0.00027379      -0.00274688 </v>
   <v>       0.00028559      -0.00006713      -0.00082768 </v>
   <v>      -0.00224466      -0.00105501       0.00149500 </v>
   <v>      -0.00000773      -0.00042750       0.00414934 </v>
   <v>      -0.00018649      -0.00002612       0.00186150 </v>
   <v>      -0.00013244       0.00043967       0.00383705 </v>
   <v>       0.00016924       0.00070069       0.00239099 </v>
   <v>       0.00004609       0.00015577       0.00026853 </v>
   <v>       0.00040969       0.00034948       0.00016050 </v>
   <v>       0.00077815       0.00132331       0.00078260 </v>
   <v>       0.00061490       0.00073835       0.00046206 </v>
   <v>       0.00039348       0.00054017       0.00187506 </v>
   <v>      -0.00009916       0.00046907       0.00021052 </v>
   <v>      -0.00005191       0.00050286      -0.00026328 </v>
   <v>       0.00061338       0.00033556      -0.00006556 </v>
   <v>       0.00036724       0.00007324      -0.00073665 </v>
   <v>      -0.00070994      -0.00012059      -0.00156491 </v>
   <v>      -0.00013123       0.00020144      -0.00068640 </v>
   <v>       0.00056308       0.00026928       0.00099290 </v>
   <v>       0.00091629       0.00013458      -0.00054560 </v>
   <v>       0.00082826       0.00051896      -0.00017898 </v>
   <v>      -0.00054732      -0.00015290       0.00326973 </v>
   <v>       0.00065597       0.00064193       0.00198066 </v>
   <v>       0.00006020       0.00025976      -0.00222936 </v>
   <v>       0.00033958      -0.00047771       0.00151154 </v>
   <v>      -0.00024086       0.00135509       0.00138056 </v>
   <v>       0.00036352      -0.00010077       0.00128517 </v>
   <v>       0.00001617      -0.00203305      -0.00135463 </v>
   <v>       0.00102276      -0.00081764      -0.00099822 </v>
   <v>      -0.00004427      -0.00135283      -0.00029320 </v>
   <v>       0.00044597       0.00005539      -0.00076852 </v>
   <v>       0.00037558      -0.00003636      -0.00020155 </v>
   <v>       0.00049517      -0.00031081       0.00222737 </v>
   <v>       0.00053943      -0.00007190       0.00238535 </v>
   <v>       0.00013355       0.00034871       0.00165482 </v>
   <v>       0.00011437       0.00020584      -0.00070192 </v>
   <v>       0.00043662       0.00067618      -0.00313910 </v>
   <v>      -0.00003158       0.00059371      -0.00275307 </v>
   <v>       0.00114439       0.00036826       0.00044080 </v>
   <v>       0.00016192      -0.00026466       0.00226616 </v>
   <v>       0.00008220      -0.00031929       0.00346840 </v>
   <v>      -0.00006629      -0.00006897       0.00418978 </v>
   <v>       0.00016105       0.00069936       0.00257625 </v>
   <v>      -0.00023881       0.00062564      -0.00109775 </v>
   <v>      -0.00011126       0.00028605      -0.00211120 </v>
   <v>       0.00117218      -0.00000346       0.00004831 </v>
   <v>       0.00049355       0.00039966       0.00303280 </v>
   <v>      -0.00018576       0.00010389       0.00358555 </v>
   <v>      -0.00001384       0.00047536       0.00359071 </v>
   <v>       0.00076797       0.00093509       0.00287507 </v>
   <v>      -0.00001408       0.00054244       0.00159188 </v>
   <v>      -0.00108512       0.00110883       0.00015309 </v>
   <v>      -0.00094045      -0.00031768      -0.00094778 </v>
   <v>       0.00027831       0.00042556       0.00024378 </v>
   <v>      -0.00023279       0.00061824      -0.00121842 </v>
   <v>       0.00016094       0.00033860      -0.00041714 </v>
   <v>       0.00056863       0.00015435       0.00042769 </v>
   <v>       0.00042298       0.00014437      -0.00053133 </v>
   <v>       0.00052874      -0.00036562      -0.00031166 </v>
   <v>       0.00008497       0.00059664      -0.00527269 </v>
   <v>      -0.00078841       0.00005542      -0.00096400 </v>
   <v>       0.00058492       0.00007149       0.00140230 </v>
   <v>       0.00072095      -0.00016239       0.00108275 </v>
   <v>       0.00076285       0.00011162      -0.00209498 </v>
   <v>       0.00019589       0.00010112      -0.00030402 </v>
   <v>      -0.00066902      -0.00086786       0.00250581 </v>
   <v>       0.00039960       0.00000465       0.00041257 </v>
   <v>      -0.00005966       0.00034093       0.00056505 </v>
   <v>       0.00108623      -0.00147141       0.00077851 </v>
   <v>       0.00070949       0.00009809       0.00232580 </v>
   <v>       0.00236815       0.00164314       0.00023008 </v>
   <v>       0.00067887      -0.00018966      -0.00218566 </v>
   <v>       0.00042899      -0.00061087      -0.00141224 </v>
   <v>      -0.00019022      -0.00057149      -0.00185167 </v>
   <v>       0.00048949      -0.00047267       0.00132047 </v>
   <v>       0.00053040       0.00044239       0.00232889 </v>
   <v>      -0.00051289      -0.00021015       0.00447527 </v>
   <v>      -0.00140849       0.00101815       0.00585767 </v>
   <v>      -0.00078292      -0.00091074       0.00733781 </v>
   <v>       0.00029704      -0.00004631       0.00000335 </v>
   <v>      -0.00076209       0.00069905      -0.00578291 </v>
   <v>       0.00000591       0.00039781       0.00254495 </v>
   <v>      -0.01430686      -0.01338979      -0.01282951 </v>
   <v>      -0.00617636       0.00504530      -0.02650956 </v>
   <v>      -0.00038004       0.00115552       0.00344493 </v>
   <v>       0.00457750      -0.00458777      -0.01997416 </v>
  </varray>
  <varray name="stress" >
   <v>       1.66362699       1.26826949       0.00694499 </v>
   <v>       1.26826783       0.34168627       0.00795660 </v>
   <v>       0.00694617       0.00795720      -0.28978340 </v>
  </varray>
  <energy>
   <i name="e_fr_energy">   -859.48799488 </i>
   <i name="e_wo_entrp">   -859.48799487 </i>
   <i name="e_0_energy">   -859.48799487 </i>
  </energy>
  <time name="totalsc">  525.93  529.64</time>
 </calculation>
 <calculation>
  <scstep>
   <time name="dav">   79.51   80.09</time>
   <time name="total">   91.38   92.06</time>
   <energy>
    <i name="alphaZ">    181.20502200 </i>
    <i name="ewald">  37015.82931050 </i>
    <i name="hartreedc"> -49127.86587987 </i>
    <i name="XCdc">   1301.91055387 </i>
    <i name="pawpsdc">  37792.97784958 </i>
[...]
       <r>   -17.2513     8.6202    34.4759 </r>
       <r>   -17.1264    11.9322    35.9669 </r>
       <r>   -17.0014     3.8869    36.4526 </r>
       <r>   -16.8764     8.1528    37.4713 </r>
       <r>   -16.7515     9.6536    38.6776 </r>
       <r>   -16.6265     3.5128    39.1165 </r>
       <r>   -16.5016     6.5298    39.9325 </r>
       <r>   -16.3766     6.6117    40.7587 </r>
       <r>   -16.2517    16.2268    42.7863 </r>
       <r>   -16.1267     8.1018    43.7986 </r>
       <r>   -16.0018     1.9938    44.0478 </r>
       <r>   -15.8768     3.4839    44.4831 </r>
       <r>   -15.7519     2.1949    44.7574 </r>
       <r>   -15.6269     3.5371    45.1993 </r>
       <r>   -15.5019     1.0348    45.3286 </r>
       <r>   -15.3770     7.4656    46.2615 </r>
       <r>   -15.2520     7.8377    47.2409 </r>
       <r>   -15.1271     7.9444    48.2336 </r>
       <r>   -15.0021     6.0445    48.9888 </r>
       <r>   -14.8772    13.9451    50.7314 </r>
       <r>   -14.7522    10.1116    51.9948 </r>
       <r>   -14.6273     2.2680    52.2782 </r>
       <r>   -14.5023    11.0616    53.6604 </r>
       <r>   -14.3774    11.1758    55.0569 </r>
       <r>   -14.2524     8.1689    56.0777 </r>
       <r>   -14.1274     9.1278    57.2182 </r>
       <r>   -14.0025    11.8252    58.6958 </r>
       <r>   -13.8775     4.8561    59.3026 </r>
       <r>   -13.7526     4.5741    59.8742 </r>
       <r>   -13.6276     5.4957    60.5609 </r>
       <r>   -13.5027     8.4834    61.6209 </r>
       <r>   -13.3777     8.6631    62.7034 </r>
       <r>   -13.2528     7.9217    63.6933 </r>
       <r>   -13.1278     6.9062    64.5563 </r>
       <r>   -13.0028     6.2022    65.3313 </r>
       <r>   -12.8779     2.8883    65.6922 </r>
       <r>   -12.7529     8.5850    66.7649 </r>
       <r>   -12.6280     6.4174    67.5668 </r>
       <r>   -12.5030     8.7982    68.6662 </r>
       <r>   -12.3781    15.5654    70.6111 </r>
       <r>   -12.2531    12.4019    72.1608 </r>
       <r>   -12.1282     6.6210    72.9881 </r>
       <r>   -12.0032     8.0182    73.9901 </r>
       <r>   -11.8783     6.0870    74.7507 </r>
       <r>   -11.7533     9.6106    75.9516 </r>
       <r>   -11.6283     8.9224    77.0664 </r>
       <r>   -11.5034     6.7815    77.9138 </r>
       <r>   -11.3784    12.8249    79.5164 </r>
       <r>   -11.2535    11.2467    80.9217 </r>
       <r>   -11.1285    14.1141    82.6853 </r>
       <r>   -11.0036     7.8707    83.6688 </r>
       <r>   -10.8786     9.2258    84.8216 </r>
       <r>   -10.7537    15.3433    86.7388 </r>
       <r>   -10.6287     5.5780    87.4358 </r>
       <r>   -10.5038     6.1644    88.2061 </r>
       <r>   -10.3788     5.5150    88.8952 </r>
       <r>   -10.2538    12.8478    90.5006 </r>
       <r>   -10.1289    11.2077    91.9011 </r>
       <r>   -10.0039    17.5669    94.0961 </r>
       <r>    -9.8790    17.4067    96.2712 </r>
       <r>    -9.7540    16.7234    98.3609 </r>
       <r>    -9.6291    18.7745   100.7068 </r>
       <r>    -9.5041    11.1880   102.1048 </r>
       <r>    -9.3792    17.2437   104.2595 </r>
       <r>    -9.2542    17.0007   106.3838 </r>
       <r>    -9.1292    15.3373   108.3003 </r>
       <r>    -9.0043    22.3248   111.0899 </r>
       <r>    -8.8793    23.7753   114.0607 </r>
       <r>    -8.7544    32.0198   118.0618 </r>
       <r>    -8.6294    23.4285   120.9893 </r>
       <r>    -8.5045    17.4344   123.1678 </r>
       <r>    -8.3795    19.2801   125.5769 </r>
       <r>    -8.2546    18.8778   127.9358 </r>
       <r>    -8.1296    18.8208   130.2875 </r>
       <r>    -8.0047    23.6418   133.2417 </r>
       <r>    -7.8797    17.8372   135.4706 </r>
       <r>    -7.7547    19.6911   137.9311 </r>
       <r>    -7.6298    16.4044   139.9809 </r>
       <r>    -7.5048    14.1812   141.7529 </r>
       <r>    -7.3799     6.9601   142.6226 </r>
       <r>    -7.2549    12.7927   144.2211 </r>
       <r>    -7.1300    24.0019   147.2202 </r>
       <r>    -7.0050    19.8115   149.6958 </r>
       <r>    -6.8801    16.0731   151.7042 </r>
       <r>    -6.7551    11.4085   153.1297 </r>
       <r>    -6.6301     8.7764   154.2264 </r>
       <r>    -6.5052    12.9387   155.8431 </r>
       <r>    -6.3802    12.4352   157.3970 </r>
       <r>    -6.2553    12.5737   158.9681 </r>
       <r>    -6.1303    13.8337   160.6967 </r>
       <r>    -6.0054    21.8843   163.4313 </r>
       <r>    -5.8804    13.3817   165.1034 </r>
       <r>    -5.7555    15.4643   167.0357 </r>
       <r>    -5.6305    14.9251   168.9007 </r>
       <r>    -5.5056    11.5821   170.3479 </r>
       <r>    -5.3806     7.0650   171.2307 </r>
       <r>    -5.2556     3.9429   171.7234 </r>
       <r>    -5.1307     2.1456   171.9915 </r>
       <r>    -5.0057    10.4283   173.2946 </r>
       <r>    -4.8808    22.2832   176.0790 </r>
       <r>    -4.7558    15.3776   178.0005 </r>
       <r>    -4.6309     5.9632   178.7456 </r>
       <r>    -4.5059     9.8278   179.9737 </r>
       <r>    -4.3810     2.2129   180.2502 </r>
       <r>    -4.2560     2.2048   180.5257 </r>
       <r>    -4.1311     8.5065   181.5886 </r>
       <r>    -4.0061     6.6510   182.4197 </r>
       <r>    -3.8811     7.4122   183.3459 </r>
       <r>    -3.7562     7.5086   184.2841 </r>
       <r>    -3.6312     5.6323   184.9879 </r>
       <r>    -3.5063     0.0968   185.0000 </r>
       <r>    -3.3813     0.3616   185.0452 </r>
       <r>    -3.2564     2.9828   185.4179 </r>
       <r>    -3.1314     6.3184   186.2074 </r>
       <r>    -3.0065     0.8133   186.3090 </r>
       <r>    -2.8815     1.5234   186.4994 </r>
       <r>    -2.7565     0.0049   186.5000 </r>
       <r>    -2.6316     0.5714   186.5714 </r>
       <r>    -2.5066     3.3977   186.9960 </r>
       <r>    -2.3817     0.0323   187.0000 </r>
       <r>    -2.2567     0.2332   187.0291 </r>
       <r>    -2.1318     3.6476   187.4849 </r>
       <r>    -2.0068     0.1207   187.5000 </r>
       <r>    -1.8819     0.0029   187.5004 </r>
       <r>    -1.7569     1.5460   187.6935 </r>
       <r>    -1.6320     2.6119   188.0199 </r>
       <r>    -1.5070     6.9181   188.8844 </r>
       <r>    -1.3820     0.9254   189.0000 </r>
       <r>    -1.2571     0.1810   189.0226 </r>
       <r>    -1.1321     7.0240   189.9003 </r>
       <r>    -1.0072     4.8125   190.5016 </r>
       <r>    -0.8822     4.9047   191.1145 </r>
       <r>    -0.7573    16.1237   193.1292 </r>
       <r>    -0.6323     7.0798   194.0139 </r>
       <r>    -0.5074     9.1258   195.1542 </r>
       <r>    -0.3824    10.4498   196.4599 </r>
       <r>    -0.2575     5.9858   197.2079 </r>
       <r>    -0.1325     5.6878   197.9186 </r>
       <r>    -0.0075     9.0346   199.0475 </r>
       <r>     0.1174     8.2875   200.0831 </r>
       <r>     0.2424    12.3679   201.6285 </r>
       <r>     0.3673     8.8174   202.7303 </r>
       <r>     0.4923     2.1553   202.9996 </r>
       <r>     0.6172     3.3194   203.4144 </r>
       <r>     0.7422    12.6867   204.9997 </r>
       <r>     0.8671     9.8055   206.2249 </r>
       <r>     0.9921     5.6566   206.9317 </r>
       <r>     1.1171    10.1722   208.2028 </r>
       <r>     1.2420     6.7898   209.0512 </r>
       <r>     1.3670     8.3232   210.0912 </r>
       <r>     1.4919    12.1294   211.6068 </r>
       <r>     1.6169    18.8800   213.9660 </r>
       <r>     1.7418    13.2868   215.6262 </r>
       <r>     1.8668    10.2693   216.9094 </r>
       <r>     1.9917    14.8322   218.7628 </r>
       <r>     2.1167    17.8650   220.9951 </r>
       <r>     2.2416    16.5884   223.0679 </r>
       <r>     2.3666    21.4045   225.7425 </r>
       <r>     2.4916    23.4140   228.6682 </r>
       <r>     2.6165     6.7012   229.5056 </r>
       <r>     2.7415    14.5337   231.3216 </r>
       <r>     2.8664    26.6098   234.6466 </r>
       <r>     2.9914    37.2288   239.2986 </r>
       <r>     3.1163    21.9913   242.0465 </r>
       <r>     3.2413    23.2623   244.9532 </r>
       <r>     3.3662    17.5572   247.1471 </r>
       <r>     3.4912    20.3210   249.6863 </r>
       <r>     3.6161    19.3769   252.1075 </r>
       <r>     3.7411    19.5027   254.5445 </r>
       <r>     3.8661    25.5106   257.7322 </r>
       <r>     3.9910    22.3233   260.5216 </r>
       <r>     4.1160    19.1609   262.9158 </r>
       <r>     4.2409    19.6136   265.3666 </r>
       <r>     4.3659    25.9249   268.6061 </r>
       <r>     4.4908    11.1097   269.9943 </r>
       <r>     4.6158     0.0457   270.0000 </r>
       <r>     4.7407     0.0000   270.0000 </r>
       <r>     4.8657     0.0000   270.0000 </r>
       <r>     4.9907     0.0000   270.0000 </r>
       <r>     5.1156     0.0000   270.0000 </r>
       <r>     5.2406     0.0000   270.0000 </r>
       <r>     5.3655     0.0000   270.0000 </r>
       <r>     5.4905     0.0000   270.0000 </r>
       <r>     5.6154     0.0000   270.0000 </r>
       <r>     5.7404     0.0000   270.0000 </r>
       <r>     5.8653     0.0000   270.0000 </r>
       <r>     5.9903     0.0000   270.0000 </r>
       <r>     6.1152     0.0000   270.0000 </r>
      </set>
     </set>
    </array>
   </total>
  </dos>
 </calculation>
 <structure name="finalpos" >
  <crystal>
   <varray name="basis" >
    <v>      17.27103806       0.00000000       0.00000000 </v>
    <v>      -8.63551903      14.95715771       0.00000000 </v>
    <v>       0.00000000       0.00000000      15.00000000 </v>
   </varray>
   <i name="volume">   3874.88459904 </i>
   <varray name="rec_basis" >
    <v>       0.05790040       0.03342881       0.00000000 </v>
    <v>       0.00000000       0.06685762       0.00000000 </v>
    <v>       0.00000000       0.00000000       0.06666667 </v>
   </varray>
  </crystal>
  <varray name="positions" >
   <v>       0.00015827       0.00031667       0.49849159 </v>
   <v>       0.99943298       0.14279018       0.50289104 </v>
   <v>       0.99918747       0.28562039       0.50558930 </v>
   <v>       0.99966188       0.42876985       0.50431917 </v>
   <v>       0.00051713       0.57196189       0.50087632 </v>
   <v>       0.00170165       0.71529803       0.49631643 </v>
   <v>       0.00153828       0.85837132       0.49508272 </v>
   <v>       0.14325406       0.00074342       0.50902166 </v>
   <v>       0.14216056       0.14288979       0.51379498 </v>
   <v>       0.14103125       0.28492403       0.51945879 </v>
   <v>       0.14130083       0.42822755       0.51932266 </v>
   <v>       0.14267502       0.57145809       0.51421672 </v>
   <v>       0.14348617       0.71472500       0.50971783 </v>
   <v>       0.14367707       0.85795322       0.50704698 </v>
   <v>       0.28608153       0.00057353       0.51216550 </v>
   <v>       0.28552838       0.14307152       0.51927094 </v>
   <v>       0.28407977       0.28603794       0.53358138 </v>
   <v>       0.28138491       0.42659078       0.54233080 </v>
   <v>       0.28502782       0.57027144       0.53121944 </v>
   <v>       0.28587467       0.71475182       0.51791864 </v>
   <v>       0.28613126       0.85786052       0.51184903 </v>
   <v>       0.42903448       0.00081516       0.50788287 </v>
   <v>       0.42881824       0.14371162       0.51090104 </v>
   <v>       0.42672582       0.28331450       0.52060969 </v>
   <v>       0.42709808       0.71616116       0.51724687 </v>
   <v>       0.42884228       0.85770229       0.50931818 </v>
   <v>       0.57150143       0.00078384       0.50050318 </v>
   <v>       0.57151746       0.14358359       0.50140277 </v>
   <v>       0.57228308       0.28753228       0.49947717 </v>
   <v>       0.57226437       0.85798613       0.49656407 </v>
   <v>       0.71425146       0.00029152       0.49106346 </v>
   <v>       0.71430018       0.14337786       0.49579628 </v>
   <v>       0.71426915       0.28644905       0.49330161 </v>
   <v>       0.71422511       0.42866508       0.48197698 </v>
   <v>       0.72179094       0.57456994       0.45215931 </v>
   <v>       0.72553051       0.71999143       0.44751634 </v>
   <v>       0.71366734       0.85777688       0.47670131 </v>
   <v>       0.85736319       0.00052499       0.48867266 </v>
   <v>       0.85682929       0.14307054       0.49537175 </v>
   <v>       0.85686964       0.28595014       0.49649071 </v>
   <v>       0.85759609       0.42908336       0.49178788 </v>
   <v>       0.85897435       0.57261570       0.48369722 </v>
   <v>       0.86127921       0.71646481       0.47595235 </v>
   <v>       0.85876787       0.85814216       0.48036422 </v>
   <v>       0.04736053       0.09538797       0.50504078 </v>
   <v>       0.04628886       0.23759371       0.50909781 </v>
   <v>       0.04646763       0.38078249       0.50956313 </v>
   <v>       0.04776989       0.52412537       0.50667068 </v>
   <v>       0.04846563       0.66731186       0.50280423 </v>
   <v>       0.04874791       0.81043200       0.49974070 </v>
   <v>       0.04826202       0.95311300       0.50115934 </v>
   <v>       0.19026225       0.09541125       0.51501028 </v>
   <v>       0.18893693       0.23763771       0.52186014 </v>
   <v>       0.18732646       0.37964088       0.52636890 </v>
   <v>       0.18955893       0.52348149       0.52132023 </v>
   <v>       0.19060988       0.66707324       0.51498676 </v>
   <v>       0.19110958       0.81023711       0.51015395 </v>
   <v>       0.19106105       0.95307497       0.50997986 </v>
   <v>       0.33363814       0.09605036       0.51459601 </v>
   <v>       0.33356752       0.23818836       0.52621369 </v>
   <v>       0.32651680       0.37755848       0.54933977 </v>
   <v>       0.32747170       0.52100992       0.54650063 </v>
   <v>       0.33410527       0.66769026       0.52348367 </v>
   <v>       0.33372684       0.80994935       0.51348129 </v>
   <v>       0.33364313       0.95302139       0.51079410 </v>
   <v>       0.47645928       0.09598680       0.50639375 </v>
   <v>       0.47567048       0.23911449       0.51051663 </v>
   <v>       0.47582184       0.80937348       0.50786193 </v>
   <v>       0.47645686       0.95311846       0.50552066 </v>
   <v>       0.61893661       0.09587224       0.49891346 </v>
   <v>       0.61913397       0.23900749       0.49763828 </v>
   <v>       0.62117870       0.38081631       0.48977192 </v>
   <v>       0.62060625       0.81351033       0.48464383 </v>
   <v>       0.61915103       0.95310930       0.49577803 </v>
   <v>       0.76182861       0.09572646       0.49380473 </v>
   <v>       0.76182979       0.23849267       0.49485240 </v>
   <v>       0.76231813       0.38155805       0.48836198 </v>
   <v>       0.76384007       0.52577009       0.47193878 </v>
   <v>       0.76799416       0.66882527       0.45639810 </v>
   <v>       0.76341272       0.81042941       0.46688850 </v>
   <v>       0.76212127       0.95301405       0.48474442 </v>
   <v>       0.90443856       0.09522185       0.49532716 </v>
   <v>       0.90423285       0.23818331       0.49887165 </v>
   <v>       0.90462299       0.38139072       0.49731865 </v>
   <v>       0.90566166       0.52463185       0.49258347 </v>
   <v>       0.90709588       0.66783418       0.48514074 </v>
   <v>       0.90695467       0.81110686       0.48337847 </v>
   <v>       0.90527698       0.95281557       0.48947275 </v>
   <v>       0.46268543       0.35595446       0.52289861 </v>
   <v>       0.39724040       0.41425700       0.56568430 </v>
   <v>       0.39888084       0.55454315       0.56048802 </v>
   <v>       0.65104095       0.53944511       0.43587991 </v>
   <v>       0.58557885       0.41794233       0.49021311 </v>
   <v>       0.58378948       0.74131417       0.48184684 </v>
   <v>       0.46311768       0.67953252       0.51870382 </v>
   <v>       0.48060816       0.51488175       0.46738209 </v>
   <v>       0.57242669       0.57956250       0.50680363 </v>
   <v>       0.63711201       0.67224569       0.42072127 </v>
   <v>       0.51850113       0.52277991       0.51857769 </v>
  </varray>
  <varray name="selective"  type="logical" >
   <v type="logical" >  T  T  T </v>
   <v type="logical" >  T  T  T </v>
   <v type="logical" >  T  T  T </v>
   <v type="logical" >  T  T  T </v>
   <v type="logical" >  T  T  T </v>
   <v type="logical" >  T  T  T </v>
   <v type="logical" >  T  T  T </v>
   <v type="logical" >  T  T  T </v>
   <v type="logical" >  T  T  T </v>
   <v type="logical" >  T  T  T </v>
   <v type="logical" >  T  T  T </v>
   <v type="logical" >  T  T  T </v>
   <v type="logical" >  T  T  T </v>
   <v type="logical" >  T  T  T </v>
   <v type="logical" >  T  T  T </v>
   <v type="logical" >  T  T  T </v>
   <v type="logical" >  T  T  T </v>
   <v type="logical" >  T  T  T </v>
   <v type="logical" >  T  T  T </v>
   <v type="logical" >  T  T  T </v>
   <v type="logical" >  T  T  T </v>
   <v type="logical" >  T  T  T </v>
   <v type="logical" >  T  T  T </v>
   <v type="logical" >  T  T  T </v>
   <v type="logical" >  T  T  T </v>
   <v type="logical" >  T  T  T </v>
   <v type="logical" >  T  T  T </v>
   <v type="logical" >  T  T  T </v>
   <v type="logical" >  T  T  T </v>
   <v type="logical" >  T  T  T </v>
   <v type="logical" >  T  T  T </v>
   <v type="logical" >  T  T  T </v>
   <v type="logical" >  T  T  T </v>
   <v type="logical" >  T  T  T </v>
   <v type="logical" >  T  T  T </v>
   <v type="logical" >  T  T  T </v>
   <v type="logical" >  T  T  T </v>
   <v type="logical" >  T  T  T </v>
   <v type="logical" >  T  T  T </v>
   <v type="logical" >  T  T  T </v>
   <v type="logical" >  T  T  T </v>
   <v type="logical" >  T  T  T </v>
   <v type="logical" >  T  T  T </v>
   <v type="logical" >  T  T  T </v>
   <v type="logical" >  T  T  T </v>
   <v type="logical" >  T  T  T </v>
   <v type="logical" >  T  T  T </v>
   <v type="logical" >  T  T  T </v>
   <v type="logical" >  T  T  T </v>
   <v type="logical" >  T  T  T </v>
   <v type="logical" >  T  T  T </v>
   <v type="logical" >  T  T  T </v>
   <v type="logical" >  T  T  T </v>
   <v type="logical" >  T  T  T </v>
   <v type="logical" >  T  T  T </v>
   <v type="logical" >  T  T  T </v>
   <v type="logical" >  T  T  T </v>
   <v type="logical" >  T  T  T </v>
   <v type="logical" >  T  T  T </v>
   <v type="logical" >  T  T  T </v>
   <v type="logical" >  T  T  T </v>
   <v type="logical" >  T  T  T </v>
   <v type="logical" >  T  T  T </v>
   <v type="logical" >  T  T  T </v>
   <v type="logical" >  T  T  T </v>
   <v type="logical" >  T  T  T </v>
   <v type="logical" >  T  T  T </v>
   <v type="logical" >  T  T  T </v>
   <v type="logical" >  T  T  T </v>
   <v type="logical" >  T  T  T </v>
   <v type="logical" >  T  T  T </v>
   <v type="logical" >  T  T  T </v>
   <v type="logical" >  T  T  T </v>
   <v type="logical" >  T  T  T </v>
   <v type="logical" >  T  T  T </v>
   <v type="logical" >  T  T  T </v>
   <v type="logical" >  T  T  T </v>
   <v type="logical" >  T  T  T </v>
   <v type="logical" >  T  T  T </v>
   <v type="logical" >  T  T  T </v>
   <v type="logical" >  T  T  T </v>
   <v type="logical" >  T  T  T </v>
   <v type="logical" >  T  T  T </v>
   <v type="logical" >  T  T  T </v>
   <v type="logical" >  T  T  T </v>
   <v type="logical" >  T  T  T </v>
   <v type="logical" >  T  T  T </v>
   <v type="logical" >  T  T  T </v>
   <v type="logical" >  T  T  T </v>
   <v type="logical" >  T  T  T </v>
   <v type="logical" >  T  T  T </v>
   <v type="logical" >  T  T  T </v>
   <v type="logical" >  T  T  T </v>
   <v type="logical" >  T  T  T </v>
   <v type="logical" >  T  T  T </v>
   <v type="logical" >  T  T  T </v>
   <v type="logical" >  T  T  T </v>
   <v type="logical" >  T  T  T </v>
   <v type="logical" >  T  T  T </v>
  </varray>
  <nose>
   <v>      -3.00000000       0.00000000       0.00010000       0.00010000 </v>
  </nose>
 </structure>
</modeling>
