unknown system                          
           1
    17.271038    0.000000    0.000000
    -8.635519   14.957158    0.000000
     0.000000    0.000000   15.000000
   C    H    F    O 
    88     9     1     1
Direct configuration=     1
   0.00023803  0.00040485  0.49951917
   0.99957873  0.14292838  0.50274416
   0.99937638  0.28577987  0.50461343
   0.99985340  0.42891065  0.50339193
   0.00069619  0.57207789  0.50073197
   0.00179607  0.71539381  0.49734881
   0.00156764  0.85840780  0.49660944
   0.14333604  0.00080965  0.50956776
   0.14229019  0.14299783  0.51357598
   0.14120485  0.28505765  0.51850083
   0.14150427  0.42835326  0.51792588
   0.14290016  0.57157835  0.51289606
   0.14365543  0.71481932  0.50925045
   0.14378930  0.85802783  0.50757530
   0.28616740  0.00062200  0.51226801
   0.28561375  0.14313774  0.51912450
   0.28419200  0.28614833  0.53304189
   0.28147161  0.42668744  0.54158533
   0.28517441  0.57032034  0.53008101
   0.28602350  0.71481291  0.51696676
   0.28625271  0.85791884  0.51157849
   0.42914171  0.00088902  0.50798175
   0.42889581  0.14375830  0.51109305
   0.42679681  0.28338260  0.52040054
   0.42720232  0.71622163  0.51676608
   0.42896748  0.85779988  0.50921423
   0.57164573  0.00091388  0.50093923
   0.57163858  0.14366730  0.50193599
   0.57239741  0.28758355  0.50028878
   0.57243085  0.85813300  0.49733330
   0.71439159  0.00042037  0.49178778
   0.71445538  0.14350089  0.49626971
   0.71440592  0.28654371  0.49419794
   0.71433581  0.42875635  0.48347671
   0.72177959  0.57461553  0.45432733
   0.72566066  0.72009493  0.44943026
   0.71382438  0.85788890  0.47828290
   0.85747831  0.00062728  0.48964516
   0.85697277  0.14320286  0.49536010
   0.85702923  0.28607550  0.49638986
   0.85770401  0.42917197  0.49233224
   0.85907424  0.57270253  0.48508641
   0.86124233  0.71646741  0.47808049
   0.85881144  0.85815670  0.48236280
   0.04747120  0.09551430  0.50524299
   0.04645663  0.23774517  0.50831465
   0.04666614  0.38092336  0.50834688
   0.04798402  0.52425122  0.50569137
   0.04861845  0.66741355  0.50291274
   0.04882532  0.81050707  0.50085503
   0.04830620  0.95317429  0.50225056
   0.19035660  0.09549278  0.51504488
   0.18907772  0.23776440  0.52118420
   0.18749936  0.37976075  0.52522442
   0.18974799  0.52357769  0.51995992
   0.19080032  0.66716930  0.51392363
   0.19124326  0.81031349  0.51006392
   0.19114863  0.95314511  0.51041020
   0.33370707  0.09609481  0.51461428
   0.33365519  0.23826739  0.52584737
   0.32655354  0.37762479  0.54893489
   0.32761559  0.52109636  0.54555289
   0.33420666  0.66771122  0.52250151
   0.33384801  0.81000978  0.51295665
   0.33373906  0.95307204  0.51076034
   0.47656423  0.09605794  0.50668869
   0.47575094  0.23914419  0.51080107
   0.47595085  0.80948556  0.50795956
   0.47658770  0.95322565  0.50571173
   0.61908870  0.09599361  0.49941585
   0.61926205  0.23908510  0.49841376
   0.62130372  0.38091023  0.49108282
   0.62082315  0.81362889  0.48623315
   0.61930067  0.95325041  0.49641103
   0.76197096  0.09585307  0.49416101
   0.76198716  0.23861057  0.49532479
   0.76241297  0.38163850  0.48946929
   0.76393303  0.52586221  0.47368181
   0.76795600  0.66883539  0.45859175
   0.76351042  0.81048144  0.46884903
   0.76225992  0.95313557  0.48581371
   0.90457315  0.09535140  0.49557024
   0.90439785  0.23832087  0.49838697
   0.90477443  0.38150717  0.49711176
   0.90579389  0.52471432  0.49320951
   0.90714378  0.66790314  0.48679959
   0.90695698  0.81109055  0.48540562
   0.90534379  0.95287870  0.49087108
   0.46272007  0.35602015  0.52235800
   0.39721086  0.41430727  0.56553126
   0.39905525  0.55457627  0.55932743
   0.65098204  0.53939671  0.43833721
   0.58569081  0.41801970  0.49151339
   0.58412285  0.74140398  0.48429822
   0.46317887  0.67955615  0.51810633
   0.47505398  0.50879975  0.46178653
   0.56755360  0.57821811  0.49668510
   0.63747954  0.67272444  0.42153082
   0.51612615  0.52022439  0.51098893
Direct configuration=     2
   0.00023714  0.00040433  0.49951609
   0.99957753  0.14292725  0.50274406
   0.99937613  0.28577894  0.50461793
   0.99985329  0.42890977  0.50339544
   0.00069627  0.57207877  0.50073146
   0.00179628  0.71539455  0.49734456
   0.00156754  0.85840802  0.49660391
   0.14333599  0.00080950  0.50956666
   0.14229031  0.14299739  0.51357673
   0.14120480  0.28505736  0.51850307
   0.14150368  0.42835304  0.51793130
   0.14290060  0.57157885  0.51290178
   0.14365546  0.71482054  0.50925234
   0.14378927  0.85802720  0.50757269
   0.28616748  0.00062123  0.51226779
   0.28561269  0.14313694  0.51912593
   0.28419153  0.28614828  0.53304708
   0.28147148  0.42668791  0.54158733
   0.28517473  0.57032000  0.53008695
   0.28602400  0.71481404  0.51697106
   0.28625276  0.85791904  0.51158018
   0.42914166  0.00088839  0.50798227
   0.42889636  0.14375840  0.51109294
   0.42679685  0.28338268  0.52040177
   0.42720215  0.71622201  0.51676901
   0.42896713  0.85780031  0.50921496
   0.57164522  0.00091375  0.50093816
   0.57163853  0.14366578  0.50193505
   0.57239746  0.28758312  0.50028620
   0.57242854  0.85813294  0.49732989
   0.71439029  0.00042021  0.49178465
   0.71445513  0.14349961  0.49626995
   0.71440677  0.28654251  0.49419556
   0.71433643  0.42875691  0.48347112
   0.72177910  0.57461698  0.45431844
   0.72566125  0.72009582  0.44941776
   0.71382346  0.85788895  0.47827398
   0.85747683  0.00062609  0.48964435
   0.85697275  0.14320247  0.49536055
   0.85702865  0.28607404  0.49639068
   0.85770312  0.42916991  0.49232848
   0.85907483  0.57270173  0.48508201
   0.86123947  0.71646469  0.47807461
   0.85881046  0.85815589  0.48235706
   0.04747121  0.09551375  0.50524231
   0.04645650  0.23774437  0.50831748
   0.04666568  0.38092284  0.50835021
   0.04798290  0.52425093  0.50569415
   0.04861704  0.66741208  0.50291243
   0.04882546  0.81050764  0.50085098
   0.04830587  0.95317509  0.50224659
   0.19035709  0.09549279  0.51504566
   0.18907647  0.23776305  0.52118698
   0.18749776  0.37975902  0.52522921
   0.18974616  0.52357653  0.51996627
   0.19079939  0.66716884  0.51392832
   0.19124178  0.81031359  0.51006377
   0.19114723  0.95314539  0.51040823
   0.33370778  0.09609483  0.51461477
   0.33365552  0.23826755  0.52585107
   0.32655227  0.37762358  0.54893840
   0.32761296  0.52109590  0.54555831
   0.33420793  0.66771222  0.52250609
   0.33384743  0.81000948  0.51295991
   0.33373820  0.95307191  0.51076045
   0.47656398  0.09605857  0.50668809
   0.47575118  0.23914495  0.51080091
   0.47595049  0.80948509  0.50795771
   0.47658742  0.95322557  0.50571114
   0.61908878  0.09599411  0.49941558
   0.61926170  0.23908606  0.49841157
   0.62130337  0.38090884  0.49107963
   0.62082396  0.81362780  0.48622180
   0.61929918  0.95324937  0.49640820
   0.76197132  0.09585330  0.49416163
   0.76198744  0.23861124  0.49532513
   0.76241316  0.38163867  0.48946383
   0.76393282  0.52586118  0.47367469
   0.76795494  0.66883312  0.45858384
   0.76351173  0.81048192  0.46884128
   0.76226018  0.95313521  0.48581081
   0.90457355  0.09535016  0.49557091
   0.90439833  0.23832160  0.49838945
   0.90477504  0.38150787  0.49711203
   0.90579306  0.52471314  0.49320534
   0.90714273  0.66790092  0.48679497
   0.90695594  0.81108992  0.48539979
   0.90534435  0.95287782  0.49087066
   0.46272042  0.35602049  0.52236142
   0.39720980  0.41430705  0.56553587
   0.39905423  0.55457727  0.55933577
   0.65098114  0.53939494  0.43832774
   0.58569051  0.41801976  0.49151144
   0.58412239  0.74140466  0.48428600
   0.46317850  0.67955593  0.51811000
   0.47506693  0.50881601  0.46180761
   0.56756790  0.57822566  0.49670865
   0.63748268  0.67272870  0.42151128
   0.51613253  0.52022927  0.51100695
Direct configuration=     3
   0.00023664  0.00040401  0.49951176
   0.99957729  0.14292604  0.50274433
   0.99937603  0.28577812  0.50462457
   0.99985254  0.42890906  0.50340055
   0.00069493  0.57207798  0.50073067
   0.00179551  0.71539435  0.49733820
   0.00156694  0.85840843  0.49659552
   0.14333523  0.00080966  0.50956478
   0.14228993  0.14299635  0.51357793
   0.14120394  0.28505588  0.51850675
   0.14150206  0.42835187  0.51793956
   0.14289939  0.57157840  0.51291034
   0.14365418  0.71482047  0.50925520
   0.14378844  0.85802735  0.50756873
   0.28616672  0.00062073  0.51226741
   0.28561330  0.14313691  0.51912790
   0.28418991  0.28614653  0.53305329
   0.28146992  0.42668686  0.54159093
   0.28517338  0.57032023  0.53009576
   0.28602368  0.71481427  0.51697779
   0.28625169  0.85791864  0.51158272
   0.42914132  0.00088846  0.50798296
   0.42889733  0.14375972  0.51109343
   0.42679733  0.28338331  0.52040333
   0.42720243  0.71622208  0.51677334
   0.42896649  0.85780019  0.50921601
   0.57164454  0.00091371  0.50093654
   0.57163866  0.14366602  0.50193364
   0.57239703  0.28758274  0.50028243
   0.57242695  0.85813129  0.49732507
   0.71438931  0.00041956  0.49178007
   0.71445527  0.14349951  0.49627043
   0.71440691  0.28654234  0.49419183
   0.71433668  0.42875688  0.48346309
   0.72177789  0.57461550  0.45430497
   0.72566294  0.72009731  0.44939886
   0.71382331  0.85788878  0.47826033
   0.85747621  0.00062442  0.48964331
   0.85697313  0.14320314  0.49536159
   0.85702859  0.28607374  0.49639206
   0.85770268  0.42916884  0.49232250
   0.85907428  0.57269941  0.48507483
   0.86123737  0.71646176  0.47806589
   0.85881046  0.85815544  0.48234880
   0.04747075  0.09551300  0.50524118
   0.04645583  0.23774314  0.50832049
   0.04666520  0.38092178  0.50835580
   0.04798237  0.52425088  0.50569863
   0.04861642  0.66741229  0.50291190
   0.04882547  0.81050809  0.50084468
   0.04830538  0.95317535  0.50224059
   0.19035747  0.09549236  0.51504560
   0.18907558  0.23776189  0.52119136
   0.18749658  0.37975792  0.52523635
   0.18974507  0.52357588  0.51997608
   0.19079929  0.66716967  0.51393554
   0.19124125  0.81031400  0.51006374
   0.19114646  0.95314508  0.51040539
   0.33370826  0.09609416  0.51461551
   0.33365529  0.23826737  0.52585666
   0.32655113  0.37762348  0.54894408
   0.32761208  0.52109574  0.54556662
   0.33420851  0.66771292  0.52251329
   0.33384703  0.81000991  0.51296479
   0.33374023  0.95307304  0.51076019
   0.47656414  0.09605803  0.50668780
   0.47575122  0.23914519  0.51080057
   0.47594821  0.80948388  0.50795640
   0.47658702  0.95322538  0.50571037
   0.61908883  0.09599340  0.49941511
   0.61926168  0.23908526  0.49840823
   0.62130316  0.38090818  0.49107449
   0.62082313  0.81362819  0.48620523
   0.61929703  0.95324851  0.49640391
   0.76197117  0.09585261  0.49416228
   0.76198730  0.23860985  0.49532551
   0.76241313  0.38163777  0.48945570
   0.76393240  0.52586114  0.47366358
   0.76795287  0.66883193  0.45857112
   0.76351192  0.81048179  0.46882870
   0.76225903  0.95313503  0.48580612
   0.90457260  0.09534848  0.49557229
   0.90439824  0.23832079  0.49839320
   0.90477676  0.38150807  0.49711210
   0.90579272  0.52471169  0.49319923
   0.90714187  0.66790016  0.48678906
   0.90695422  0.81108795  0.48539071
   0.90534332  0.95287625  0.49086930
   0.46272076  0.35602076  0.52236652
   0.39720794  0.41430646  0.56554265
   0.39905150  0.55457810  0.55934798
   0.65097995  0.53939258  0.43831334
   0.58569028  0.41801936  0.49150851
   0.58412123  0.74140453  0.48426749
   0.46317784  0.67955570  0.51811552
   0.47508370  0.50883975  0.46183589
   0.56758617  0.57823325  0.49674526
   0.63748663  0.67273382  0.42148364
   0.51614943  0.52024241  0.51103623
Direct configuration=     4
   0.00023649  0.00040389  0.49950634
   0.99957772  0.14292485  0.50274513
   0.99937599  0.28577734  0.50463310
   0.99985211  0.42890899  0.50340719
   0.00069291  0.57207597  0.50072966
   0.00179406  0.71539359  0.49732994
   0.00156428  0.85840784  0.49658489
   0.14333409  0.00080992  0.50956175
   0.14228918  0.14299487  0.51357953
   0.14120246  0.28505363  0.51851219
   0.14150003  0.42835004  0.51795092
   0.14289703  0.57157750  0.51292190
   0.14365221  0.71481945  0.50925911
   0.14378722  0.85802842  0.50756338
   0.28616588  0.00062075  0.51226676
   0.28561567  0.14313752  0.51913054
   0.28418786  0.28614403  0.53306077
   0.28146776  0.42668507  0.54159698
   0.28517094  0.57032112  0.53010780
   0.28602290  0.71481385  0.51698721
   0.28625040  0.85791843  0.51158604
   0.42914147  0.00088940  0.50798366
   0.42889795  0.14376047  0.51109315
   0.42679786  0.28338426  0.52040562
   0.42720274  0.71622172  0.51677916
   0.42896558  0.85779969  0.50921739
   0.57164370  0.00091355  0.50093431
   0.57163902  0.14366742  0.50193177
   0.57239651  0.28758245  0.50027745
   0.57242630  0.85812861  0.49731809
   0.71438844  0.00041851  0.49177420
   0.71445567  0.14349999  0.49627121
   0.71440625  0.28654271  0.49418659
   0.71433620  0.42875597  0.48345215
   0.72177601  0.57461130  0.45428643
   0.72566507  0.72009914  0.44937303
   0.71382476  0.85788844  0.47824291
   0.85747617  0.00062267  0.48964210
   0.85697355  0.14320368  0.49536345
   0.85702946  0.28607453  0.49639410
   0.85770223  0.42916711  0.49231470
   0.85907270  0.57269669  0.48506441
   0.86123631  0.71645958  0.47805400
   0.85881101  0.85815495  0.48233792
   0.04747015  0.09551211  0.50523955
   0.04645488  0.23774153  0.50832390
   0.04666456  0.38092037  0.50836419
   0.04798223  0.52425096  0.50570499
   0.04861621  0.66741378  0.50291096
   0.04882487  0.81050829  0.50083583
   0.04830481  0.95317505  0.50223248
   0.19035766  0.09549175  0.51504487
   0.18907511  0.23776078  0.52119734
   0.18749548  0.37975725  0.52524556
   0.18974344  0.52357286  0.51998851
   0.19079819  0.66717022  0.51394449
   0.19124156  0.81031462  0.51006394
   0.19114647  0.95314451  0.51040172
   0.33370600  0.09609317  0.51461712
   0.33365491  0.23826692  0.52586393
   0.32655029  0.37762433  0.54895055
   0.32761212  0.52109554  0.54557776
   0.33420772  0.66771298  0.52252337
   0.33384665  0.81001089  0.51297129
   0.33374010  0.95307349  0.51076105
   0.47656497  0.09605730  0.50668784
   0.47575136  0.23914538  0.51079997
   0.47594662  0.80948387  0.50795456
   0.47658652  0.95322517  0.50570950
   0.61908893  0.09599216  0.49941434
   0.61926172  0.23908167  0.49840424
   0.62130348  0.38090865  0.49106719
   0.62082040  0.81362968  0.48618348
   0.61929496  0.95324779  0.49639815
   0.76197139  0.09585113  0.49416153
   0.76198712  0.23860748  0.49532578
   0.76241292  0.38163608  0.48944489
   0.76393195  0.52586167  0.47364843
   0.76795048  0.66883188  0.45855305
   0.76351146  0.81048347  0.46881217
   0.76225683  0.95313460  0.48579917
   0.90457076  0.09534691  0.49557426
   0.90439784  0.23831907  0.49839829
   0.90477556  0.38150536  0.49711276
   0.90579268  0.52470993  0.49319115
   0.90714110  0.66790015  0.48678136
   0.90695259  0.81108504  0.48537817
   0.90534112  0.95287436  0.49086638
   0.46272128  0.35602119  0.52237319
   0.39720564  0.41430573  0.56555160
   0.39904763  0.55457892  0.55936408
   0.65097868  0.53938975  0.43829379
   0.58569035  0.41801856  0.49150457
   0.58411952  0.74140380  0.48424250
   0.46317729  0.67955555  0.51812287
   0.47510587  0.50887163  0.46187288
   0.56761063  0.57824323  0.49679463
   0.63749183  0.67274023  0.42145050
   0.51617283  0.52026087  0.51107687
Direct configuration=     5
   0.00023588  0.00040343  0.49949988
   0.99957721  0.14292343  0.50274651
   0.99937525  0.28577592  0.50464321
   0.99985188  0.42890867  0.50341539
   0.00069164  0.57207463  0.50072859
   0.00179267  0.71539331  0.49732005
   0.00156068  0.85840599  0.49657182
   0.14333319  0.00080965  0.50955715
   0.14228845  0.14299327  0.51358147
   0.14120096  0.28505167  0.51851974
   0.14149751  0.42834661  0.51796432
   0.14289487  0.57157647  0.51293657
   0.14365059  0.71481890  0.50926406
   0.14378613  0.85802942  0.50755661
   0.28616497  0.00062078  0.51226587
   0.28561402  0.14313649  0.51913488
   0.28418659  0.28614275  0.53307000
   0.28146721  0.42668498  0.54160508
   0.28516854  0.57032124  0.53012369
   0.28602178  0.71481370  0.51699948
   0.28624964  0.85791911  0.51159019
   0.42914190  0.00089014  0.50798440
   0.42889730  0.14375939  0.51109232
   0.42679773  0.28338499  0.52040912
   0.42720222  0.71622144  0.51678650
   0.42896443  0.85779945  0.50921910
   0.57164268  0.00091282  0.50093144
   0.57163951  0.14366730  0.50192955
   0.57239660  0.28758184  0.50027124
   0.57242557  0.85812695  0.49730825
   0.71438677  0.00041718  0.49176710
   0.71445589  0.14349915  0.49627217
   0.71440533  0.28654165  0.49417978
   0.71433526  0.42875480  0.48343908
   0.72177602  0.57460781  0.45426363
   0.72566692  0.72010185  0.44934012
   0.71382592  0.85788969  0.47822318
   0.85747505  0.00062122  0.48964061
   0.85697305  0.14320249  0.49536626
   0.85703012  0.28607404  0.49639691
   0.85770175  0.42916431  0.49230499
   0.85907313  0.57269744  0.48505038
   0.86123309  0.71645692  0.47803932
   0.85881054  0.85815374  0.48232407
   0.04746973  0.09551094  0.50523748
   0.04645396  0.23773962  0.50832822
   0.04666300  0.38091812  0.50837450
   0.04798133  0.52425053  0.50571338
   0.04861482  0.66741420  0.50290935
   0.04882279  0.81050816  0.50082416
   0.04830362  0.95317422  0.50222228
   0.19035800  0.09549168  0.51504520
   0.18907432  0.23775907  0.52120484
   0.18749336  0.37975561  0.52525662
   0.18974061  0.52356919  0.52000383
   0.19079565  0.66716934  0.51395555
   0.19124111  0.81031487  0.51006444
   0.19114640  0.95314444  0.51039722
   0.33370665  0.09609390  0.51461738
   0.33365532  0.23826674  0.52587254
   0.32654866  0.37762386  0.54895766
   0.32761030  0.52109488  0.54559143
   0.33420561  0.66771255  0.52253656
   0.33384577  0.81001137  0.51297942
   0.33373830  0.95307197  0.51076169
   0.47656424  0.09605729  0.50668681
   0.47575168  0.23914586  0.51079896
   0.47594600  0.80948381  0.50795254
   0.47658552  0.95322502  0.50570862
   0.61908898  0.09599166  0.49941320
   0.61926200  0.23908045  0.49839870
   0.62130404  0.38090917  0.49105763
   0.62081764  0.81362947  0.48615742
   0.61929365  0.95324683  0.49639092
   0.76197105  0.09585004  0.49416068
   0.76198731  0.23860660  0.49532572
   0.76241315  0.38163305  0.48943284
   0.76393135  0.52586084  0.47362941
   0.76794858  0.66883143  0.45852913
   0.76351166  0.81048616  0.46879078
   0.76225513  0.95313320  0.48578960
   0.90456951  0.09534477  0.49557545
   0.90439780  0.23831809  0.49840490
   0.90477525  0.38150374  0.49711303
   0.90579193  0.52470766  0.49318098
   0.90713955  0.66789884  0.48677115
   0.90695125  0.81108217  0.48536205
   0.90533928  0.95287262  0.49086142
   0.46272202  0.35602198  0.52238131
   0.39720333  0.41430517  0.56556269
   0.39904388  0.55458015  0.55938423
   0.65097712  0.53938619  0.43826893
   0.58569054  0.41801772  0.49149954
   0.58411748  0.74140337  0.48421088
   0.46317714  0.67955535  0.51813201
   0.47513617  0.50891246  0.46192165
   0.56764474  0.57825952  0.49685579
   0.63749798  0.67274734  0.42141413
   0.51619732  0.52028053  0.51112796
Direct configuration=     6
   0.00023426  0.00040209  0.49949237
   0.99957528  0.14292147  0.50274846
   0.99937353  0.28577350  0.50465459
   0.99985113  0.42890717  0.50342361
   0.00069115  0.57207459  0.50072749
   0.00179139  0.71539365  0.49730864
   0.00156122  0.85840608  0.49655717
   0.14333253  0.00080847  0.50955062
   0.14228793  0.14299205  0.51358385
   0.14119983  0.28505022  0.51852963
   0.14149463  0.42834229  0.51798003
   0.14289371  0.57157444  0.51295294
   0.14364930  0.71481926  0.50926993
   0.14378493  0.85802912  0.50754838
   0.28616461  0.00062079  0.51226464
   0.28561363  0.14313682  0.51913853
   0.28418653  0.28614302  0.53308118
   0.28146745  0.42668622  0.54161586
   0.28516597  0.57031952  0.53014373
   0.28601975  0.71481400  0.51701476
   0.28624906  0.85791983  0.51159519
   0.42914122  0.00088964  0.50798509
   0.42889639  0.14375864  0.51109248
   0.42679739  0.28338518  0.52041421
   0.42720040  0.71622136  0.51679547
   0.42896314  0.85779951  0.50922123
   0.57164159  0.00091150  0.50092793
   0.57163944  0.14366503  0.50192700
   0.57239737  0.28758109  0.50026382
   0.57242409  0.85812681  0.49729489
   0.71438440  0.00041570  0.49175876
   0.71445582  0.14349700  0.49627317
   0.71440503  0.28653863  0.49417141
   0.71433504  0.42875335  0.48342327
   0.72177658  0.57460663  0.45423565
   0.72566895  0.72010616  0.44930074
   0.71382435  0.85789148  0.47820070
   0.85747228  0.00061974  0.48963842
   0.85697165  0.14319948  0.49537007
   0.85702952  0.28607211  0.49639923
   0.85770105  0.42916069  0.49229488
   0.85907489  0.57269965  0.48503259
   0.86122676  0.71645553  0.47802224
   0.85880856  0.85815191  0.48230692
   0.04746950  0.09550953  0.50523512
   0.04645308  0.23773754  0.50833409
   0.04666037  0.38091549  0.50838735
   0.04797931  0.52424930  0.50572394
   0.04861189  0.66741259  0.50290695
   0.04882177  0.81050969  0.50081177
   0.04830091  0.95317257  0.50221228
   0.19035727  0.09549114  0.51504517
   0.18907195  0.23775669  0.52121236
   0.18749065  0.37975247  0.52526958
   0.18973770  0.52356719  0.52002106
   0.19079241  0.66716714  0.51396926
   0.19123890  0.81031462  0.51006532
   0.19114553  0.95314528  0.51039178
   0.33370902  0.09609535  0.51461652
   0.33365571  0.23826655  0.52588235
   0.32654655  0.37762188  0.54896583
   0.32760608  0.52109402  0.54560789
   0.33420384  0.66771237  0.52255176
   0.33384429  0.81001083  0.51298916
   0.33373896  0.95307287  0.51076229
   0.47656453  0.09605862  0.50668602
   0.47575193  0.23914638  0.51079752
   0.47594407  0.80948104  0.50795203
   0.47658420  0.95322499  0.50570773
   0.61908875  0.09599170  0.49941167
   0.61926181  0.23908208  0.49839152
   0.62130181  0.38090390  0.49104652
   0.62081742  0.81362704  0.48612807
   0.61929304  0.95324554  0.49638226
   0.76196997  0.09584918  0.49415982
   0.76198779  0.23860733  0.49532524
   0.76241298  0.38162991  0.48941935
   0.76393136  0.52585813  0.47360686
   0.76794760  0.66882979  0.45849912
   0.76351311  0.81048832  0.46876370
   0.76225469  0.95313163  0.48577761
   0.90456926  0.09534258  0.49557613
   0.90439783  0.23831750  0.49841316
   0.90477651  0.38150384  0.49711301
   0.90579033  0.52470562  0.49316860
   0.90713708  0.66789646  0.48675773
   0.90694913  0.81107967  0.48534233
   0.90533856  0.95287119  0.49085411
   0.46272286  0.35602306  0.52239077
   0.39720104  0.41430470  0.56557574
   0.39904068  0.55458184  0.55940833
   0.65097604  0.53938222  0.43823924
   0.58569068  0.41801715  0.49149337
   0.58411506  0.74140336  0.48417260
   0.46317735  0.67955519  0.51814290
   0.47517453  0.50896166  0.46198214
   0.56768791  0.57828178  0.49692765
   0.63749970  0.67275258  0.42137489
   0.51622305  0.52030176  0.51118913
Direct configuration=     7
   0.00023061  0.00039880  0.49948466
   0.99957322  0.14291877  0.50275130
   0.99937108  0.28577000  0.50466872
   0.99984984  0.42890489  0.50343322
   0.00068962  0.57207409  0.50072619
   0.00178911  0.71539386  0.49729415
   0.00156365  0.85840734  0.49653832
   0.14333099  0.00080695  0.50954109
   0.14228694  0.14299095  0.51358688
   0.14119836  0.28504780  0.51854325
   0.14149097  0.42833815  0.51800058
   0.14289197  0.57157100  0.51297325
   0.14364726  0.71481742  0.50927568
   0.14378338  0.85802801  0.50753771
   0.28616555  0.00062189  0.51226263
   0.28561543  0.14313853  0.51914181
   0.28418594  0.28614250  0.53309540
   0.28146628  0.42668582  0.54162960
   0.28516057  0.57031459  0.53016697
   0.28601594  0.71481352  0.51703545
   0.28624870  0.85791972  0.51160001
   0.42913994  0.00088942  0.50798574
   0.42889744  0.14376061  0.51109343
   0.42679840  0.28338524  0.52042204
   0.42719722  0.71621974  0.51680767
   0.42896155  0.85779872  0.50922443
   0.57164048  0.00091007  0.50092334
   0.57163877  0.14366349  0.50192369
   0.57239684  0.28757885  0.50025432
   0.57242067  0.85812537  0.49727734
   0.71438293  0.00041415  0.49174780
   0.71445559  0.14349553  0.49627409
   0.71440500  0.28653493  0.49416021
   0.71433539  0.42874967  0.48340184
   0.72177654  0.57460605  0.45419757
   0.72567117  0.72011121  0.44924931
   0.71382073  0.85789176  0.47817106
   0.85746934  0.00061731  0.48963429
   0.85697033  0.14319589  0.49537553
   0.85702857  0.28607011  0.49640158
   0.85770068  0.42915798  0.49228282
   0.85907491  0.57269913  0.48501086
   0.86121976  0.71645423  0.47799926
   0.85880647  0.85815051  0.48228342
   0.04746872  0.09550774  0.50523237
   0.04645160  0.23773510  0.50834326
   0.04665704  0.38091217  0.50840516
   0.04797680  0.52424719  0.50573816
   0.04860857  0.66741062  0.50290338
   0.04882218  0.81051079  0.50079863
   0.04829827  0.95317065  0.50220107
   0.19035566  0.09548941  0.51504473
   0.18906948  0.23775462  0.52122145
   0.18748904  0.37974891  0.52528675
   0.18973619  0.52356690  0.52004177
   0.19078942  0.66716493  0.51398824
   0.19123572  0.81031433  0.51006685
   0.19114424  0.95314618  0.51038434
   0.33370606  0.09609472  0.51461750
   0.33365524  0.23826626  0.52589453
   0.32654554  0.37762087  0.54897738
   0.32760171  0.52109333  0.54563085
   0.33420190  0.66771209  0.52257192
   0.33384216  0.81000996  0.51300191
   0.33373780  0.95307264  0.51076309
   0.47656577  0.09605942  0.50668541
   0.47575146  0.23914652  0.51079566
   0.47594373  0.80947998  0.50795101
   0.47658307  0.95322451  0.50570668
   0.61908824  0.09599040  0.49940948
   0.61926053  0.23908058  0.49838248
   0.62130177  0.38090204  0.49103098
   0.62081869  0.81362741  0.48609296
   0.61929312  0.95324272  0.49637179
   0.76196795  0.09584707  0.49415894
   0.76198794  0.23860658  0.49532402
   0.76241271  0.38162957  0.48940276
   0.76393294  0.52585535  0.47358064
   0.76794574  0.66883027  0.45845895
   0.76351450  0.81048926  0.46872583
   0.76225409  0.95313153  0.48576185
   0.90456850  0.09534151  0.49557844
   0.90439614  0.23831468  0.49842417
   0.90477836  0.38150369  0.49711261
   0.90578884  0.52470450  0.49315234
   0.90713410  0.66789639  0.48673822
   0.90694660  0.81107803  0.48531837
   0.90533756  0.95286966  0.49084267
   0.46272366  0.35602407  0.52240276
   0.39719831  0.41430388  0.56559217
   0.39903664  0.55458365  0.55943930
   0.65097652  0.53937807  0.43820079
   0.58569115  0.41801586  0.49148509
   0.58411162  0.74140257  0.48412219
   0.46317739  0.67955553  0.51815702
   0.47522435  0.50902518  0.46206026
   0.56774177  0.57830808  0.49702098
   0.63749703  0.67275627  0.42132538
   0.51625950  0.52033283  0.51126823
Direct configuration=     8
   0.00022696  0.00039549  0.49947655
   0.99957267  0.14291610  0.50275516
   0.99936798  0.28576558  0.50468599
   0.99984874  0.42890304  0.50344509
   0.00068556  0.57207088  0.50072436
   0.00178557  0.71539449  0.49728059
   0.00156175  0.85840527  0.49651659
   0.14332804  0.00080648  0.50952846
   0.14228458  0.14298874  0.51359014
   0.14119820  0.28504383  0.51855915
   0.14148772  0.42833609  0.51802685
   0.14288764  0.57156773  0.51299799
   0.14364270  0.71481321  0.50928149
   0.14378269  0.85802861  0.50752513
   0.28616428  0.00062265  0.51225952
   0.28561486  0.14313895  0.51914480
   0.28418291  0.28613930  0.53311210
   0.28146533  0.42668391  0.54164611
   0.28515483  0.57031230  0.53019357
   0.28601138  0.71481134  0.51706229
   0.28624572  0.85791790  0.51160483
   0.42913890  0.00089028  0.50798618
   0.42889751  0.14376162  0.51109250
   0.42679990  0.28338596  0.52043311
   0.42719424  0.71621685  0.51682323
   0.42895997  0.85779639  0.50922898
   0.57164016  0.00090804  0.50091744
   0.57163833  0.14366383  0.50191919
   0.57239472  0.28757667  0.50024203
   0.57241771  0.85812039  0.49725453
   0.71438344  0.00041267  0.49173360
   0.71445462  0.14349513  0.49627430
   0.71440430  0.28653386  0.49414571
   0.71433556  0.42874587  0.48337299
   0.72177244  0.57460289  0.45415021
   0.72567249  0.72011099  0.44918858
   0.71382041  0.85789064  0.47813116
   0.85746857  0.00061504  0.48962647
   0.85696852  0.14319329  0.49538271
   0.85702904  0.28606939  0.49640424
   0.85770140  0.42915870  0.49226792
   0.85906664  0.57269255  0.48498498
   0.86121610  0.71645294  0.47796743
   0.85880541  0.85815082  0.48225359
   0.04746591  0.09550453  0.50522954
   0.04645202  0.23773565  0.50835521
   0.04665396  0.38090954  0.50842656
   0.04797461  0.52424460  0.50575569
   0.04860608  0.66741038  0.50289821
   0.04882267  0.81050926  0.50078346
   0.04829736  0.95316975  0.50218770
   0.19035524  0.09548814  0.51504582
   0.18906946  0.23775383  0.52123311
   0.18748832  0.37974672  0.52530856
   0.18973259  0.52356272  0.52006459
   0.19078626  0.66716278  0.51401318
   0.19123401  0.81031292  0.51006869
   0.19114606  0.95314660  0.51037630
   0.33370726  0.09609565  0.51461717
   0.33365570  0.23826728  0.52590870
   0.32654589  0.37762246  0.54899317
   0.32759663  0.52109135  0.54565728
   0.33419752  0.66770958  0.52259854
   0.33383976  0.81000801  0.51301554
   0.33373953  0.95307526  0.51076408
   0.47656542  0.09605841  0.50668487
   0.47575110  0.23914667  0.51079360
   0.47594315  0.80948058  0.50794913
   0.47658193  0.95322302  0.50570515
   0.61908737  0.09598701  0.49940621
   0.61926096  0.23907350  0.49837241
   0.62130441  0.38090375  0.49100997
   0.62081436  0.81362906  0.48605182
   0.61929092  0.95323926  0.49635881
   0.76196651  0.09584402  0.49416022
   0.76198718  0.23860219  0.49532132
   0.76241249  0.38162794  0.48938230
   0.76393294  0.52585507  0.47354802
   0.76794055  0.66883194  0.45840536
   0.76351291  0.81049047  0.46867663
   0.76225189  0.95313240  0.48574166
   0.90456538  0.09533747  0.49558041
   0.90439156  0.23830832  0.49843762
   0.90477275  0.38149712  0.49711282