  97  97   0   0
  0.3994726E+02  0.1727104E-08  0.1727104E-08  0.1500000E-08  0.0000000E+00
  1.000000000000000E-004
  CAR 
 unknown system                          
      5.77928354    -25.25365338  301     -2.49440795      1.00000000
    -25.254  0.0000E+00  0.0000E+00  0.0000E+00  0.0000E+00
    -25.150  0.0000E+00  0.0000E+00  0.0000E+00  0.0000E+00
    -25.047  0.0000E+00  0.0000E+00  0.0000E+00  0.0000E+00
    -24.943  0.0000E+00  0.0000E+00  0.0000E+00  0.0000E+00
    -24.840  0.0000E+00  0.0000E+00  0.0000E+00  0.0000E+00
    -24.736  0.0000E+00  0.0000E+00  0.0000E+00  0.0000E+00
    -24.633  0.0000E+00  0.0000E+00  0.0000E+00  0.0000E+00
    -24.530  0.0000E+00  0.0000E+00  0.0000E+00  0.0000E+00
    -24.426  0.0000E+00  0.0000E+00  0.0000E+00  0.0000E+00
    -24.323  0.0000E+00  0.0000E+00  0.0000E+00  0.0000E+00
    -24.219  0.0000E+00  0.0000E+00  0.0000E+00  0.0000E+00
    -24.116  0.1968E-15  0.1968E-15  0.2035E-16  0.2035E-16
    -24.012  0.2710E-07  0.2710E-07  0.2803E-08  0.2803E-08
    -23.909  0.1007E-02  0.1007E-02  0.1042E-03  0.1042E-03
    -23.805  0.2658E-01  0.2658E-01  0.2854E-02  0.2854E-02
    -23.702  0.4633E-02  0.4633E-02  0.3333E-02  0.3333E-02
    -23.599  0.1069E-05  0.1069E-05  0.3333E-02  0.3333E-02
    -23.495  0.7542E-13  0.7542E-13  0.3333E-02  0.3333E-02
    -23.392  0.0000E+00  0.0000E+00  0.3333E-02  0.3333E-02
    -23.288  0.0000E+00  0.0000E+00  0.3333E-02  0.3333E-02
    -23.185  0.0000E+00  0.0000E+00  0.3333E-02  0.3333E-02
    -23.081  0.0000E+00  0.0000E+00  0.3333E-02  0.3333E-02
    -22.978  0.0000E+00  0.0000E+00  0.3333E-02  0.3333E-02
    -22.874  0.0000E+00  0.0000E+00  0.3333E-02  0.3333E-02
    -22.771  0.0000E+00  0.0000E+00  0.3333E-02  0.3333E-02
    -22.668  0.0000E+00  0.0000E+00  0.3333E-02  0.3333E-02
    -22.564  0.2660E-11  0.2660E-11  0.3333E-02  0.3333E-02
    -22.461  0.8181E-05  0.8181E-05  0.3334E-02  0.3334E-02
    -22.357  0.1019E-01  0.1019E-01  0.4388E-02  0.4388E-02
    -22.254  0.4908E-01  0.4908E-01  0.9465E-02  0.9465E-02
    -22.150  0.5170E-02  0.5170E-02  0.1000E-01  0.1000E-01
    -22.047  0.1295E-05  0.1295E-05  0.1000E-01  0.1000E-01
    -21.943  0.4031E-10  0.4031E-10  0.1000E-01  0.1000E-01
    -21.840  0.2063E-04  0.2063E-04  0.1000E-01  0.1000E-01
    -21.737  0.5919E-02  0.5919E-02  0.1061E-01  0.1061E-01
    -21.633  0.3058E-01  0.3058E-01  0.1378E-01  0.1378E-01
    -21.530  0.1476E-01  0.1476E-01  0.1530E-01  0.1530E-01
    -21.426  0.1267E-01  0.1267E-01  0.1661E-01  0.1661E-01
    -21.323  0.3186E-01  0.3186E-01  0.1991E-01  0.1991E-01
    -21.219  0.1353E-01  0.1353E-01  0.2131E-01  0.2131E-01
    -21.116  0.2557E-01  0.2557E-01  0.2396E-01  0.2396E-01
    -21.012  0.7414E-02  0.7414E-02  0.2472E-01  0.2472E-01
    -20.909  0.3953E-01  0.3953E-01  0.2881E-01  0.2881E-01
    -20.806  0.3027E-01  0.3027E-01  0.3194E-01  0.3194E-01
    -20.702  0.5382E-02  0.5382E-02  0.3250E-01  0.3250E-01
    -20.599  0.8264E-02  0.8264E-02  0.3335E-01  0.3335E-01
    -20.495  0.1850E-01  0.1850E-01  0.3527E-01  0.3527E-01
    -20.392  0.2881E-01  0.2881E-01  0.3825E-01  0.3825E-01
    -20.288  0.4804E-01  0.4804E-01  0.4322E-01  0.4322E-01
    -20.185  0.1742E-01  0.1742E-01  0.4502E-01  0.4502E-01
    -20.081  0.1937E-01  0.1937E-01  0.4702E-01  0.4702E-01
    -19.978  0.1304E-01  0.1304E-01  0.4837E-01  0.4837E-01
    -19.875  0.1884E-01  0.1884E-01  0.5032E-01  0.5032E-01
    -19.771  0.1412E-01  0.1412E-01  0.5178E-01  0.5178E-01
    -19.668  0.3001E-01  0.3001E-01  0.5489E-01  0.5489E-01
    -19.564  0.3639E-01  0.3639E-01  0.5865E-01  0.5865E-01
    -19.461  0.3405E-01  0.3405E-01  0.6217E-01  0.6217E-01
    -19.357  0.1786E-01  0.1786E-01  0.6402E-01  0.6402E-01
    -19.254  0.2173E-01  0.2173E-01  0.6627E-01  0.6627E-01
    -19.151  0.4632E-02  0.4632E-02  0.6675E-01  0.6675E-01
    -19.047  0.2129E-01  0.2129E-01  0.6895E-01  0.6895E-01
    -18.944  0.2723E-01  0.2723E-01  0.7177E-01  0.7177E-01
    -18.840  0.2342E-01  0.2342E-01  0.7419E-01  0.7419E-01
    -18.737  0.1487E-01  0.1487E-01  0.7573E-01  0.7573E-01
    -18.633  0.3514E-01  0.3514E-01  0.7936E-01  0.7936E-01
    -18.530  0.4142E-01  0.4142E-01  0.8365E-01  0.8365E-01
    -18.426  0.2493E-01  0.2493E-01  0.8623E-01  0.8623E-01
    -18.323  0.1943E-01  0.1943E-01  0.8824E-01  0.8824E-01
    -18.220  0.2484E-01  0.2484E-01  0.9081E-01  0.9081E-01
    -18.116  0.1650E-01  0.1650E-01  0.9251E-01  0.9251E-01
    -18.013  0.3082E-01  0.3082E-01  0.9570E-01  0.9570E-01
    -17.909  0.1767E-01  0.1767E-01  0.9753E-01  0.9753E-01
    -17.806  0.1120E-01  0.1120E-01  0.9869E-01  0.9869E-01
    -17.702  0.2028E-01  0.2028E-01  0.1008E+00  0.1008E+00
    -17.599  0.2061E-01  0.2061E-01  0.1029E+00  0.1029E+00
    -17.495  0.5196E-01  0.5196E-01  0.1083E+00  0.1083E+00
    -17.392  0.3273E-01  0.3273E-01  0.1117E+00  0.1117E+00
    -17.289  0.3878E-01  0.3878E-01  0.1157E+00  0.1157E+00
    -17.185  0.3078E-01  0.3078E-01  0.1189E+00  0.1189E+00
    -17.082  0.9056E-02  0.9056E-02  0.1198E+00  0.1198E+00
    -16.978  0.2824E-01  0.2824E-01  0.1227E+00  0.1227E+00
    -16.875  0.4135E-01  0.4135E-01  0.1270E+00  0.1270E+00
    -16.771  0.5115E-02  0.5115E-02  0.1275E+00  0.1275E+00
    -16.668  0.9323E-02  0.9323E-02  0.1285E+00  0.1285E+00
    -16.564  0.2212E-01  0.2212E-01  0.1308E+00  0.1308E+00
    -16.461  0.3915E-01  0.3915E-01  0.1348E+00  0.1348E+00
    -16.358  0.6489E-01  0.6489E-01  0.1416E+00  0.1416E+00
    -16.254  0.1710E-01  0.1710E-01  0.1433E+00  0.1433E+00
    -16.151  0.1805E-03  0.1805E-03  0.1433E+00  0.1433E+00
    -16.047  0.5753E-02  0.5753E-02  0.1439E+00  0.1439E+00
    -15.944  0.8854E-02  0.8854E-02  0.1449E+00  0.1449E+00
    -15.840  0.2262E-01  0.2262E-01  0.1472E+00  0.1472E+00
    -15.737  0.6712E-02  0.6712E-02  0.1479E+00  0.1479E+00
    -15.633  0.4465E-02  0.4465E-02  0.1483E+00  0.1483E+00
    -15.530  0.1773E-01  0.1773E-01  0.1502E+00  0.1502E+00
    -15.427  0.3023E-01  0.3023E-01  0.1533E+00  0.1533E+00
    -15.323  0.2044E-01  0.2044E-01  0.1554E+00  0.1554E+00
    -15.220  0.2745E-01  0.2745E-01  0.1583E+00  0.1583E+00
    -15.116  0.2094E-01  0.2094E-01  0.1604E+00  0.1604E+00
    -15.013  0.3411E-01  0.3411E-01  0.1640E+00  0.1640E+00
    -14.909  0.4004E-01  0.4004E-01  0.1681E+00  0.1681E+00
    -14.806  0.2466E-01  0.2466E-01  0.1706E+00  0.1706E+00
    -14.702  0.1993E-01  0.1993E-01  0.1727E+00  0.1727E+00
    -14.599  0.3478E-01  0.3478E-01  0.1763E+00  0.1763E+00
    -14.496  0.3398E-01  0.3398E-01  0.1798E+00  0.1798E+00
    -14.392  0.1924E-01  0.1924E-01  0.1818E+00  0.1818E+00
    -14.289  0.3479E-01  0.3479E-01  0.1854E+00  0.1854E+00
    -14.185  0.3851E-01  0.3851E-01  0.1894E+00  0.1894E+00
    -14.082  0.3051E-01  0.3051E-01  0.1926E+00  0.1926E+00
    -13.978  0.1297E-01  0.1297E-01  0.1939E+00  0.1939E+00
    -13.875  0.1836E-01  0.1836E-01  0.1958E+00  0.1958E+00
    -13.771  0.1074E-01  0.1074E-01  0.1969E+00  0.1969E+00
    -13.668  0.2579E-01  0.2579E-01  0.1996E+00  0.1996E+00
    -13.565  0.2165E-01  0.2165E-01  0.2018E+00  0.2018E+00
    -13.461  0.3214E-01  0.3214E-01  0.2051E+00  0.2051E+00
    -13.358  0.3259E-01  0.3259E-01  0.2085E+00  0.2085E+00
    -13.254  0.2985E-01  0.2985E-01  0.2116E+00  0.2116E+00
    -13.151  0.1263E-01  0.1263E-01  0.2129E+00  0.2129E+00
    -13.047  0.1924E-01  0.1924E-01  0.2149E+00  0.2149E+00
    -12.944  0.1332E-02  0.1332E-02  0.2150E+00  0.2150E+00
    -12.840  0.2526E-01  0.2526E-01  0.2176E+00  0.2176E+00
    -12.737  0.1724E-01  0.1724E-01  0.2194E+00  0.2194E+00
    -12.634  0.3127E-01  0.3127E-01  0.2227E+00  0.2227E+00
    -12.530  0.4260E-01  0.4260E-01  0.2271E+00  0.2271E+00
    -12.427  0.4861E-01  0.4861E-01  0.2321E+00  0.2321E+00
    -12.323  0.3629E-01  0.3629E-01  0.2359E+00  0.2359E+00
    -12.220  0.2431E-01  0.2431E-01  0.2384E+00  0.2384E+00
    -12.116  0.7730E-02  0.7730E-02  0.2392E+00  0.2392E+00
    -12.013  0.5642E-02  0.5642E-02  0.2397E+00  0.2397E+00
    -11.909  0.4111E-01  0.4111E-01  0.2440E+00  0.2440E+00
    -11.806  0.2363E-01  0.2363E-01  0.2464E+00  0.2464E+00
    -11.703  0.3730E-01  0.3730E-01  0.2503E+00  0.2503E+00
    -11.599  0.3458E-01  0.3458E-01  0.2539E+00  0.2539E+00
    -11.496  0.4660E-01  0.4660E-01  0.2587E+00  0.2587E+00
    -11.392  0.2968E-01  0.2968E-01  0.2618E+00  0.2618E+00
    -11.289  0.4799E-01  0.4799E-01  0.2667E+00  0.2667E+00
    -11.185  0.2792E-01  0.2792E-01  0.2696E+00  0.2696E+00
    -11.082  0.3264E-01  0.3264E-01  0.2730E+00  0.2730E+00
    -10.979  0.3136E-01  0.3136E-01  0.2762E+00  0.2762E+00
    -10.875  0.3685E-01  0.3685E-01  0.2801E+00  0.2801E+00
    -10.772  0.4741E-01  0.4741E-01  0.2850E+00  0.2850E+00
    -10.668  0.2062E-01  0.2062E-01  0.2871E+00  0.2871E+00
    -10.565  0.8888E-02  0.8888E-02  0.2880E+00  0.2880E+00
    -10.461  0.1963E-01  0.1963E-01  0.2900E+00  0.2900E+00
    -10.358  0.1199E-01  0.1199E-01  0.2913E+00  0.2913E+00
    -10.254  0.2919E-01  0.2919E-01  0.2943E+00  0.2943E+00
    -10.151  0.5781E-01  0.5781E-01  0.3003E+00  0.3003E+00
    -10.048  0.6123E-01  0.6123E-01  0.3066E+00  0.3066E+00
     -9.944  0.4876E-01  0.4876E-01  0.3117E+00  0.3117E+00
     -9.841  0.5776E-01  0.5776E-01  0.3176E+00  0.3176E+00
     -9.737  0.6428E-01  0.6428E-01  0.3243E+00  0.3243E+00
     -9.634  0.4598E-01  0.4598E-01  0.3290E+00  0.3290E+00
     -9.530  0.4557E-01  0.4557E-01  0.3338E+00  0.3338E+00
     -9.427  0.6454E-01  0.6454E-01  0.3404E+00  0.3404E+00
     -9.323  0.6187E-01  0.6187E-01  0.3468E+00  0.3468E+00
     -9.220  0.5168E-01  0.5168E-01  0.3522E+00  0.3522E+00
     -9.117  0.5280E-01  0.5280E-01  0.3576E+00  0.3576E+00
     -9.013  0.7274E-01  0.7274E-01  0.3652E+00  0.3652E+00
     -8.910  0.9135E-01  0.9135E-01  0.3746E+00  0.3746E+00
     -8.806  0.8288E-01  0.8288E-01  0.3832E+00  0.3832E+00
     -8.703  0.7785E-01  0.7785E-01  0.3912E+00  0.3912E+00
     -8.599  0.5676E-01  0.5676E-01  0.3971E+00  0.3971E+00
     -8.496  0.7605E-01  0.7605E-01  0.4050E+00  0.4050E+00
     -8.392  0.4181E-01  0.4181E-01  0.4093E+00  0.4093E+00
     -8.289  0.6842E-01  0.6842E-01  0.4164E+00  0.4164E+00
     -8.186  0.7946E-01  0.7946E-01  0.4246E+00  0.4246E+00
     -8.082  0.7944E-01  0.7944E-01  0.4328E+00  0.4328E+00
     -7.979  0.4368E-01  0.4368E-01  0.4373E+00  0.4373E+00
     -7.875  0.6160E-01  0.6160E-01  0.4437E+00  0.4437E+00
     -7.772  0.5457E-01  0.5457E-01  0.4494E+00  0.4494E+00
     -7.668  0.6193E-01  0.6193E-01  0.4558E+00  0.4558E+00
     -7.565  0.2818E-01  0.2818E-01  0.4587E+00  0.4587E+00
     -7.461  0.3437E-01  0.3437E-01  0.4622E+00  0.4622E+00
     -7.358  0.4573E-01  0.4573E-01  0.4670E+00  0.4670E+00
     -7.255  0.7757E-01  0.7757E-01  0.4750E+00  0.4750E+00
     -7.151  0.7374E-01  0.7374E-01  0.4826E+00  0.4826E+00
     -7.048  0.5142E-01  0.5142E-01  0.4879E+00  0.4879E+00
     -6.944  0.4647E-01  0.4647E-01  0.4927E+00  0.4927E+00
     -6.841  0.4201E-01  0.4201E-01  0.4971E+00  0.4971E+00
     -6.737  0.3752E-01  0.3752E-01  0.5010E+00  0.5010E+00
     -6.634  0.3253E-01  0.3253E-01  0.5043E+00  0.5043E+00
     -6.530  0.3253E-01  0.3253E-01  0.5077E+00  0.5077E+00
     -6.427  0.3390E-01  0.3390E-01  0.5112E+00  0.5112E+00
     -6.324  0.3863E-01  0.3863E-01  0.5152E+00  0.5152E+00
     -6.220  0.6871E-01  0.6871E-01  0.5223E+00  0.5223E+00
     -6.117  0.5982E-01  0.5982E-01  0.5285E+00  0.5285E+00
     -6.013  0.4452E-01  0.4452E-01  0.5331E+00  0.5331E+00
     -5.910  0.3216E-01  0.3216E-01  0.5364E+00  0.5364E+00
     -5.806  0.5223E-01  0.5223E-01  0.5418E+00  0.5418E+00
     -5.703  0.6243E-01  0.6243E-01  0.5483E+00  0.5483E+00
     -5.599  0.4115E-01  0.4115E-01  0.5525E+00  0.5525E+00
     -5.496  0.2063E-01  0.2063E-01  0.5547E+00  0.5547E+00
     -5.393  0.1352E-01  0.1352E-01  0.5561E+00  0.5561E+00
     -5.289  0.5987E-02  0.5987E-02  0.5567E+00  0.5567E+00
     -5.186  0.1460E-01  0.1460E-01  0.5582E+00  0.5582E+00
     -5.082  0.5251E-01  0.5251E-01  0.5636E+00  0.5636E+00
     -4.979  0.6351E-01  0.6351E-01  0.5702E+00  0.5702E+00
     -4.875  0.6132E-01  0.6132E-01  0.5766E+00  0.5766E+00
     -4.772  0.4495E-01  0.4495E-01  0.5812E+00  0.5812E+00
     -4.668  0.2834E-01  0.2834E-01  0.5841E+00  0.5841E+00
     -4.565  0.4171E-01  0.4171E-01  0.5884E+00  0.5884E+00
     -4.462  0.2270E-01  0.2270E-01  0.5908E+00  0.5908E+00
     -4.358  0.6369E-02  0.6369E-02  0.5915E+00  0.5915E+00
     -4.255  0.3584E-01  0.3584E-01  0.5952E+00  0.5952E+00
     -4.151  0.2324E-01  0.2324E-01  0.5976E+00  0.5976E+00
     -4.048  0.2350E-01  0.2350E-01  0.6000E+00  0.6000E+00
     -3.944  0.3407E-01  0.3407E-01  0.6035E+00  0.6035E+00
     -3.841  0.2453E-01  0.2453E-01  0.6061E+00  0.6061E+00
     -3.737  0.5897E-02  0.5897E-02  0.6067E+00  0.6067E+00
     -3.634  0.7256E-05  0.7256E-05  0.6067E+00  0.6067E+00
     -3.531  0.1756E-02  0.1756E-02  0.6068E+00  0.6068E+00
     -3.427  0.6355E-02  0.6355E-02  0.6075E+00  0.6075E+00
     -3.324  0.1274E-01  0.1274E-01  0.6088E+00  0.6088E+00
     -3.220  0.1583E-01  0.1583E-01  0.6105E+00  0.6105E+00
     -3.117  0.1111E-01  0.1111E-01  0.6116E+00  0.6116E+00
     -3.013  0.5492E-03  0.5492E-03  0.6117E+00  0.6117E+00
     -2.910  0.3867E-07  0.3867E-07  0.6117E+00  0.6117E+00
     -2.806  0.2194E-05  0.2194E-05  0.6117E+00  0.6117E+00
     -2.703  0.3823E-02  0.3823E-02  0.6121E+00  0.6121E+00
     -2.600  0.1207E-01  0.1207E-01  0.6133E+00  0.6133E+00
     -2.496  0.2177E-03  0.2177E-03  0.6133E+00  0.6133E+00
     -2.393  0.1680E-03  0.1680E-03  0.6134E+00  0.6134E+00
     -2.289  0.1161E-01  0.1161E-01  0.6146E+00  0.6146E+00
     -2.186  0.4335E-02  0.4335E-02  0.6150E+00  0.6150E+00
     -2.082  0.3262E-05  0.3262E-05  0.6150E+00  0.6150E+00
     -1.979  0.5814E-03  0.5814E-03  0.6151E+00  0.6151E+00
     -1.876  0.8565E-02  0.8565E-02  0.6159E+00  0.6159E+00
     -1.772  0.1149E-01  0.1149E-01  0.6171E+00  0.6171E+00
     -1.669  0.1768E-01  0.1768E-01  0.6190E+00  0.6190E+00
     -1.565  0.7013E-02  0.7013E-02  0.6197E+00  0.6197E+00
     -1.462  0.3096E-02  0.3096E-02  0.6200E+00  0.6200E+00
     -1.358  0.1266E-01  0.1266E-01  0.6213E+00  0.6213E+00
     -1.255  0.3078E-01  0.3078E-01  0.6245E+00  0.6245E+00
     -1.151  0.4810E-02  0.4810E-02  0.6250E+00  0.6250E+00
     -1.048  0.3292E-02  0.3292E-02  0.6253E+00  0.6253E+00
     -0.945  0.2531E-01  0.2531E-01  0.6280E+00  0.6280E+00
     -0.841  0.6018E-01  0.6018E-01  0.6342E+00  0.6342E+00
     -0.738  0.2332E-01  0.2332E-01  0.6366E+00  0.6366E+00
     -0.634  0.3053E-01  0.3053E-01  0.6398E+00  0.6398E+00
     -0.531  0.3377E-01  0.3377E-01  0.6432E+00  0.6432E+00
     -0.427  0.2299E-01  0.2299E-01  0.6456E+00  0.6456E+00
     -0.324  0.1706E-01  0.1706E-01  0.6474E+00  0.6474E+00
     -0.220  0.1564E-01  0.1564E-01  0.6490E+00  0.6490E+00
     -0.117  0.3904E-01  0.3904E-01  0.6530E+00  0.6530E+00
     -0.014  0.2994E-01  0.2994E-01  0.6561E+00  0.6561E+00
      0.090  0.3366E-01  0.3366E-01  0.6596E+00  0.6596E+00
      0.193  0.4090E-01  0.4090E-01  0.6639E+00  0.6639E+00
      0.297  0.1619E-01  0.1619E-01  0.6655E+00  0.6655E+00
      0.400  0.1068E-01  0.1068E-01  0.6666E+00  0.6666E+00
      0.504  0.1057E-01  0.1057E-01  0.6677E+00  0.6677E+00
      0.607  0.1844E-01  0.1844E-01  0.6696E+00  0.6696E+00
      0.711  0.2117E-01  0.2117E-01  0.6718E+00  0.6718E+00
      0.814  0.3821E-01  0.3821E-01  0.6758E+00  0.6758E+00
      0.917  0.2821E-01  0.2821E-01  0.6787E+00  0.6787E+00
      1.021  0.3299E-01  0.3299E-01  0.6821E+00  0.6821E+00
      1.124  0.2339E-01  0.2339E-01  0.6845E+00  0.6845E+00
      1.228  0.3538E-01  0.3538E-01  0.6882E+00  0.6882E+00
      1.331  0.1927E-01  0.1927E-01  0.6902E+00  0.6902E+00
      1.435  0.5521E-01  0.5521E-01  0.6959E+00  0.6959E+00
      1.538  0.5680E-01  0.5680E-01  0.7018E+00  0.7018E+00
      1.642  0.4505E-01  0.4505E-01  0.7064E+00  0.7064E+00
      1.745  0.3565E-01  0.3565E-01  0.7101E+00  0.7101E+00
      1.848  0.2926E-01  0.2926E-01  0.7131E+00  0.7131E+00
      1.952  0.5155E-01  0.5155E-01  0.7185E+00  0.7185E+00
      2.055  0.6646E-01  0.6646E-01  0.7254E+00  0.7254E+00
      2.159  0.4078E-01  0.4078E-01  0.7296E+00  0.7296E+00
      2.262  0.7564E-01  0.7564E-01  0.7374E+00  0.7374E+00
      2.366  0.6237E-01  0.6237E-01  0.7438E+00  0.7438E+00
      2.469  0.8623E-01  0.8623E-01  0.7528E+00  0.7528E+00
      2.573  0.1368E-01  0.1368E-01  0.7542E+00  0.7542E+00
      2.676  0.2966E-01  0.2966E-01  0.7572E+00  0.7572E+00
      2.779  0.7067E-01  0.7067E-01  0.7646E+00  0.7646E+00
      2.883  0.1172E+00  0.1172E+00  0.7767E+00  0.7767E+00
      2.986  0.1381E+00  0.1381E+00  0.7910E+00  0.7910E+00
      3.090  0.5546E-01  0.5546E-01  0.7967E+00  0.7967E+00
      3.193  0.6396E-01  0.6396E-01  0.8033E+00  0.8033E+00
      3.297  0.6619E-01  0.6619E-01  0.8102E+00  0.8102E+00
      3.400  0.4197E-01  0.4197E-01  0.8145E+00  0.8145E+00
      3.504  0.8380E-01  0.8380E-01  0.8232E+00  0.8232E+00
      3.607  0.7112E-01  0.7112E-01  0.8305E+00  0.8305E+00
      3.710  0.4074E-01  0.4074E-01  0.8348E+00  0.8348E+00
      3.814  0.9353E-01  0.9353E-01  0.8444E+00  0.8444E+00
      3.917  0.7303E-01  0.7303E-01  0.8520E+00  0.8520E+00
      4.021  0.8175E-01  0.8175E-01  0.8604E+00  0.8604E+00
      4.124  0.5940E-01  0.5940E-01  0.8666E+00  0.8666E+00
      4.228  0.5233E-01  0.5185E-01  0.8720E+00  0.8719E+00
      4.331  0.8509E-01  0.8201E-01  0.8808E+00  0.8804E+00
      4.435  0.2422E-01  0.2753E-01  0.8833E+00  0.8833E+00
      4.538  0.3051E-03  0.5418E-03  0.8833E+00  0.8833E+00
      4.641  0.5476E-08  0.1081E-07  0.8833E+00  0.8833E+00
      4.745  0.3220E-16  0.6440E-16  0.8833E+00  0.8833E+00
      4.848  0.0000E+00  0.0000E+00  0.8833E+00  0.8833E+00
      4.952  0.0000E+00  0.0000E+00  0.8833E+00  0.8833E+00
      5.055  0.0000E+00  0.0000E+00  0.8833E+00  0.8833E+00
      5.159  0.0000E+00  0.0000E+00  0.8833E+00  0.8833E+00
      5.262  0.0000E+00  0.0000E+00  0.8833E+00  0.8833E+00
      5.366  0.0000E+00  0.0000E+00  0.8833E+00  0.8833E+00
      5.469  0.0000E+00  0.0000E+00  0.8833E+00  0.8833E+00
      5.572  0.0000E+00  0.0000E+00  0.8833E+00  0.8833E+00
      5.676  0.0000E+00  0.0000E+00  0.8833E+00  0.8833E+00
      5.779  0.0000E+00  0.0000E+00  0.8833E+00  0.8833E+00
