 vasp.6.4.2 20Jul23 (build Aug 26 2025 15:10:52) complex                        
  
 executed on             LinuxIFC date 2025.12.02  12:14:44
 running   50 mpi-ranks, on    1 nodes
 each image running on   10 cores
 distrk:  each k-point on    5 cores,    2 groups
 distr:  one band on NCORE=   1 cores,    5 groups


--------------------------------------------------------------------------------------------------------


 INCAR:
   ENCUT = 520
   EDIFF = 1E-5
   NELM = 200
   ALGO = Normal
   ISMEAR = 0
   SIGMA = 0.05
   LASPH = .TRUE.
   ADDGRID = .TRUE.
   LREAL = Auto
   ISYM = 0
   ISPIN = 2
   MAGMOM = 97*0.6
   IMIX = 4
   AMIX = 0.20
   BMIX = 1E-4
   AMIX_MAG = 0.80
   BMIX_MAG = 1E-4
   IBRION = 3
   POTIM = 0
   IMAGES = 5
   SPRING = -5
   LCLIMB = .TRUE.
   IOPT = 7
   ISIF = 2
   EDIFFG = -0.03
   NSW = 300
   IVDW = 12
   ISTART = 0
   ICHARG = 2
   LWAVE = .FALSE.
   LCHARG = .FALSE.
   KPAR = 2

 POTCAR:    PAW_PBE C 08Apr2002                   
 POTCAR:    PAW_PBE H 15Jun2001                   
 POTCAR:    PAW_PBE N 08Apr2002                   
 POTCAR:    PAW_PBE O 08Apr2002                   
 -----------------------------------------------------------------------------
|                                                                             |
|           W    W    AA    RRRRR   N    N  II  N    N   GGGG   !!!           |
|           W    W   A  A   R    R  NN   N  II  NN   N  G    G  !!!           |
|           W    W  A    A  R    R  N N  N  II  N N  N  G       !!!           |
|           W WW W  AAAAAA  RRRRR   N  N N  II  N  N N  G  GGG   !            |
|           WW  WW  A    A  R   R   N   NN  II  N   NN  G    G                |
|           W    W  A    A  R    R  N    N  II  N    N   GGGG   !!!           |
|                                                                             |
|     For optimal performance we recommend to set                             |
|       NCORE = 2 up to number-of-cores-per-socket                            |
|     NCORE specifies how many cores store one orbital (NPAR=cpu/NCORE).      |
|     This setting can greatly improve the performance of VASP for DFT.       |
|     The default, NCORE=1 might be grossly inefficient on modern             |
|     multi-core architectures or massively parallel machines. Do your        |
|     own testing! More info at https://www.vasp.at/wiki/index.php/NCORE      |
|     Unfortunately you need to use the default for GW and RPA                |
|     calculations (for HF NCORE is supported but not extensively tested      |
|     yet).                                                                   |
|                                                                             |
 -----------------------------------------------------------------------------

 POTCAR:    PAW_PBE C 08Apr2002                   
   SHA256 =  253f7b50bb8d59471dbedb8285d89021f4a42ed1a2c5d38a03a736e69125dd95 C/POTCAR              
   COPYR  = (c) Copyright 08Apr2002 Georg Kresse                                                    
   COPYR  = This file is part of the software VASP. Any use, copying, and all other rights are regul
   COPYR  = If you do not have a valid VASP license, you may not use, copy or distribute this file. 
   VRHFIN =C: s2p2                                                                                  
   LEXCH  = PE                                                                                      
   EATOM  =   147.1560 eV,   10.8157 Ry                                                             
                                                                                                    
   TITEL  = PAW_PBE C 08Apr2002                                                                     
   LULTRA =        F    use ultrasoft PP ?                                                          
   IUNSCR =        1    unscreen: 0-lin 1-nonlin 2-no                                               
   RPACOR =    1.200    partial core radius                                                         
   POMASS =   12.011; ZVAL   =    4.000    mass and valenz                                          
   RCORE  =    1.500    outmost cutoff radius                                                       
   RWIGS  =    1.630; RWIGS  =    0.863    wigner-seitz radius (au A)                               
   ENMAX  =  400.000; ENMIN  =  300.000 eV                                                          
   ICORE  =        2    local potential                                                             
   LCOR   =        T    correct aug charges                                                         
   LPAW   =        T    paw PP                                                                      
   EAUG   =  644.873                                                                                
   DEXC   =    0.000                                                                                
   RMAX   =    1.529    core radius for proj-oper                                                   
   RAUG   =    1.300    factor for augmentation sphere                                              
   RDEP   =    1.501    radius for radial grids                                                     
   RDEPT  =    1.300    core radius for aug-charge                                                  
                                                                                                    
   Atomic configuration                                                                             
    4 entries                                                                                       
     n  l   j            E        occ.                                                              
     1  0  0.50      -273.3789   2.0000                                                             
     2  0  0.50       -13.7508   2.0000                                                             
     2  1  0.50        -5.2854   2.0000                                                             
     3  2  1.50        -5.4423   0.0000                                                             
   Description                                                                                      
     l       E           TYP  RCUT    TYP  RCUT                                                     
     0    -13.7508458     23  1.200                                                                 
     0     -8.2022199     23  1.200                                                                 
     1     -5.2854383     23  1.500                                                                 
     1     34.0145650     23  1.500                                                                 
     2     -5.4423304      7  1.500                                                                 
  local pseudopotential read in
  partial core-charges read in
  partial kinetic energy density read in
  atomic valenz-charges read in
  non local Contribution for L=           0  read in
    real space projection operators read in
  non local Contribution for L=           0  read in
    real space projection operators read in
  non local Contribution for L=           1  read in
    real space projection operators read in
  non local Contribution for L=           1  read in
    real space projection operators read in
    PAW grid and wavefunctions read in
 
   number of l-projection  operators is LMAX  =           4
   number of lm-projection operators is LMMAX =           8
 
 POTCAR:    PAW_PBE H 15Jun2001                   
   SHA256 =  030f79b5d3ab3cf0e668861823c8fb652ff669f3e15e46930bd03bfd63a607b6 H/POTCAR              
   COPYR  = (c) Copyright 15Jun2001 Georg Kresse                                                    
   COPYR  = This file is part of the software VASP. Any use, copying, and all other rights are regul
   COPYR  = If you do not have a valid VASP license, you may not use, copy or distribute this file. 
   VRHFIN =H: ultrasoft test                                                                        
   LEXCH  = PE                                                                                      
   EATOM  =    12.4884 eV,    0.9179 Ry                                                             
                                                                                                    
   TITEL  = PAW_PBE H 15Jun2001                                                                     
   LULTRA =        F    use ultrasoft PP ?                                                          
   IUNSCR =        0    unscreen: 0-lin 1-nonlin 2-no                                               
   RPACOR =    0.000    partial core radius                                                         
   POMASS =    1.000; ZVAL   =    1.000    mass and valenz                                          
   RCORE  =    1.100    outmost cutoff radius                                                       
   RWIGS  =    0.700; RWIGS  =    0.370    wigner-seitz radius (au A)                               
   ENMAX  =  250.000; ENMIN  =  200.000 eV                                                          
   RCLOC  =    0.701    cutoff for local pot                                                        
   LCOR   =        T    correct aug charges                                                         
   LPAW   =        T    paw PP                                                                      
   EAUG   =  400.000                                                                                
   RMAX   =    1.123    core radius for proj-oper                                                   
   RAUG   =    1.200    factor for augmentation sphere                                              
   RDEP   =    1.112    radius for radial grids                                                     
   RDEPT  =    0.926    core radius for aug-charge                                                  
                                                                                                    
   Atomic configuration                                                                             
    2 entries                                                                                       
     n  l   j            E        occ.                                                              
     1  0  0.50        -6.4927   1.0000                                                             
     2  1  0.50        -3.4015   0.0000                                                             
   Description                                                                                      
     l       E           TYP  RCUT    TYP  RCUT                                                     
     0     -6.4927494     23  1.100                                                                 
     0      6.8029130     23  1.100                                                                 
     1     -4.0817478     23  1.100                                                                 
  local pseudopotential read in
  atomic valenz-charges read in
  non local Contribution for L=           0  read in
    real space projection operators read in
  non local Contribution for L=           0  read in
    real space projection operators read in
  non local Contribution for L=           1  read in
    real space projection operators read in
    PAW grid and wavefunctions read in
 
   number of l-projection  operators is LMAX  =           3
   number of lm-projection operators is LMMAX =           5
 
 POTCAR:    PAW_PBE N 08Apr2002                   
   SHA256 =  e053789ff3a61a86a1b75d8a110fcc91f86041011e7b0817c7c99e4e8a6349d7 N/POTCAR              
   COPYR  = (c) Copyright 08Apr2002 Georg Kresse                                                    
   COPYR  = This file is part of the software VASP. Any use, copying, and all other rights are regul
   COPYR  = If you do not have a valid VASP license, you may not use, copy or distribute this file. 
   VRHFIN =N: s2p3                                                                                  
   LEXCH  = PE                                                                                      
   EATOM  =   264.5486 eV,   19.4438 Ry                                                             
                                                                                                    
   TITEL  = PAW_PBE N 08Apr2002                                                                     
   LULTRA =        F    use ultrasoft PP ?                                                          
   IUNSCR =        1    unscreen: 0-lin 1-nonlin 2-no                                               
   RPACOR =    1.200    partial core radius                                                         
   POMASS =   14.001; ZVAL   =    5.000    mass and valenz                                          
   RCORE  =    1.500    outmost cutoff radius                                                       
   RWIGS  =    1.400; RWIGS  =    0.741    wigner-seitz radius (au A)                               
   ENMAX  =  400.000; ENMIN  =  300.000 eV                                                          
   ICORE  =        2    local potential                                                             
   LCOR   =        T    correct aug charges                                                         
   LPAW   =        T    paw PP                                                                      
   EAUG   =  627.112                                                                                
   DEXC   =    0.000                                                                                
   RMAX   =    1.529    core radius for proj-oper                                                   
   RAUG   =    1.300    factor for augmentation sphere                                              
   RDEP   =    1.514    radius for radial grids                                                     
   RDEPT  =    1.338    core radius for aug-charge                                                  
                                                                                                    
   Atomic configuration                                                                             
    4 entries                                                                                       
     n  l   j            E        occ.                                                              
     1  0  0.50      -384.7179   2.0000                                                             
     2  0  0.50       -18.5828   2.0000                                                             
     2  1  0.50        -7.0898   3.0000                                                             
     3  2  1.50        -6.8029   0.0000                                                             
   Description                                                                                      
     l       E           TYP  RCUT    TYP  RCUT                                                     
     0    -18.5828119     23  1.200                                                                 
     0    -13.5018863     23  1.200                                                                 
     1     -7.0897853     23  1.500                                                                 
     1      9.5240782     23  1.500                                                                 
     2     -6.8029130      7  1.500                                                                 
  local pseudopotential read in
  partial core-charges read in
  partial kinetic energy density read in
  atomic valenz-charges read in
  non local Contribution for L=           0  read in
    real space projection operators read in
  non local Contribution for L=           0  read in
    real space projection operators read in
  non local Contribution for L=           1  read in
    real space projection operators read in
  non local Contribution for L=           1  read in
    real space projection operators read in
    PAW grid and wavefunctions read in
 
   number of l-projection  operators is LMAX  =           4
   number of lm-projection operators is LMMAX =           8
 
 POTCAR:    PAW_PBE O 08Apr2002                   
   SHA256 =  818f92134a0a090dccd8ba1447fa70422a3b330e708bb4f08108d8ae51209ddf O/POTCAR              
   COPYR  = (c) Copyright 08Apr2002 Georg Kresse                                                    
   COPYR  = This file is part of the software VASP. Any use, copying, and all other rights are regul
   COPYR  = If you do not have a valid VASP license, you may not use, copy or distribute this file. 
   VRHFIN =O: s2p4                                                                                  
   LEXCH  = PE                                                                                      
   EATOM  =   432.3788 eV,   31.7789 Ry                                                             
                                                                                                    
   TITEL  = PAW_PBE O 08Apr2002                                                                     
   LULTRA =        F    use ultrasoft PP ?                                                          
   IUNSCR =        1    unscreen: 0-lin 1-nonlin 2-no                                               
   RPACOR =    1.200    partial core radius                                                         
   POMASS =   16.000; ZVAL   =    6.000    mass and valenz                                          
   RCORE  =    1.520    outmost cutoff radius                                                       
   RWIGS  =    1.550; RWIGS  =    0.820    wigner-seitz radius (au A)                               
   ENMAX  =  400.000; ENMIN  =  300.000 eV                                                          
   ICORE  =        2    local potential                                                             
   LCOR   =        T    correct aug charges                                                         
   LPAW   =        T    paw PP                                                                      
   EAUG   =  605.392                                                                                
   DEXC   =    0.000                                                                                
   RMAX   =    1.553    core radius for proj-oper                                                   
   RAUG   =    1.300    factor for augmentation sphere                                              
   RDEP   =    1.550    radius for radial grids                                                     
   RDEPT  =    1.329    core radius for aug-charge                                                  
                                                                                                    
   Atomic configuration                                                                             
    4 entries                                                                                       
     n  l   j            E        occ.                                                              
     1  0  0.50      -514.6923   2.0000                                                             
     2  0  0.50       -23.9615   2.0000                                                             
     2  1  0.50        -9.0305   4.0000                                                             
     3  2  1.50        -9.5241   0.0000                                                             
   Description                                                                                      
     l       E           TYP  RCUT    TYP  RCUT                                                     
     0    -23.9615318     23  1.200                                                                 
     0     -9.5240782     23  1.200                                                                 
     1     -9.0304911     23  1.520                                                                 
     1      8.1634956     23  1.520                                                                 
     2     -9.5240782      7  1.500                                                                 
  local pseudopotential read in
  partial core-charges read in
  partial kinetic energy density read in
  kinetic energy density of atom read in
  atomic valenz-charges read in
  non local Contribution for L=           0  read in
    real space projection operators read in
  non local Contribution for L=           0  read in
    real space projection operators read in
  non local Contribution for L=           1  read in
    real space projection operators read in
  non local Contribution for L=           1  read in
    real space projection operators read in
    PAW grid and wavefunctions read in
 
   number of l-projection  operators is LMAX  =           4
   number of lm-projection operators is LMMAX =           8
 
 Optimization of the real space projectors (new method)

 maximal supplied QI-value         = 25.13
 optimisation between [QCUT,QGAM] = [ 11.56, 23.12] = [ 37.43,149.72] Ry 
 Optimized for a Real-space Cutoff    1.04 Angstroem

   l    n(q)    QCUT    max X(q) W(low)/X(q) W(high)/X(q)  e(spline) 
   0      7    11.561   115.676    0.20E-03    0.60E-03    0.21E-06
   0      7    11.561    87.132    0.20E-03    0.59E-03    0.21E-06
   1      7    11.561     4.429    0.23E-03    0.35E-03    0.15E-06
   1      7    11.561     2.733    0.18E-03    0.25E-03    0.12E-06
 Optimization of the real space projectors (new method)

 maximal supplied QI-value         = 34.20
 optimisation between [QCUT,QGAM] = [ 11.63, 23.26] = [ 37.87,151.49] Ry 
 Optimized for a Real-space Cutoff    1.14 Angstroem

   l    n(q)    QCUT    max X(q) W(low)/X(q) W(high)/X(q)  e(spline) 
   0      8    11.629    19.460    0.27E-03    0.65E-03    0.17E-06
   0      8    11.629    12.209    0.25E-03    0.62E-03    0.16E-06
   1      7    11.629     4.655    0.29E-03    0.85E-04    0.19E-06
 Optimization of the real space projectors (new method)

 maximal supplied QI-value         = 25.13
 optimisation between [QCUT,QGAM] = [ 11.56, 23.12] = [ 37.43,149.72] Ry 
 Optimized for a Real-space Cutoff    1.25 Angstroem

   l    n(q)    QCUT    max X(q) W(low)/X(q) W(high)/X(q)  e(spline) 
   0      9    11.561    79.467    0.52E-04    0.16E-03    0.37E-06
   0      9    11.561    66.151    0.51E-04    0.16E-03    0.37E-06
   1      8    11.561    18.886    0.46E-03    0.28E-03    0.80E-06
   1      8    11.561    13.488    0.47E-03    0.29E-03    0.82E-06
 Optimization of the real space projectors (new method)

 maximal supplied QI-value         = 24.76
 optimisation between [QCUT,QGAM] = [ 11.64, 23.27] = [ 37.91,151.63] Ry 
 Optimized for a Real-space Cutoff    1.04 Angstroem

   l    n(q)    QCUT    max X(q) W(low)/X(q) W(high)/X(q)  e(spline) 
   0      7    11.635    20.381    0.14E-03    0.49E-03    0.18E-06
   0      7    11.635    15.268    0.16E-03    0.52E-03    0.19E-06
   1      7    11.635     5.964    0.30E-03    0.44E-03    0.22E-06
   1      7    11.635     5.382    0.27E-03    0.34E-03    0.19E-06
  PAW_PBE C 08Apr2002                   :
 energy of atom  1       EATOM= -147.1560
 kinetic energy error for atom=    0.0071 (will be added to EATOM!!)
  PAW_PBE H 15Jun2001                   :
 energy of atom  2       EATOM=  -12.4884
 kinetic energy error for atom=    0.0014 (will be added to EATOM!!)
  PAW_PBE N 08Apr2002                   :
 energy of atom  3       EATOM= -264.5486
 kinetic energy error for atom=    0.0125 (will be added to EATOM!!)
  PAW_PBE O 08Apr2002                   :
 energy of atom  4       EATOM= -432.3788
 kinetic energy error for atom=    0.0208 (will be added to EATOM!!)
 
 
 POSCAR: C    H    N    O
  positions in direct lattice
  velocities in cartesian coordinates
 exchange correlation table for  LEXCH =        8
   RHO(1)=    0.500       N(1)  =     2000
   RHO(2)=  100.500       N(2)  =     4000

 VTST: version 4.1, (05/19/21)

 CHAIN: initializing optimizer
 
 OPT: Using FIRE optimizer
 OPT: FIRE, Init
 OPT: FIRE, MAXMOVE       0.20000
 OPT: FIRE, TIMESTEP      0.10000
 OPT: FIRE, FTIMEMAX      1.00000
 OPT: FIRE, FTIMEINC      1.10000
 OPT: FIRE, FTIMEDEC      0.50000
 OPT: FIRE, FALPHADEC     0.99000
 OPT: FIRE, FALPHA        0.10000
 OPT: FIRE, FNMIN         5
 
 CHAIN: Read ICHAIN            0
 CHAIN: Running the NEB
 NEB:          SPRING     -5.000000
 NEB:          LCLIMB      T
 NEB:     LTANGENTOLD      F
 NEB:           LDNEB      F
 NEB:        LDNEBORG      F
 NEB:        LNEBCELL      F
 NEB:          EFIRST      0.000000
 NEB:           ELAST      0.000000
 
 POSCAR: C    H    N    O
  positions in direct lattice
  No initial velocities read in
 
 POSCAR: C    H    N    O
  positions in direct lattice
  No initial velocities read in
 
 POSCAR: C    H    N    O
  positions in direct lattice
  No initial velocities read in
 
 POSCAR: C    H    N    O
  positions in direct lattice
  No initial velocities read in
 


--------------------------------------------------------------------------------------------------------


 ion  position               nearest neighbor table
   1  0.999  0.999  0.499-  51 1.43  45 1.43  86 1.43
   2  0.999  0.142  0.500-  46 1.42  80 1.42  45 1.43
   3  0.999  0.285  0.500-  81 1.42  46 1.42  47 1.42
   4  0.999  0.428  0.500-  47 1.42  82 1.42  48 1.43
   5  0.999  0.571  0.499-  49 1.43  48 1.43  83 1.43
   6  0.999  0.714  0.499-  49 1.42  50 1.43  84 1.43
   7  0.999  0.857  0.499-  51 1.42  50 1.43  85 1.43
   8  0.143  0.000  0.499-  52 1.42  58 1.43  51 1.43
   9  0.142  0.143  0.500-  53 1.42  45 1.43  52 1.43
  10  0.141  0.285  0.501-  54 1.42  46 1.42  53 1.42
  11  0.141  0.428  0.502-  54 1.42  47 1.42  55 1.42
  12  0.142  0.571  0.501-  55 1.42  48 1.43  56 1.43
  13  0.143  0.714  0.499-  56 1.42  57 1.43  49 1.43
  14  0.143  0.857  0.499-  57 1.43  58 1.43  50 1.43
  15  0.286  0.000  0.499-  65 1.42  58 1.43  59 1.43
  16  0.286  0.143  0.500-  59 1.42  60 1.43  52 1.43
  17  0.286  0.287  0.503-  61 1.39  53 1.44  60 1.46
  18  0.283  0.427  0.504-  62 1.41  61 1.41  54 1.42
  19  0.286  0.570  0.503-  62 1.39  55 1.44  63 1.46
  20  0.286  0.714  0.501-  64 1.42  63 1.43  56 1.43
  21  0.286  0.857  0.499-  65 1.42  57 1.43  64 1.43
  22  0.429  1.000  0.499-  69 1.42  66 1.42  65 1.43
  23  0.429  0.144  0.500-  66 1.43  59 1.43  67 1.43
  24  0.428  0.284  0.502-  87 1.09  67 1.40  60 1.40
  25  0.428  0.716  0.502-  92 1.09  68 1.40  63 1.40
  26  0.429  0.857  0.500-  69 1.43  64 1.43  68 1.43
  27  0.571  1.000  0.500-  69 1.42  70 1.42  72 1.43
  28  0.571  0.143  0.500-  66 1.42  70 1.42  71 1.43
  29  0.575  0.289  0.501-  95 1.35  71 1.43  67 1.46
  30  0.575  0.857  0.501-  96 1.35  72 1.43  68 1.46
  31  0.714  0.000  0.500-  72 1.42  79 1.42  73 1.42
  32  0.714  0.143  0.499-  74 1.42  73 1.42  70 1.43
  33  0.714  0.285  0.500-  71 1.42  75 1.42  74 1.42
  34  0.710  0.424  0.503-  95 1.35  75 1.43  76 1.47
  35  0.715  0.571  0.511-  91 1.09  76 1.39  77 1.42
  36  0.715  0.715  0.511-  90 1.09  78 1.39  77 1.42
  37  0.710  0.857  0.503-  96 1.35  79 1.43  78 1.47
  38  0.856  0.999  0.500-  80 1.42  86 1.43  79 1.43
  39  0.856  0.143  0.500-  73 1.42  81 1.42  80 1.43
  40  0.857  0.285  0.500-  74 1.42  81 1.42  82 1.43
  41  0.856  0.428  0.500-  82 1.42  83 1.43  75 1.43
  42  0.855  0.570  0.501-  83 1.42  84 1.43  76 1.44
  43  0.856  0.714  0.502-  85 1.42  84 1.42  77 1.44
  44  0.855  0.856  0.501-  86 1.42  85 1.43  78 1.44
  45  0.047  0.095  0.499-   2 1.43   9 1.43   1 1.43
  46  0.046  0.237  0.500-   2 1.42  10 1.42   3 1.42
  47  0.046  0.380  0.501-   4 1.42  11 1.42   3 1.42
  48  0.047  0.524  0.500-   4 1.43  12 1.43   5 1.43
  49  0.047  0.666  0.499-   6 1.42   5 1.43  13 1.43
  50  0.047  0.809  0.499-   6 1.43   7 1.43  14 1.43
  51  0.047  0.952  0.499-   7 1.42   1 1.43   8 1.43
  52  0.190  0.095  0.500-   8 1.42   9 1.43  16 1.43
  53  0.190  0.238  0.501-   9 1.42  10 1.42  17 1.44
  54  0.188  0.380  0.503-  11 1.42  10 1.42  18 1.42
  55  0.190  0.523  0.502-  12 1.42  11 1.42  19 1.44
  56  0.190  0.667  0.500-  13 1.42  12 1.43  20 1.43
  57  0.190  0.809  0.499-  21 1.43  14 1.43  13 1.43
  58  0.190  0.952  0.499-  15 1.43  14 1.43   8 1.43
  59  0.334  0.096  0.500-  16 1.42  23 1.43  15 1.43
  60  0.335  0.239  0.502-  24 1.40  16 1.43  17 1.46
  61  0.329  0.379  0.505-  88 1.09  17 1.39  18 1.41
  62  0.329  0.521  0.505-  89 1.09  19 1.39  18 1.41
  63  0.335  0.667  0.502-  25 1.40  20 1.43  19 1.46
  64  0.334  0.809  0.500-  20 1.42  26 1.43  21 1.43
  65  0.333  0.952  0.499-  15 1.42  21 1.42  22 1.43
  66  0.476  0.095  0.499-  28 1.42  22 1.42  23 1.43
  67  0.477  0.239  0.501-  24 1.40  23 1.43  29 1.46
  68  0.477  0.809  0.501-  25 1.40  26 1.43  30 1.46
  69  0.476  0.952  0.500-  27 1.42  22 1.42  26 1.43
  70  0.619  0.095  0.499-  28 1.42  27 1.42  32 1.43
  71  0.619  0.238  0.500-  33 1.42  29 1.43  28 1.43
  72  0.619  0.953  0.500-  31 1.42  30 1.43  27 1.43
  73  0.762  0.095  0.500-  39 1.42  32 1.42  31 1.42
  74  0.762  0.238  0.500-  40 1.42  32 1.42  33 1.42
  75  0.761  0.380  0.501-  33 1.42  41 1.43  34 1.43
  76  0.759  0.523  0.505-  35 1.39  42 1.44  34 1.47
  77  0.760  0.666  0.508-  35 1.42  36 1.42  43 1.44
  78  0.759  0.808  0.504-  36 1.39  44 1.44  37 1.47
  79  0.761  0.952  0.501-  31 1.42  38 1.43  37 1.43
  80  0.904  0.094  0.500-  38 1.42   2 1.42  39 1.43
  81  0.904  0.238  0.500-   3 1.42  39 1.42  40 1.42
  82  0.904  0.381  0.500-  41 1.42   4 1.42  40 1.43
  83  0.904  0.523  0.500-  42 1.42  41 1.43   5 1.43
  84  0.903  0.666  0.501-  43 1.42  42 1.43   6 1.43
  85  0.903  0.809  0.500-  43 1.42  44 1.43   7 1.43
  86  0.904  0.951  0.500-  44 1.42  38 1.43   1 1.43
  87  0.467  0.356  0.503-  24 1.09
  88  0.402  0.419  0.505-  61 1.09
  89  0.402  0.554  0.505-  62 1.09
  90  0.642  0.679  0.519-  36 1.09
  91  0.642  0.535  0.519-  35 1.09
  92  0.467  0.682  0.504-  25 1.09
  93  0.556  0.609  0.421-  97 0.97
  94  0.557  0.520  0.421-  97 0.97
  95  0.620  0.379  0.502-  34 1.35  29 1.35
  96  0.620  0.812  0.502-  37 1.35  30 1.35
  97  0.518  0.545  0.430-  94 0.97  93 0.97
 

IMPORTANT INFORMATION: All symmetrisations will be switched off!
NOSYMM: (Re-)initialisation of all symmetry stuff for point group C_1.


----------------------------------------------------------------------------------------

                                     Primitive cell                                     

  volume of cell :    3874.8846

  direct lattice vectors                    reciprocal lattice vectors
    17.271038055  0.000000000  0.000000000     0.057900399  0.033428811  0.000000000
    -8.635519028 14.957157706  0.000000000     0.000000000  0.066857622  0.000000000
     0.000000000  0.000000000 15.000000000     0.000000000  0.000000000  0.066666667

  length of vectors
    17.271038055 17.271038055 15.000000000     0.066857622  0.066857622  0.066666667

  position of ions in fractional coordinates (direct lattice)
     0.998946094  0.999231333  0.498959055
     0.998945593  0.142047479  0.499785721
     0.999029830  0.285197820  0.500345765
     0.998939685  0.428257798  0.500246590
     0.998979384  0.571096629  0.499456228
     0.999174198  0.713758940  0.499096726
     0.999149061  0.856795214  0.498977420
     0.142577512  0.000005628  0.498968411
     0.142200617  0.142524958  0.500131649
     0.141331848  0.284679414  0.501484830
     0.141325239  0.427996249  0.501830437
     0.142201763  0.571017308  0.500815557
     0.142603547  0.713953094  0.499353700
     0.142550862  0.856961055  0.498743601
     0.285731644  0.000006930  0.499014409
     0.285980078  0.143070819  0.500290060
     0.285530256  0.286810776  0.502707155
     0.282908090  0.427104708  0.504245166
     0.285509472  0.570012619  0.503229179
     0.285976198  0.714228486  0.500853363
     0.285739147  0.857078944  0.499236753
     0.428630158  0.999979571  0.499144158
     0.429279608  0.143513853  0.499725032
     0.428072256  0.283682421  0.501687582
     0.428075219  0.715705267  0.502451986
     0.429280902  0.857082610  0.500099146
     0.571197715  0.999938251  0.499737710
     0.571217739  0.142651824  0.499503412
     0.574608280  0.288577561  0.500716690
     0.574611044  0.857423084  0.501172825
     0.714052044  0.000341738  0.500260021
     0.713963637  0.142684811  0.499491287
     0.714068707  0.285137389  0.500123524
     0.709686576  0.424328092  0.502571178
     0.714628718  0.571280422  0.510643309
     0.714628907  0.714736076  0.510640085
     0.709709693  0.856790501  0.502655593
     0.856065803  0.999339321  0.500117932
     0.856492938  0.142568534  0.499731321
     0.856509350  0.285348919  0.499820909
     0.856086429  0.428135379  0.500368960
     0.855171294  0.570272722  0.501099716
     0.856244637  0.713808253  0.502167216
     0.855147359  0.856260134  0.500894017
     0.046832180  0.094601505  0.499481685
     0.046119044  0.237066549  0.500454771
     0.046121378  0.380425545  0.500778821
     0.046835062  0.523584346  0.500107892
     0.046977191  0.666407963  0.499104859
     0.046826311  0.809100362  0.498817860
     0.046952776  0.951932023  0.498765913
     0.190303888  0.095049069  0.499761837
     0.189549762  0.237656332  0.501461052
     0.187716088  0.379545327  0.502535975
     0.189546038  0.523221343  0.502053064
     0.190310084  0.666595832  0.500304671
     0.190396975  0.809457622  0.499050042
     0.190403702  0.952323019  0.498842132
     0.333821524  0.095746526  0.499580348
     0.334636922  0.238568406  0.501627130
     0.329339473  0.379499614  0.504513026
     0.329335747  0.521129417  0.504695982
     0.334636435  0.667376974  0.502285592
     0.333809809  0.809392848  0.499992349
     0.333160055  0.952258616  0.498992437
     0.476215798  0.095172761  0.499329330
     0.476920624  0.239230294  0.500534568
     0.476913962  0.809003460  0.501117595
     0.476210367  0.952383212  0.499529306
     0.618641183  0.095010440  0.499468215
     0.619344638  0.238085030  0.500086694
     0.619342784  0.952661074  0.500435648
     0.761652477  0.095482206  0.499644428
     0.761649536  0.237572557  0.499639627
     0.760716938  0.379938804  0.500993968
     0.758745952  0.522626499  0.504535205
     0.760468127  0.665924501  0.508021206
     0.758737004  0.807509692  0.504450194
     0.760702542  0.952209819  0.500982678
     0.903673923  0.094328668  0.499759491
     0.903987427  0.237688436  0.499846109
     0.903700681  0.380747960  0.500012057
     0.903541604  0.523479994  0.499932953
     0.903313937  0.665737701  0.500552290
     0.903286222  0.808933283  0.500419514
     0.903506047  0.951419870  0.499583467
     0.466547308  0.356303561  0.502880493
     0.401876486  0.419130535  0.504797769
     0.401872496  0.554069596  0.504922644
     0.642240629  0.678995208  0.518759351
     0.642235717  0.534647186  0.518714890
     0.466552782  0.681568166  0.503825222
     0.556129641  0.608510926  0.420760971
     0.557002803  0.519851718  0.420551419
     0.619616247  0.379110531  0.501727943
     0.619638785  0.811922236  0.502055648
     0.517889333  0.544539195  0.430224137

  ion indices of the primitive-cell ions
   primitive index   ion index
                 1           1
                 2           2
                 3           3
                 4           4
                 5           5
                 6           6
                 7           7
                 8           8
                 9           9
                10          10
                11          11
                12          12
                13          13
                14          14
                15          15
                16          16
                17          17
                18          18
                19          19
                20          20
                21          21
                22          22
                23          23
                24          24
                25          25
                26          26
                27          27
                28          28
                29          29
                30          30
                31          31
                32          32
                33          33
                34          34
                35          35
                36          36
                37          37
                38          38
                39          39
                40          40
                41          41
                42          42
                43          43
                44          44
                45          45
                46          46
                47          47
                48          48
                49          49
                50          50
                51          51
                52          52
                53          53
                54          54
                55          55
                56          56
                57          57
                58          58
                59          59
                60          60
                61          61
                62          62
                63          63
                64          64
                65          65
                66          66
                67          67
                68          68
                69          69
                70          70
                71          71
                72          72
                73          73
                74          74
                75          75
                76          76
                77          77
                78          78
                79          79
                80          80
                81          81
                82          82
                83          83
                84          84
                85          85
                86          86
                87          87
                88          88
                89          89
                90          90
                91          91
                92          92
                93          93
                94          94
                95          95
                96          96
                97          97

----------------------------------------------------------------------------------------

 
 
 KPOINTS: Automatic mesh                          

Automatic generation of k-mesh.
 Grid dimensions read from file:
 generate k-points for:    2    2    1

 Generating k-lattice:

  Cartesian coordinates                     Fractional coordinates (reciprocal lattice)
     0.028950200  0.016714406  0.000000000     0.500000000  0.000000000  0.000000000
     0.000000000  0.033428811  0.000000000     0.000000000  0.500000000  0.000000000
     0.000000000  0.000000000  0.066666667     0.000000000  0.000000000  1.000000000

  Length of vectors
     0.033428811  0.033428811  0.066666667

  Shift w.r.t. Gamma in fractional coordinates (k-lattice)
     0.000000000  0.000000000  0.000000000

 
 Subroutine IBZKPT returns following result:
 ===========================================
 
 Found      4 irreducible k-points:
 
 Following reciprocal coordinates:
            Coordinates               Weight
  0.000000  0.000000  0.000000      1.000000
  0.500000  0.000000  0.000000      1.000000
  0.000000  0.500000  0.000000      1.000000
  0.500000  0.500000  0.000000      1.000000
 
 Following cartesian coordinates:
            Coordinates               Weight
  0.000000  0.000000  0.000000      1.000000
  0.028950  0.016714  0.000000      1.000000
  0.000000  0.033429  0.000000      1.000000
  0.028950  0.050143  0.000000      1.000000
 


--------------------------------------------------------------------------------------------------------




 Dimension of arrays:
   k-points           NKPTS =      4   k-points in BZ     NKDIM =      4   number of bands    NBANDS=    265
   number of dos      NEDOS =    301   number of ions     NIONS =     97
   non local maximal  LDIM  =      4   non local SUM 2l+1 LMDIM =      8
   total plane-waves  NPLWV = 774144
   max r-space proj   IRMAX =   1673   max aug-charges    IRDMAX=  20933
   dimension x,y,z NGX =    96 NGY =   96 NGZ =   84
   dimension x,y,z NGXF=   192 NGYF=  192 NGZF=  168
   support grid    NGXF=   384 NGYF=  384 NGZF=  336
   ions per type =              86   8   2   1
   NGX,Y,Z   is equivalent  to a cutoff of   9.24,  9.24,  9.31 a.u.
   NGXF,Y,Z  is equivalent  to a cutoff of  18.48, 18.48, 18.62 a.u.

 SYSTEM =  unknown system                          
 POSCAR =  C    H    N    O                        

 Startparameter for this run:
   NWRITE =      2    write-flag & timer
   PREC   = normal    normal or accurate (medium, high low for compatibility)
   ISTART =      0    job   : 0-new  1-cont  2-samecut
   ICHARG =      2    charge: 1-file 2-atom 10-const
   ISPIN  =      2    spin polarized calculation?
   LNONCOLLINEAR =      F non collinear calculations
   LSORBIT =      F    spin-orbit coupling
   INIWAV =      1    electr: 0-lowe 1-rand  2-diag
   LASPH  =      T    aspherical Exc in radial PAW
 Electronic Relaxation 1
   ENCUT  =  520.0 eV  38.22 Ry    6.18 a.u.  32.11 32.11 27.89*2*pi/ulx,y,z
   ENINI  =  520.0     initial cutoff
   ENAUG  =  644.9 eV  augmentation charge cutoff
   NELM   =    200;   NELMIN=  2; NELMDL= -5     # of ELM steps 
   EDIFF  = 0.1E-04   stopping-criterion for ELM
   LREAL  =      T    real-space projection
   NLSPLINE    = F    spline interpolate recip. space projectors
   LCOMPAT=      F    compatible to vasp.4.4
   GGA_COMPAT  = T    GGA compatible to vasp.4.4-vasp.4.6
   LMAXPAW     = -100 max onsite density
   LMAXMIX     =    2 max onsite mixed and CHGCAR
   VOSKOWN=      0    Vosko Wilk Nusair interpolation
   ROPT   =   -0.00050  -0.00050  -0.00050  -0.00050
 Ionic relaxation
   EDIFFG = -.3E-01   stopping-criterion for IOM
   NSW    =    300    number of steps for IOM
   NBLOCK =      1;   KBLOCK =    300    inner block; outer block 
   IBRION =      3    ionic relax: 0-MD 1-quasi-New 2-CG
   NFREE  =      0    steps in history (QN), initial steepest desc. (CG)
   ISIF   =      2    stress and relaxation
   IWAVPR =     11    prediction:  0-non 1-charg 2-wave 3-comb
   ISYM   =      0    0-nonsym 1-usesym 2-fastsym
   LCORR  =      T    Harris-Foulkes like correction to forces

   POTIM  = 0.0000    time-step for ionic-motion
   TEIN   =    0.0    initial temperature
   TEBEG  =    0.0;   TEEND  =   0.0 temperature during run
   SMASS  =  -3.00    Nose mass-parameter (am)
   estimated Nose-frequenzy (Omega)   =  0.10E-29 period in steps = 0.00E+00 mass=  -0.682E-26a.u.
   SCALEE = 1.0000    scale energy and forces
   NPACO  =    256;   APACO  = 10.0  distance and # of slots for P.C.
   PSTRESS=    0.0 pullay stress

  Mass of Ions in am
   POMASS =  12.01  1.00 14.00 16.00
  Ionic Valenz
   ZVAL   =   4.00  1.00  5.00  6.00
  Atomic Wigner-Seitz radii
   RWIGS  =  -1.00 -1.00 -1.00 -1.00
  virtual crystal weights 
   VCA    =   1.00  1.00  1.00  1.00
   NELECT =     368.0000    total number of electrons
   NUPDOWN=      -1.0000    fix difference up-down

 DOS related values:
   EMIN   =  10.00;   EMAX   =-10.00  energy-range for DOS
   EFERMI =   0.00;   METHOD = LEGACY      
   ISMEAR =     0;   SIGMA  =   0.05  broadening in eV -4-tet -1-fermi 0-gaus

 Electronic relaxation 2 (details)
   IALGO  =     38    algorithm
   LDIAG  =      T    sub-space diagonalisation (order eigenvalues)
   LSUBROT=      F    optimize rotation matrix (better conditioning)
   TURBO    =      0    0=normal 1=particle mesh
   IRESTART =      0    0=no restart 2=restart with 2 vectors
   NREBOOT  =      0    no. of reboots
   NMIN     =      0    reboot dimension
   EREF     =   0.00    reference energy to select bands
   IMIX   =      4    mixing-type and parameters
     AMIX     =   0.20;   BMIX     =  0.00
     AMIX_MAG =   0.80;   BMIX_MAG =  0.00
     AMIN     =   0.10
     WC   =   100.;   INIMIX=   1;  MIXPRE=   1;  MAXMIX= -45

 Intra band minimization:
   WEIMIN = 0.0010     energy-eigenvalue tresh-hold
   EBREAK =  0.94E-08  absolut break condition
   DEPER  =   0.30     relativ break condition  

   TIME   =   0.40     timestep for ELM

  volume/ion in A,a.u.               =      39.95       269.58
  Fermi-wavevector in a.u.,A,eV,Ry     =   0.746915  1.411465  7.590446  0.557882
  Thomas-Fermi vector in A             =   1.842848
 
 Write flags
   LWAVE        =      F    write WAVECAR
   LDOWNSAMPLE  =      F    k-point downsampling of WAVECAR
   LCHARG       =      F    write CHGCAR
   LVTOT        =      F    write LOCPOT, total local potential
   LVHAR        =      F    write LOCPOT, Hartree potential only
   LELF         =      F    write electronic localiz. function (ELF)
   LORBIT       =      0    0 simple, 1 ext, 2 COOP (PROOUT), +10 PAW based schemes


 Dipole corrections
   LMONO  =      F    monopole corrections only (constant potential shift)
   LDIPOL =      F    correct potential (dipole corrections)
   IDIPOL =      0    1-x, 2-y, 3-z, 4-all directions 
   EPSILON=  1.0000000 bulk dielectric constant

 Exchange correlation treatment:
   GGA     =    --    GGA type
   LEXCH   =     8    internal setting for exchange type
   LIBXC   =     F    Libxc                    
   VOSKOWN =     0    Vosko Wilk Nusair interpolation
   LHFCALC =     F    Hartree Fock is set to
   LHFONE  =     F    Hartree Fock one center treatment
   AEXX    =    0.0000 exact exchange contribution

 Linear response parameters
   LEPSILON=     F    determine dielectric tensor
   LRPA    =     F    only Hartree local field effects (RPA)
   LNABLA  =     F    use nabla operator in PAW spheres
   LVEL    =     F    velocity operator in full k-point grid
   CSHIFT  =0.1000    complex shift for real part using Kramers Kronig
   OMEGAMAX=  -1.0    maximum frequency
   DEG_THRESHOLD= 0.2000000E-02 threshold for treating states as degnerate
   RTIME   =   -0.100 relaxation time in fs
  (WPLASMAI=    0.000 imaginary part of plasma frequency in eV, 0.658/RTIME)
   DFIELD  = 0.0000000 0.0000000 0.0000000 field for delta impulse in time
 
  Optional k-point grid parameters
   LKPOINTS_OPT  =     F    use optional k-point grid
   KPOINTS_OPT_MODE=     1    mode for optional k-point grid
 
 Orbital magnetization related:
   ORBITALMAG=     F  switch on orbital magnetization
   LCHIMAG   =     F  perturbation theory with respect to B field
   DQ        =  0.001000  dq finite difference perturbation B field
   LLRAUG    =     F  two centre corrections for induced B field
   LBONE     =     F  B-component reconstruction in AE one-centre
   LVGVCALC  =     T  calculate vGv susceptibility
   LVGVAPPL  =     F  apply vGv susceptibility instead of pGv for G=0

 Random number generation:
   RANDOM_GENERATOR = DEFAULT
   PCG_SEED         = not used


--------------------------------------------------------------------------------------------------------


 quickmin algorithm: (dynamic with friction)
   using selective dynamics as specified on POSCAR
 charge density and potential will be updated during run
 spin polarized calculation
 Variant of blocked Davidson
 Davidson routine will perform the subspace rotation
 perform sub-space diagonalisation
    after iterative eigenvector-optimisation
 modified Broyden-mixing scheme, WC =      100.0
 initial mixing is a Kerker type mixing with AMIX =  0.2000 and BMIX =      0.0001
 Hartree-type preconditioning will be used
 using additional bands           81
 real space projection scheme for non local part
 use partial core corrections
 calculate Harris-corrections to forces 
   (improved forces if not selfconsistent)
 use gradient corrections 
 use of overlap-Matrix (Vanderbilt PP)
 Gauss-broadening in eV      SIGMA  =   0.05


--------------------------------------------------------------------------------------------------------


  energy-cutoff  :      520.00
  volume of cell :     3874.88
      direct lattice vectors                 reciprocal lattice vectors
    17.271038055  0.000000000  0.000000000     0.057900399  0.033428811  0.000000000
    -8.635519028 14.957157706  0.000000000     0.000000000  0.066857622  0.000000000
     0.000000000  0.000000000 15.000000000     0.000000000  0.000000000  0.066666667

  length of vectors
    17.271038055 17.271038055 15.000000000     0.066857622  0.066857622  0.066666667


 
 k-points in units of 2pi/SCALE and weight: Automatic mesh                          
   0.00000000  0.00000000  0.00000000       0.250
   0.02895020  0.01671441  0.00000000       0.250
   0.00000000  0.03342881  0.00000000       0.250
   0.02895020  0.05014322  0.00000000       0.250
 
 k-points in reciprocal lattice and weights: Automatic mesh                          
   0.00000000  0.00000000  0.00000000       0.250
   0.50000000  0.00000000  0.00000000       0.250
   0.00000000  0.50000000  0.00000000       0.250
   0.50000000  0.50000000  0.00000000       0.250
 
 position of ions in fractional coordinates (direct lattice) 
   0.99894609  0.99923133  0.49895905
   0.99894559  0.14204748  0.49978572
   0.99902983  0.28519782  0.50034577
   0.99893968  0.42825780  0.50024659
   0.99897938  0.57109663  0.49945623
   0.99917420  0.71375894  0.49909673
   0.99914906  0.85679521  0.49897742
   0.14257751  0.00000563  0.49896841
   0.14220062  0.14252496  0.50013165
   0.14133185  0.28467941  0.50148483
   0.14132524  0.42799625  0.50183044
   0.14220176  0.57101731  0.50081556
   0.14260355  0.71395309  0.49935370
   0.14255086  0.85696105  0.49874360
   0.28573164  0.00000693  0.49901441
   0.28598008  0.14307082  0.50029006
   0.28553026  0.28681078  0.50270715
   0.28290809  0.42710471  0.50424517
   0.28550947  0.57001262  0.50322918
   0.28597620  0.71422849  0.50085336
   0.28573915  0.85707894  0.49923675
   0.42863016  0.99997957  0.49914416
   0.42927961  0.14351385  0.49972503
   0.42807226  0.28368242  0.50168758
   0.42807522  0.71570527  0.50245199
   0.42928090  0.85708261  0.50009915
   0.57119771  0.99993825  0.49973771
   0.57121774  0.14265182  0.49950341
   0.57460828  0.28857756  0.50071669
   0.57461104  0.85742308  0.50117282
   0.71405204  0.00034174  0.50026002
   0.71396364  0.14268481  0.49949129
   0.71406871  0.28513739  0.50012352
   0.70968658  0.42432809  0.50257118
   0.71462872  0.57128042  0.51064331
   0.71462891  0.71473608  0.51064009
   0.70970969  0.85679050  0.50265559
   0.85606580  0.99933932  0.50011793
   0.85649294  0.14256853  0.49973132
   0.85650935  0.28534892  0.49982091
   0.85608643  0.42813538  0.50036896
   0.85517129  0.57027272  0.50109972
   0.85624464  0.71380825  0.50216722
   0.85514736  0.85626013  0.50089402
   0.04683218  0.09460150  0.49948169
   0.04611904  0.23706655  0.50045477
   0.04612138  0.38042554  0.50077882
   0.04683506  0.52358435  0.50010789
   0.04697719  0.66640796  0.49910486
   0.04682631  0.80910036  0.49881786
   0.04695278  0.95193202  0.49876591
   0.19030389  0.09504907  0.49976184
   0.18954976  0.23765633  0.50146105
   0.18771609  0.37954533  0.50253598
   0.18954604  0.52322134  0.50205306
   0.19031008  0.66659583  0.50030467
   0.19039698  0.80945762  0.49905004
   0.19040370  0.95232302  0.49884213
   0.33382152  0.09574653  0.49958035
   0.33463692  0.23856841  0.50162713
   0.32933947  0.37949961  0.50451303
   0.32933575  0.52112942  0.50469598
   0.33463643  0.66737697  0.50228559
   0.33380981  0.80939285  0.49999235
   0.33316006  0.95225862  0.49899244
   0.47621580  0.09517276  0.49932933
   0.47692062  0.23923029  0.50053457
   0.47691396  0.80900346  0.50111760
   0.47621037  0.95238321  0.49952931
   0.61864118  0.09501044  0.49946821
   0.61934464  0.23808503  0.50008669
   0.61934278  0.95266107  0.50043565
   0.76165248  0.09548221  0.49964443
   0.76164954  0.23757256  0.49963963
   0.76071694  0.37993880  0.50099397
   0.75874595  0.52262650  0.50453520
   0.76046813  0.66592450  0.50802121
   0.75873700  0.80750969  0.50445019
   0.76070254  0.95220982  0.50098268
   0.90367392  0.09432867  0.49975949
   0.90398743  0.23768844  0.49984611
   0.90370068  0.38074796  0.50001206
   0.90354160  0.52347999  0.49993295
   0.90331394  0.66573770  0.50055229
   0.90328622  0.80893328  0.50041951
   0.90350605  0.95141987  0.49958347
   0.46654731  0.35630356  0.50288049
   0.40187649  0.41913054  0.50479777
   0.40187250  0.55406960  0.50492264
   0.64224063  0.67899521  0.51875935
   0.64223572  0.53464719  0.51871489
   0.46655278  0.68156817  0.50382522
   0.55612964  0.60851093  0.42076097
   0.55700280  0.51985172  0.42055142
   0.61961625  0.37911053  0.50172794
   0.61963879  0.81192224  0.50205565
   0.51788933  0.54453919  0.43022414
 
 position of ions in cartesian coordinates  (Angst):
   8.62395482 14.94566064  7.48438582
  16.02617365  2.12462654  7.49678581
  14.79145101  4.26574877  7.50518648
  13.55449695  6.40551942  7.50369885
  12.32169515  8.54198235  7.49184342
  11.09309669 10.67580503  7.48645088
   9.85747008 12.81522114  7.48466130
   2.46241304  0.00008418  7.48452617
   1.22517528  2.13176828  7.50197473
  -0.01740677  4.25799489  7.52227245
  -1.25513616  6.40160739  7.52745656
  -2.47505876  8.54079593  7.51223336
  -3.70244424 10.67870901  7.49030550
  -4.93830213 12.81770164  7.48115401
   4.93482225  0.00010366  7.48521614
   3.70368203  2.13993281  7.50435091
   2.45464401  4.28987400  7.54060732
   1.19784555  6.38827247  7.56367749
   0.00869013  8.52576864  7.54843769
  -1.22862789 10.68282810  7.51280044
  -2.46630986 12.81946493  7.48855130
  -1.23245484 14.95685214  7.48716238
   6.17478783  2.14655934  7.49587548
   4.94350729  4.24308270  7.52531373
   1.21281695 10.70491655  7.53677979
   0.01277360 12.81951977  7.50148720
   1.23019168 14.95623412  7.49606565
   8.63365077  2.13366582  7.49255118
   7.43206445  4.31630009  7.51075035
   2.51983585 12.82461229  7.51759237
  12.32946895  0.00511143  7.50390031
  11.09873574  2.13415922  7.49236931
   9.87039846  4.26484489  7.50185286
   8.59273054  6.34674219  7.53856767
   7.40907683  8.54473137  7.65964964
   6.17026607 10.69042021  7.65960128
   4.85859245 12.81515064  7.53983390
   6.15533134 14.94727582  7.50176899
  13.56136884  2.13242005  7.49596981
  12.32866957  4.26800878  7.49731364
  11.08833008  6.40368838  7.50553439
   9.84509502  8.52965904  7.51649574
   8.62412896 10.67654261  7.53250824
   7.37503190 12.80721786  7.51341026
  -0.00809273  1.41496962  7.49222528
  -1.25066893  3.54584176  7.50682157
  -2.48860795  5.69008487  7.51168231
  -3.71253245  7.83133363  7.50161838
  -4.94343379  9.96756900  7.48657289
  -6.17826257 12.10184171  7.48226790
  -7.40950392 14.23819740  7.48148870
   2.46594764  1.42166391  7.49642756
   1.22143537  3.55466323  7.52191578
  -0.03551919  5.67691931  7.53803963
  -1.24463103  7.82590415  7.53079595
  -2.46954829  9.97037899  7.50457006
  -3.70173329 12.10718531  7.48575063
  -4.93533396 14.24404559  7.48263198
   4.93862329  1.43209589  7.49370522
   3.71936501  3.56830527  7.52440695
   2.41085843  5.67623557  7.56769539
   1.18774723  7.79461487  7.57043973
   0.01637205  9.98206265  7.53428388
  -1.22428542 12.10621648  7.49988523
  -2.46922740 14.24308230  7.48488655
   7.40287498  1.42351399  7.48993995
   6.17103649  3.57820523  7.50801852
   1.25063441 12.10039233  7.51676393
   0.00032402 14.24494590  7.49293959
   9.86411095  1.42108613  7.49202322
   8.64073701  3.56107534  7.50130040
   2.46996997 14.24910192  7.50653471
  12.32999051  1.42814241  7.49466642
  11.10291579  3.55341020  7.49459440
   9.85740241  5.68280461  7.51490951
   8.59117913  7.81700697  7.56802807
   7.38347027  9.96033778  7.62031809
   6.13091036 12.07804981  7.56675290
   4.91529654 14.24235244  7.51474017
  14.79280971  1.41088876  7.49639236
  13.56023824  3.55514343  7.49769164
  12.31989260  5.69490728  7.50018086
  11.08457998  7.82977283  7.49899430
   9.85217879  9.95754378  7.50828435
   8.61513196 12.09934268  7.50629271
   7.38848292 14.23053704  7.49375200
   4.98089014  5.32928855  7.54320740
   3.32141437  6.26900152  7.57196654
   2.15607663  8.28730633  7.57383965
   5.22868630 10.15583840  7.78139026
   6.47512155  7.99680228  7.78072334
   2.17215598 10.19432254  7.55737833
   4.35012851  9.10159389  6.31141457
   5.13082720  7.77550413  6.30827128
   7.42759957  5.67041600  7.52591915
   3.69043512 12.14404893  7.53083472
   4.24210780  8.14475861  6.45336206
 


--------------------------------------------------------------------------------------------------------


 k-point   1 :   0.0000 0.0000 0.0000  plane waves:  104449
 k-point   2 :   0.5000 0.0000 0.0000  plane waves:  104264
 k-point   3 :   0.0000 0.5000 0.0000  plane waves:  104264
 k-point   4 :   0.5000 0.5000 0.0000  plane waves:  104264

 maximum and minimum number of plane-waves per node :    104449   104264

 maximum number of plane-waves:    104449
 maximum index in each direction: 
   IXMAX=   32   IYMAX=   32   IZMAX=   27
   IXMIN=  -32   IYMIN=  -32   IZMIN=  -27


 serial   3D FFT for wavefunctions
 parallel 3D FFT for charge:
    minimum data exchange during FFTs selected (reduces bandwidth)


 total amount of memory used by VASP MPI-rank0  1122711. kBytes
=======================================================================

   base      :      30000. kBytes
   nonlr-proj:       9004. kBytes
   fftplans  :     185212. kBytes
   grid      :     184190. kBytes
   one-center:        595. kBytes
   wavefun   :     713710. kBytes
 
     INWAV:  cpu time      0.0000: real time      0.0000
 Broyden mixing: mesh for mixing (old mesh)
   NGX = 65   NGY = 65   NGZ = 55
  (NGX  =192   NGY  =192   NGZ  =168)
  gives a total of 232375 points

 initial charge density was supplied:
 charge density of overlapping atoms calculated
 number of electron     368.0000000 magnetization      58.2000000
 keeping initial charge density in first step


--------------------------------------------------------------------------------------------------------


 Maximum index for non-local projection operator         1579
 Maximum index for augmentation-charges         4013 (set IRDMAX)


--------------------------------------------------------------------------------------------------------


 First call to EWALD:  gamma=   0.113
 Maximum number of real-space cells 3x 3x 3
 Maximum number of reciprocal cells 3x 3x 3

    FEWALD:  cpu time      0.0048: real time      0.0049


--------------------------------------- Ionic step        1  -------------------------------------------




--------------------------------------- Iteration      1(   1)  ---------------------------------------


    POTLOK:  cpu time      2.3093: real time      2.3602
    SETDIJ:  cpu time      2.9077: real time      2.9230
     EDDAV:  cpu time     72.4541: real time     72.8860
       DOS:  cpu time      0.0012: real time      0.0208
    --------------------------------------------
      LOOP:  cpu time     77.6725: real time     78.1900

 eigenvalue-minimisations  :  4560
 total energy-change (2. order) : 0.3274891E+04  (-0.1374494E+05)
 number of electron     368.0000000 magnetization      58.2000000
 augmentation part      368.0000000 magnetization      58.2000000

 Free energy of the ion-electron system (eV)
  ---------------------------------------------------
  alpha Z        PSCENC =       175.87611319
  Ewald energy   TEWEN  =     36488.74422497
  -Hartree energ DENC   =    -46688.62442547
  -exchange      EXHF   =         0.00000000
  -V(xc)+E(xc)   XCENC  =      1223.87914687
  PAW double counting   =     10101.41315093   -10154.35997595
  entropy T*S    EENTRO =        -0.04618914
  eigenvalues    EBANDS =     -1588.12181776
  atomic energy  EATOM  =     13716.13071916
  Solvation  Ediel_sol  =         0.00000000
  ---------------------------------------------------
  free energy    TOTEN  =      3274.89094679 eV

  energy without entropy =     3274.93713593  energy(sigma->0) =     3274.91404136


--------------------------------------------------------------------------------------------------------




--------------------------------------- Iteration      1(   2)  ---------------------------------------


     EDDAV:  cpu time     95.1096: real time     95.7093
       DOS:  cpu time      0.0008: real time      0.0141
    --------------------------------------------
      LOOP:  cpu time     95.1104: real time     95.7233

 eigenvalue-minimisations  :  6400
 total energy-change (2. order) :-0.3524156E+04  (-0.3320013E+04)
 number of electron     368.0000000 magnetization      58.2000000
 augmentation part      368.0000000 magnetization      58.2000000

 Free energy of the ion-electron system (eV)
  ---------------------------------------------------
  alpha Z        PSCENC =       175.87611319
  Ewald energy   TEWEN  =     36488.74422497
  -Hartree energ DENC   =    -46688.62442547
  -exchange      EXHF   =         0.00000000
  -V(xc)+E(xc)   XCENC  =      1223.87914687
  PAW double counting   =     10101.41315093   -10154.35997595
  entropy T*S    EENTRO =        -0.00005948
  eigenvalues    EBANDS =     -5112.32377885
  atomic energy  EATOM  =     13716.13071916
  Solvation  Ediel_sol  =         0.00000000
  ---------------------------------------------------
  free energy    TOTEN  =      -249.26488464 eV

  energy without entropy =     -249.26482516  energy(sigma->0) =     -249.26485490


--------------------------------------------------------------------------------------------------------




--------------------------------------- Iteration      1(   3)  ---------------------------------------


     EDDAV:  cpu time     82.2025: real time     82.7268
       DOS:  cpu time      0.0008: real time      0.0145
    --------------------------------------------
      LOOP:  cpu time     82.2033: real time     82.7413

 eigenvalue-minimisations  :  5340
 total energy-change (2. order) :-0.6150569E+03  (-0.6123155E+03)
 number of electron     368.0000000 magnetization      58.2000000
 augmentation part      368.0000000 magnetization      58.2000000

 Free energy of the ion-electron system (eV)
  ---------------------------------------------------
  alpha Z        PSCENC =       175.87611319
  Ewald energy   TEWEN  =     36488.74422497
  -Hartree energ DENC   =    -46688.62442547
  -exchange      EXHF   =         0.00000000
  -V(xc)+E(xc)   XCENC  =      1223.87914687
  PAW double counting   =     10101.41315093   -10154.35997595
  entropy T*S    EENTRO =        -0.00000223
  eigenvalues    EBANDS =     -5727.38074168
  atomic energy  EATOM  =     13716.13071916
  Solvation  Ediel_sol  =         0.00000000
  ---------------------------------------------------
  free energy    TOTEN  =      -864.32179021 eV

  energy without entropy =     -864.32178799  energy(sigma->0) =     -864.32178910


--------------------------------------------------------------------------------------------------------




--------------------------------------- Iteration      1(   4)  ---------------------------------------


     EDDAV:  cpu time     83.2177: real time     83.7657
       DOS:  cpu time      0.0008: real time      0.0146
    --------------------------------------------
      LOOP:  cpu time     83.2185: real time     83.7803

 eigenvalue-minimisations  :  5430
 total energy-change (2. order) :-0.2221138E+02  (-0.2213232E+02)
 number of electron     368.0000000 magnetization      58.2000000
 augmentation part      368.0000000 magnetization      58.2000000

 Free energy of the ion-electron system (eV)
  ---------------------------------------------------
  alpha Z        PSCENC =       175.87611319
  Ewald energy   TEWEN  =     36488.74422497
  -Hartree energ DENC   =    -46688.62442547
  -exchange      EXHF   =         0.00000000
  -V(xc)+E(xc)   XCENC  =      1223.87914687
  PAW double counting   =     10101.41315093   -10154.35997595
  entropy T*S    EENTRO =        -0.00000149
  eigenvalues    EBANDS =     -5749.59212625
  atomic energy  EATOM  =     13716.13071916
  Solvation  Ediel_sol  =         0.00000000
  ---------------------------------------------------
  free energy    TOTEN  =      -886.53317405 eV

  energy without entropy =     -886.53317255  energy(sigma->0) =     -886.53317330


--------------------------------------------------------------------------------------------------------




--------------------------------------- Iteration      1(   5)  ---------------------------------------


     EDDAV:  cpu time     91.4479: real time     92.0441
       DOS:  cpu time      0.0009: real time      0.0166
    CHARGE:  cpu time      5.3471: real time      5.3780
    MIXING:  cpu time      0.0469: real time      0.0472
    --------------------------------------------
      LOOP:  cpu time     96.8429: real time     97.4860

 eigenvalue-minimisations  :  6060
 total energy-change (2. order) :-0.6316786E+00  (-0.6309153E+00)
 number of electron     367.9999999 magnetization      12.4400107
 augmentation part       10.6105539 magnetization      11.5150872

 Broyden mixing:
  rms(total) = 0.51795E+01    rms(broyden)= 0.51789E+01
  rms(prec ) = 0.56430E+01
  weight for this iteration     100.00

 Free energy of the ion-electron system (eV)
  ---------------------------------------------------
  alpha Z        PSCENC =       175.87611319
  Ewald energy   TEWEN  =     36488.74422497
  -Hartree energ DENC   =    -46688.62442547
  -exchange      EXHF   =         0.00000000
  -V(xc)+E(xc)   XCENC  =      1223.87914687
  PAW double counting   =     10101.41315093   -10154.35997595
  entropy T*S    EENTRO =        -0.00000155
  eigenvalues    EBANDS =     -5750.22380482
  atomic energy  EATOM  =     13716.13071916
  Solvation  Ediel_sol  =         0.00000000
  ---------------------------------------------------
  free energy    TOTEN  =      -887.16485268 eV

  energy without entropy =     -887.16485113  energy(sigma->0) =     -887.16485190


--------------------------------------------------------------------------------------------------------




--------------------------------------- Iteration      1(   6)  ---------------------------------------


    POTLOK:  cpu time      2.0248: real time      2.0700
    SETDIJ:  cpu time      2.7395: real time      2.7500
     EDDAV:  cpu time     79.6080: real time     80.1132
       DOS:  cpu time      0.0009: real time      0.0145
    CHARGE:  cpu time      5.3808: real time      5.4184
    MIXING:  cpu time      0.0611: real time      0.0614
    --------------------------------------------
      LOOP:  cpu time     89.8151: real time     90.4276

 eigenvalue-minimisations  :  5150
 total energy-change (2. order) : 0.1736199E+02  (-0.2204633E+01)
 number of electron     367.9999999 magnetization      -5.8218274
 augmentation part       10.2442684 magnetization      -5.8410947

 Broyden mixing:
  rms(total) = 0.33690E+01    rms(broyden)= 0.33689E+01
  rms(prec ) = 0.37110E+01
  weight for this iteration     100.00

 eigenvalues of (default mixing * dielectric matrix)
  average eigenvalue GAMMA=   1.4224
  1.4224

 Free energy of the ion-electron system (eV)
  ---------------------------------------------------
  alpha Z        PSCENC =       175.87611319
  Ewald energy   TEWEN  =     36488.74422497
  -Hartree energ DENC   =    -47151.61041678
  -exchange      EXHF   =         0.00000000
  -V(xc)+E(xc)   XCENC  =      1234.04608077
  PAW double counting   =     13812.70849381   -13869.50511245
  entropy T*S    EENTRO =        -0.00232939
  eigenvalues    EBANDS =     -5276.19063165
  atomic energy  EATOM  =     13716.13071916
  Solvation  Ediel_sol  =         0.00000000
  ---------------------------------------------------
  free energy    TOTEN  =      -869.80285836 eV

  energy without entropy =     -869.80052897  energy(sigma->0) =     -869.80169367


--------------------------------------------------------------------------------------------------------




--------------------------------------- Iteration      1(   7)  ---------------------------------------


    POTLOK:  cpu time      2.0020: real time      2.0456
    SETDIJ:  cpu time      2.7656: real time      2.7765
     EDDAV:  cpu time     78.4115: real time     78.8853
       DOS:  cpu time      0.0009: real time      0.0150
    CHARGE:  cpu time      5.3348: real time      5.3661
    MIXING:  cpu time      0.0662: real time      0.0696
    --------------------------------------------
      LOOP:  cpu time     88.5809: real time     89.1581

 eigenvalue-minimisations  :  5040
 total energy-change (2. order) : 0.2216802E+02  (-0.3279252E+01)
 number of electron     368.0000000 magnetization       1.3387930
 augmentation part        9.7951446 magnetization       1.3409597

 Broyden mixing:
  rms(total) = 0.20389E+01    rms(broyden)= 0.20389E+01
  rms(prec ) = 0.21612E+01
  weight for this iteration     100.00

 eigenvalues of (default mixing * dielectric matrix)
  average eigenvalue GAMMA=   2.4854
  1.2969  3.6739

 Free energy of the ion-electron system (eV)
  ---------------------------------------------------
  alpha Z        PSCENC =       175.87611319
  Ewald energy   TEWEN  =     36488.74422497
  -Hartree energ DENC   =    -47756.09819153
  -exchange      EXHF   =         0.00000000
  -V(xc)+E(xc)   XCENC  =      1255.47606850
  PAW double counting   =     20623.68817257   -20684.87459598
  entropy T*S    EENTRO =        -0.00001282
  eigenvalues    EBANDS =     -4666.57733986
  atomic energy  EATOM  =     13716.13071916
  Solvation  Ediel_sol  =         0.00000000
  ---------------------------------------------------
  free energy    TOTEN  =      -847.63484181 eV

  energy without entropy =     -847.63482899  energy(sigma->0) =     -847.63483540


--------------------------------------------------------------------------------------------------------




--------------------------------------- Iteration      1(   8)  ---------------------------------------


    POTLOK:  cpu time      1.9946: real time      2.0391
    SETDIJ:  cpu time      2.7150: real time      2.7389
     EDDAV:  cpu time     79.2345: real time     79.7288
       DOS:  cpu time      0.0007: real time      0.0146
    CHARGE:  cpu time      5.4130: real time      5.4621
    MIXING:  cpu time      0.0520: real time      0.0741
    --------------------------------------------
      LOOP:  cpu time     89.4098: real time     90.0575

 eigenvalue-minimisations  :  5120
 total energy-change (2. order) : 0.4803828E+01  (-0.2402341E+01)
 number of electron     368.0000000 magnetization      -0.8296381
 augmentation part        9.4335560 magnetization      -0.8300103

 Broyden mixing:
  rms(total) = 0.82031E+00    rms(broyden)= 0.82019E+00
  rms(prec ) = 0.84354E+00
  weight for this iteration     100.00

 eigenvalues of (default mixing * dielectric matrix)
  average eigenvalue GAMMA=   2.4560
  4.3703  1.3262  1.6714

 Free energy of the ion-electron system (eV)
  ---------------------------------------------------
  alpha Z        PSCENC =       175.87611319
  Ewald energy   TEWEN  =     36488.74422497
  -Hartree energ DENC   =    -48297.32625373
  -exchange      EXHF   =         0.00000000
  -V(xc)+E(xc)   XCENC  =      1276.13533884
  PAW double counting   =     31123.59692916   -31188.43847420
  entropy T*S    EENTRO =        -0.00000007
  eigenvalues    EBANDS =     -4137.54961123
  atomic energy  EATOM  =     13716.13071916
  Solvation  Ediel_sol  =         0.00000000
  ---------------------------------------------------
  free energy    TOTEN  =      -842.83101389 eV

  energy without entropy =     -842.83101383  energy(sigma->0) =     -842.83101386


--------------------------------------------------------------------------------------------------------




--------------------------------------- Iteration      1(   9)  ---------------------------------------


    POTLOK:  cpu time      2.0987: real time      2.1494
    SETDIJ:  cpu time      2.6406: real time      2.6513
     EDDAV:  cpu time     77.3809: real time     77.8393
       DOS:  cpu time      0.0007: real time      0.0145
    CHARGE:  cpu time      5.6186: real time      5.6519
    MIXING:  cpu time      0.0483: real time      0.0485
    --------------------------------------------
      LOOP:  cpu time     87.7876: real time     88.3549

 eigenvalue-minimisations  :  5020
 total energy-change (2. order) : 0.9963662E-01  (-0.1097920E+00)
 number of electron     368.0000000 magnetization       0.1414527
 augmentation part        9.4345177 magnetization       0.1417257

 Broyden mixing:
  rms(total) = 0.32967E+00    rms(broyden)= 0.32965E+00
  rms(prec ) = 0.34802E+00
  weight for this iteration     100.00

 eigenvalues of (default mixing * dielectric matrix)
  average eigenvalue GAMMA=   2.4315
  4.7255  1.1047  1.2238  2.6719

 Free energy of the ion-electron system (eV)
  ---------------------------------------------------
  alpha Z        PSCENC =       175.87611319
  Ewald energy   TEWEN  =     36488.74422497
  -Hartree energ DENC   =    -48269.18523651
  -exchange      EXHF   =         0.00000000
  -V(xc)+E(xc)   XCENC  =      1276.00220703
  PAW double counting   =     35267.94233601   -35332.47106906
  entropy T*S    EENTRO =        -0.00000007
  eigenvalues    EBANDS =     -4165.77067200
  atomic energy  EATOM  =     13716.13071916
  Solvation  Ediel_sol  =         0.00000000
  ---------------------------------------------------
  free energy    TOTEN  =      -842.73137728 eV

  energy without entropy =     -842.73137721  energy(sigma->0) =     -842.73137724


--------------------------------------------------------------------------------------------------------




--------------------------------------- Iteration      1(  10)  ---------------------------------------


    POTLOK:  cpu time      2.2429: real time      2.3031
    SETDIJ:  cpu time      2.6936: real time      2.7039
     EDDAV:  cpu time     76.0236: real time     76.5245
       DOS:  cpu time      0.0007: real time      0.0136
    CHARGE:  cpu time      5.7025: real time      5.7392
    MIXING:  cpu time      0.0733: real time      0.0739
    --------------------------------------------
      LOOP:  cpu time     86.7366: real time     87.3583

 eigenvalue-minimisations  :  4910
 total energy-change (2. order) : 0.9341709E-01  (-0.4578734E-01)
 number of electron     368.0000000 magnetization      -0.0101095
 augmentation part        9.4630226 magnetization      -0.0102246

 Broyden mixing:
  rms(total) = 0.96892E-01    rms(broyden)= 0.96881E-01
  rms(prec ) = 0.10743E+00
  weight for this iteration     100.00

 eigenvalues of (default mixing * dielectric matrix)
  average eigenvalue GAMMA=   2.3124
  4.7507  3.1005  0.9816  1.4711  1.2580

 Free energy of the ion-electron system (eV)
  ---------------------------------------------------
  alpha Z        PSCENC =       175.87611319
  Ewald energy   TEWEN  =     36488.74422497
  -Hartree energ DENC   =    -48210.57381321
  -exchange      EXHF   =         0.00000000
  -V(xc)+E(xc)   XCENC  =      1274.30473115
  PAW double counting   =     36995.78576418   -37059.80433360
  entropy T*S    EENTRO =        -0.00000004
  eigenvalues    EBANDS =     -4223.10136598
  atomic energy  EATOM  =     13716.13071916
  Solvation  Ediel_sol  =         0.00000000
  ---------------------------------------------------
  free energy    TOTEN  =      -842.63796018 eV

  energy without entropy =     -842.63796014  energy(sigma->0) =     -842.63796016


--------------------------------------------------------------------------------------------------------




--------------------------------------- Iteration      1(  11)  ---------------------------------------


    POTLOK:  cpu time      2.3470: real time      2.3943
    SETDIJ:  cpu time      2.9691: real time      2.9974
     EDDAV:  cpu time     75.8546: real time     76.3147
       DOS:  cpu time      0.0007: real time      0.0138
    CHARGE:  cpu time      5.4472: real time      5.4794
    MIXING:  cpu time      0.0811: real time      0.0816
    --------------------------------------------
      LOOP:  cpu time     86.6997: real time     87.2811

 eigenvalue-minimisations  :  4850
 total energy-change (2. order) : 0.1140279E-01  (-0.8971498E-02)
 number of electron     368.0000000 magnetization       0.0185008
 augmentation part        9.4633715 magnetization       0.0182273

 Broyden mixing:
  rms(total) = 0.33623E-01    rms(broyden)= 0.33609E-01
  rms(prec ) = 0.38485E-01
  weight for this iteration     100.00

 eigenvalues of (default mixing * dielectric matrix)
  average eigenvalue GAMMA=   2.1495
  4.7115  3.1133  1.6673  1.0606  1.0606  1.2839

 Free energy of the ion-electron system (eV)
  ---------------------------------------------------
  alpha Z        PSCENC =       175.87611319
  Ewald energy   TEWEN  =     36488.74422497
  -Hartree energ DENC   =    -48197.68241821
  -exchange      EXHF   =         0.00000000
  -V(xc)+E(xc)   XCENC  =      1273.89555325
  PAW double counting   =     37222.27209081   -37286.15790411
  entropy T*S    EENTRO =        -0.00000004
  eigenvalues    EBANDS =     -4235.70493641
  atomic energy  EATOM  =     13716.13071916
  Solvation  Ediel_sol  =         0.00000000
  ---------------------------------------------------
  free energy    TOTEN  =      -842.62655739 eV

  energy without entropy =     -842.62655735  energy(sigma->0) =     -842.62655737


--------------------------------------------------------------------------------------------------------




--------------------------------------- Iteration      1(  12)  ---------------------------------------


    POTLOK:  cpu time      2.2991: real time      2.3347
    SETDIJ:  cpu time      2.8886: real time      2.9004
     EDDAV:  cpu time     82.1822: real time     82.6846
       DOS:  cpu time      0.0007: real time      0.0144
    CHARGE:  cpu time      5.3867: real time      5.4182
    MIXING:  cpu time      0.0585: real time      0.0588
    --------------------------------------------
      LOOP:  cpu time     92.8158: real time     93.4113

 eigenvalue-minimisations  :  5370
 total energy-change (2. order) : 0.1807587E-02  (-0.9215109E-03)
 number of electron     368.0000000 magnetization      -0.0029327
 augmentation part        9.4629174 magnetization      -0.0030452

 Broyden mixing:
  rms(total) = 0.17880E-01    rms(broyden)= 0.17877E-01
  rms(prec ) = 0.20008E-01
  weight for this iteration     100.00

 eigenvalues of (default mixing * dielectric matrix)
  average eigenvalue GAMMA=   2.1160
  4.6615  3.1646  2.1782  1.4619  1.0403  1.0403  1.2652

 Free energy of the ion-electron system (eV)
  ---------------------------------------------------
  alpha Z        PSCENC =       175.87611319
  Ewald energy   TEWEN  =     36488.74422497
  -Hartree energ DENC   =    -48197.53632124
  -exchange      EXHF   =         0.00000000
  -V(xc)+E(xc)   XCENC  =      1273.88250304
  PAW double counting   =     37236.27912095   -37300.14270273
  entropy T*S    EENTRO =        -0.00000004
  eigenvalues    EBANDS =     -4235.85840709
  atomic energy  EATOM  =     13716.13071916
  Solvation  Ediel_sol  =         0.00000000
  ---------------------------------------------------
  free energy    TOTEN  =      -842.62474981 eV

  energy without entropy =     -842.62474977  energy(sigma->0) =     -842.62474979


[...]
   -.194E+02 0.115E+02 0.376E+00   0.195E+02 -.115E+02 -.374E+00   -.121E+00 0.556E-01 -.117E-02   0.216E-04 0.600E-03 -.676E-03
   -.395E+01 -.225E+01 0.262E+01   0.390E+01 0.221E+01 -.263E+01   0.579E-01 0.400E-01 0.300E-02   0.871E-04 0.133E-02 0.124E-02
   0.834E+01 -.123E+02 0.194E+01   -.846E+01 0.123E+02 -.195E+01   0.120E+00 0.330E-01 0.122E-02   -.500E-04 -.485E-04 0.214E-05
   0.200E+02 -.672E+02 -.195E+01   -.202E+02 0.678E+02 0.195E+01   0.244E+00 -.627E+00 0.112E-01   0.574E-04 -.150E-03 -.260E-02
   -.483E+02 0.510E+02 -.304E+01   0.487E+02 -.515E+02 0.304E+01   -.423E+00 0.519E+00 0.900E-02   -.592E-03 0.677E-03 -.321E-02
   -.650E+01 0.135E+02 0.168E+01   0.641E+01 -.136E+02 -.169E+01   0.881E-01 0.101E+00 0.309E-02   -.550E-03 0.451E-03 -.112E-02
   0.403E+01 0.235E+01 0.190E+01   -.420E+01 -.245E+01 -.190E+01   0.166E+00 0.965E-01 0.676E-03   -.420E-03 0.177E-03 -.183E-03
   0.249E+02 -.102E+02 0.181E+00   -.253E+02 0.101E+02 -.156E+00   0.423E+00 0.136E+00 -.234E-01   0.920E-05 -.445E-04 -.945E-03
   0.362E+01 0.267E+02 -.913E+00   -.396E+01 -.270E+02 0.944E+00   0.336E+00 0.302E+00 -.247E-01   -.329E-03 0.205E-03 -.338E-02
   0.112E+01 0.915E+01 0.212E+01   -.111E+01 -.901E+01 -.214E+01   -.141E-01 -.139E+00 0.212E-01   -.613E-03 0.241E-03 -.428E-03
   0.848E+01 -.363E+01 0.213E+01   -.834E+01 0.357E+01 -.215E+01   -.133E+00 0.496E-01 0.197E-01   -.159E-02 -.471E-03 0.805E-03
   0.234E+02 -.189E+02 -.168E+01   -.235E+02 0.193E+02 0.170E+01   0.840E-01 -.408E+00 -.870E-02   -.490E-03 -.493E-03 -.328E-02
   0.706E+02 0.113E+02 -.108E+02   -.713E+02 -.114E+02 0.108E+02   0.675E+00 0.177E+00 0.106E-01   -.344E-03 0.374E-03 -.107E-01
   0.826E+02 0.476E+02 -.250E+02   -.829E+02 -.478E+02 0.252E+02   0.381E+00 0.217E+00 -.167E+00   -.697E-03 0.257E-03 -.141E-01
   0.451E+02 0.556E+02 -.104E+02   -.456E+02 -.561E+02 0.104E+02   0.494E+00 0.499E+00 0.820E-02   0.315E-03 -.526E-05 -.752E-02
   -.466E+01 0.297E+02 -.162E+01   0.497E+01 -.300E+02 0.164E+01   -.315E+00 0.282E+00 -.118E-01   0.678E-03 0.684E-04 -.278E-02
   -.164E+01 0.603E+01 0.173E+01   0.176E+01 -.609E+01 -.174E+01   -.126E+00 0.605E-01 0.986E-02   -.636E-04 0.116E-02 0.446E-03
   -.220E+01 -.129E+01 0.150E+01   0.231E+01 0.136E+01 -.151E+01   -.116E+00 -.741E-01 0.125E-01   -.126E-02 0.269E-03 0.126E-02
   0.451E+01 -.444E+01 0.136E+01   -.451E+01 0.457E+01 -.137E+01   -.398E-02 -.140E+00 0.145E-01   -.112E-02 -.101E-02 0.217E-03
   0.188E+02 -.193E+01 0.353E+01   -.188E+02 0.207E+01 -.356E+01   0.210E-01 -.143E+00 0.345E-01   -.494E-03 -.258E-03 -.154E-02
   0.261E+02 0.103E+02 0.252E+01   -.262E+02 -.104E+02 -.245E+01   0.377E-01 0.668E-01 -.585E-01   0.726E-03 0.463E-03 -.321E-02
   0.220E+02 0.175E+02 0.277E+01   -.221E+02 -.175E+02 -.271E+01   0.752E-01 -.358E-02 -.579E-01   0.150E-03 0.484E-03 -.225E-02
   0.778E+01 0.172E+02 0.429E+01   -.767E+01 -.173E+02 -.432E+01   -.109E+00 0.930E-01 0.321E-01   -.157E-03 0.112E-03 -.780E-04
   0.136E+01 -.666E+02 -.549E+01   -.101E+01 0.725E+02 0.561E+01   -.350E+00 -.588E+01 -.108E+00   0.252E-04 -.102E-04 -.639E-03
   -.502E+02 -.385E+02 -.104E+02   0.551E+02 0.418E+02 0.103E+02   -.490E+01 -.333E+01 0.241E-01   -.478E-05 0.565E-04 -.135E-02
   -.584E+02 -.242E+02 -.103E+02   0.637E+02 0.268E+02 0.103E+02   -.533E+01 -.258E+01 0.281E-01   -.191E-04 -.944E-04 -.137E-02
   0.514E+02 0.390E+02 -.248E+02   -.565E+02 -.417E+02 0.256E+02   0.509E+01 0.277E+01 -.747E+00   -.172E-03 -.508E-04 -.250E-02
   0.595E+02 0.251E+02 -.248E+02   -.644E+02 -.281E+02 0.255E+02   0.495E+01 0.302E+01 -.743E+00   -.321E-03 0.241E-05 -.280E-02
   -.571E+02 0.345E+02 -.612E+01   0.623E+02 -.371E+02 0.625E+01   -.527E+01 0.264E+01 -.124E+00   -.668E-04 -.117E-03 -.563E-03
   -.190E+01 -.724E+02 0.529E+02   0.258E+01 0.806E+02 -.541E+02   -.666E+00 -.821E+01 0.119E+01   -.307E-04 0.612E-04 0.107E-03
   -.641E+02 0.333E+02 0.533E+02   0.716E+02 -.367E+02 -.546E+02   -.750E+01 0.340E+01 0.122E+01   0.659E-04 -.609E-04 0.123E-03
   0.199E+03 -.117E+03 -.799E+01   -.226E+03 0.132E+03 0.810E+01   0.277E+02 -.157E+02 -.926E-01   -.310E-03 -.366E-03 -.113E-01
   -.168E+01 0.230E+03 -.878E+01   0.137E+01 -.262E+03 0.891E+01   0.308E+00 0.318E+02 -.121E+00   -.565E-04 0.133E-03 -.101E-01
   0.394E+02 0.230E+02 0.193E+03   -.791E+02 -.464E+02 -.183E+03   0.397E+02 0.234E+02 -.105E+02   -.213E-02 -.102E-02 0.160E-02
 -----------------------------------------------------------------------------------------------
   -.476E+02 -.278E+02 0.109E+02   0.142E-13 0.263E-12 -.114E-12   0.476E+02 0.278E+02 -.108E+02   -.265E-02 -.135E-02 -.159E+00
 
 
 POSITION                                       TOTAL-FORCE (eV/Angst)
 -----------------------------------------------------------------------------------
      8.62392     14.94562      7.48420        -0.000693     -0.001351     -0.001385
     16.02617      2.12462      7.49671         0.000296      0.000212      0.000093
     14.79144      4.26577      7.50509         0.000149      0.005221      0.002014
     13.55453      6.40556      7.50360         0.002232      0.002064      0.000878
     12.32170      8.54199      7.49172         0.002182     -0.000859      0.000019
     11.09311     10.67582      7.48630        -0.000690     -0.007457     -0.000188
      9.85744     12.81519      7.48443        -0.001472     -0.001092     -0.001563
      2.46239      0.00007      7.48420        -0.000840     -0.000260     -0.002975
      1.22515      2.13174      7.50183         0.000106      0.000044     -0.000597
     -0.01744      4.25798      7.52243         0.000078      0.001831      0.002945
     -1.25515      6.40162      7.52758         0.000327      0.002890      0.003238
     -2.47505      8.54081      7.51215         0.000850     -0.000823      0.000766
     -3.70243     10.67872      7.49014         0.001779     -0.008570     -0.000847
     -4.93831     12.81771      7.48087         0.000071     -0.001563     -0.002505
      4.93481      0.00012      7.48508        -0.000320     -0.001044     -0.001682
      3.70366      2.13992      7.50428        -0.000564      0.000134     -0.000465
      2.45460      4.28983      7.54085        -0.000137      0.000215      0.003551
      1.19780      6.38821      7.56415        -0.000152      0.002315      0.005629
      0.00869      8.52577      7.54873        -0.000962     -0.000019      0.004275
     -1.22863     10.68281      7.51290        -0.001676     -0.003702      0.001401
     -2.46631     12.81948      7.48846         0.000087     -0.002749     -0.001255
     -1.23245     14.95689      7.48715        -0.000582     -0.001740     -0.000632
      6.17477      2.14658      7.49592        -0.000362      0.000505      0.000043
      4.94346      4.24309      7.52554         0.000023      0.000193      0.003625
      1.21282     10.70491      7.53700        -0.000181     -0.000791      0.003999
      0.01277     12.81955      7.50163         0.000324     -0.001668      0.001272
      1.23018     14.95627      7.49619         0.001127     -0.000871      0.000891
      8.63365      2.13369      7.49253         0.000345     -0.000034     -0.000759
      7.43205      4.31632      7.51103        -0.000178     -0.000013      0.003184
      2.51981     12.82462      7.51799        -0.000191     -0.000085      0.004184
     12.32946      0.00511      7.50409         0.000366     -0.001070      0.002119
     11.09875      2.13418      7.49234         0.002042     -0.000940     -0.000008
      9.87040      4.26486      7.50187         0.000680      0.000378      0.000675
      8.59276      6.34675      7.53919         0.000719      0.000333      0.005806
      7.40915      8.54472      7.66092         0.000069      0.000366      0.011724
      6.17030     10.69035      7.66065        -0.003728      0.000191      0.009544
      4.85857     12.81511      7.54025        -0.000464      0.000182      0.005383
      6.15533     14.94726      7.50184        -0.003581     -0.006256      0.001967
     13.56136      2.13244      7.49593         0.000237      0.000108     -0.000454
     12.32867      4.26803      7.49722         0.007775      0.003210      0.000268
     11.08839      6.40368      7.50563         0.001347      0.001071      0.002540
      9.84514      8.52965      7.51690        -0.000316     -0.001190      0.006236
      8.62416     10.67649      7.53304        -0.001846     -0.002648      0.006317
      7.37499     12.80714      7.51356        -0.001928     -0.001543      0.003991
     -0.00810      1.41493      7.49210        -0.001182     -0.000055     -0.000618
     -1.25068      3.54584      7.50682        -0.000229     -0.001709      0.000922
     -2.48864      5.69008      7.51168        -0.000918     -0.006715      0.000432
     -3.71253      7.83136      7.50146        -0.002266      0.000669     -0.000062
     -4.94343      9.96759      7.48640        -0.001802      0.003171     -0.001360
     -6.17827     12.10185      7.48198        -0.000538      0.002174     -0.002616
     -7.40953     14.23816      7.48115        -0.000499     -0.000401     -0.002970
      2.46593      1.42164      7.49620        -0.000352     -0.000332     -0.002021
      1.22139      3.55463      7.52199         0.000141     -0.000516      0.002150
     -0.03555      5.67690      7.53831         0.001208     -0.001990      0.003534
     -1.24463      7.82592      7.53089         0.000935      0.000078      0.003038
     -2.46955      9.97043      7.50452        -0.002397      0.004914     -0.000090
     -3.70173     12.10717      7.48561        -0.001377      0.004038     -0.001641
     -4.93535     14.24406      7.48253        -0.000342     -0.000000     -0.003400
      4.93861      1.43211      7.49364        -0.000115     -0.000111     -0.001077
      3.71933      3.56829      7.52454        -0.000144     -0.000412      0.002288
      2.41080      5.67618      7.56823         0.000885     -0.000791      0.005343
      1.18773      7.79457      7.57098         0.001917     -0.001218      0.005511
      0.01639      9.98207      7.53450         0.000748      0.001548      0.003336
     -1.22428     12.10625      7.49994        -0.000683      0.002530      0.000382
     -2.46924     14.24309      7.48479        -0.000498      0.003350     -0.001811
      7.40286      1.42355      7.48994        -0.000479      0.000375     -0.000774
      6.17101      3.57823      7.50822        -0.000163     -0.000390      0.002364
      1.25062     12.10040      7.51700        -0.000902      0.002032      0.003188
      0.00030     14.24499      7.49301        -0.001461      0.002119      0.000062
      9.86410      1.42112      7.49203        -0.001220      0.001163     -0.000468
      8.64072      3.56110      7.50133        -0.000123     -0.000006      0.000576
      2.46994     14.24912      7.50679        -0.001261      0.001283      0.002951
     12.32998      1.42815      7.49470        -0.000988      0.001290      0.000183
     11.10290      3.55344      7.49451        -0.002666     -0.000122     -0.000869
      9.85742      5.68281      7.51514        -0.001135     -0.000547      0.003711
      8.59123      7.81703      7.56882        -0.001496     -0.000742      0.010153
      7.38355      9.96027      7.62138        -0.000617      0.000505      0.013525
      6.13090     12.07799      7.56725        -0.000396     -0.002031      0.007430
      4.91530     14.24235      7.51494         0.000849      0.002053      0.001807
     14.79280      1.41090      7.49635         0.000479      0.001614      0.000026
     13.56022      3.55516      7.49758        -0.002118     -0.000848     -0.000902
     12.31989      5.69494      7.50015        -0.003314     -0.001562      0.001143
     11.08457      7.82976      7.49909        -0.003204      0.000017      0.002347
      9.85220      9.95752      7.50849        -0.000685      0.001082      0.003708
      8.61512     12.09929      7.50646        -0.000208     -0.000821      0.001597
      7.38845     14.23048      7.49376         0.000241      0.000828      0.000601
      4.98084      5.32930      7.54345         0.000146      0.000023      0.004912
      3.32136      6.26891      7.57266         0.000934      0.000246      0.003837
      2.15604      8.28729      7.57454         0.001122      0.000492      0.003532
      5.22876     10.15588      7.78265        -0.001467     -0.004214      0.009827
      6.47526      7.99671      7.78203        -0.002967      0.000257      0.010599
      2.17218     10.19436      7.55755         0.000522      0.000996      0.004699
      4.35027      9.10170      6.31186         0.009123      0.004713     -0.075832
      5.13105      7.77562      6.30876         0.009809      0.004760     -0.075734
      7.42761      5.67044      7.52650        -0.000089     -0.000230      0.005919
      3.69040     12.14406      7.53137        -0.001178     -0.000058      0.005090
      4.24224      8.14481      6.45336         0.010077      0.004375     -0.041737
 -----------------------------------------------------------------------------------
    total drift:                                0.010280     -0.065412     -0.000097


--------------------------------------------------------------------------------------------------------



  FREE ENERGIE OF THE ION-ELECTRON SYSTEM (eV)
  ---------------------------------------------------
  free  energy   TOTEN  =      -850.36897978 eV

  energy  without entropy=     -850.36897974  energy(sigma->0) =     -850.36897976
 
 d Force = 0.3296008E-04[ 0.279E-04, 0.380E-04]  d Energy = 0.3044650E-04 0.251E-05
 d Force = 0.8359415E-01[ 0.837E-01, 0.835E-01]  d Ewald  = 0.8359435E-01-0.201E-06


--------------------------------------------------------------------------------------------------------


    POTLOK:  cpu time      4.7951: real time      4.8228


--------------------------------------------------------------------------------------------------------


 NEB: the previous image is higher in energy: T
 NEB: the next image is higher in energy    : F
 NEB: only prev energy greater

 NEB: Tangent
 ----------------------------------------------
     -0.00318     -0.00177      0.00561
     -0.00007      0.00063      0.00616
      0.00109      0.00099      0.00750
      0.00022      0.00024      0.01056
     -0.00327     -0.00132      0.00981
     -0.00509     -0.00243      0.00733
     -0.00530     -0.00265      0.00649
     -0.00320     -0.00137      0.00099
     -0.00032      0.00059      0.00693
      0.00216      0.00188      0.01133
      0.00270      0.00146      0.01379
      0.00042     -0.00020      0.01167
     -0.00298     -0.00143      0.00270
     -0.00398     -0.00194     -0.00099
     -0.00282     -0.00166     -0.00392
     -0.00109     -0.00078      0.00231
      0.00355      0.00270      0.00586
      0.00568      0.00328      0.00250
      0.00445      0.00189      0.00775
     -0.00122     -0.00023      0.00346
     -0.00304     -0.00126     -0.00398
     -0.00217     -0.00124     -0.00664
     -0.00137     -0.00227     -0.00266
      0.00162     -0.00080      0.00896
      0.00017      0.00182      0.01153
     -0.00265      0.00009     -0.00124
     -0.00178      0.00006     -0.00304
     -0.00095     -0.00157     -0.00420
     -0.00004     -0.00366      0.00139
     -0.00329      0.00195      0.00245
     -0.00137      0.00027      0.00104
     -0.00057      0.00001     -0.00189
     -0.00061     -0.00092      0.00220
     -0.00374     -0.00248      0.00860
     -0.01608     -0.00625      0.00764
     -0.01376     -0.01021      0.00693
     -0.00411     -0.00143      0.00589
     -0.00206     -0.00077      0.00481
     -0.00020      0.00045      0.00120
     -0.00005      0.00021      0.00328
     -0.00196     -0.00084      0.00984
     -0.00768     -0.00299      0.01531
     -0.00727     -0.00387      0.01591
     -0.00684     -0.00469      0.01217
     -0.00084     -0.00046      0.00658
      0.00140      0.00127      0.00871
      0.00169      0.00135      0.01179
     -0.00097     -0.00004      0.01123
     -0.00377     -0.00141      0.00606
     -0.00472     -0.00232      0.00369
     -0.00356     -0.00217      0.00400
     -0.00146     -0.00085      0.00312
      0.00214      0.00195      0.00978
      0.00391      0.00257      0.01208
      0.00291      0.00135      0.01411
     -0.00155     -0.00046      0.00513
     -0.00345     -0.00148     -0.00152
     -0.00334     -0.00166     -0.00197
     -0.00183     -0.00177     -0.00177
      0.00132     -0.00029      0.00589
      0.00624      0.00443     -0.00400
      0.00765      0.00330     -0.00420
      0.00038      0.00152      0.00745
     -0.00255     -0.00047     -0.00092
     -0.00254     -0.00137     -0.00605
     -0.00130     -0.00167     -0.00560
      0.00016     -0.00290      0.00183
     -0.00256      0.00148      0.00389
     -0.00201     -0.00029     -0.00467
     -0.00091     -0.00036     -0.00359
     -0.00002     -0.00219     -0.00057
     -0.00198      0.00119      0.00022
     -0.00052      0.00026     -0.00070
     -0.00020     -0.00005      0.00044
     -0.00213     -0.00093      0.00784
     -0.01032     -0.00289      0.01289
     -0.00835     -0.00460      0.01271
     -0.00790     -0.00701      0.01055
     -0.00232     -0.00079      0.00443
     -0.00051     -0.00003      0.00343
      0.00043      0.00067      0.00303
     -0.00037      0.00030      0.00758
     -0.00460     -0.00114      0.01206
     -0.00630     -0.00291      0.01380
     -0.00617     -0.00364      0.01213
     -0.00375     -0.00317      0.00742
      0.00480     -0.00040      0.01797
      0.00969      0.00526     -0.02238
      0.01031      0.00575     -0.02474
     -0.01074     -0.02848     -0.01853
     -0.03086      0.00643     -0.01826
      0.00210      0.00434      0.02163
      0.05543      0.02425     -0.60286
      0.05505      0.02494     -0.60572
     -0.00209     -0.00451      0.00332
     -0.00497      0.00084      0.00300
      0.06793      0.03177     -0.49513

 NEB: forces: par spring, perp REAL, dneb     0.027907    0.069939    0.000000
 NEB: distance to prev, next image, angle between     1.056942    1.051361  168.167404
 NEB: projections on to tangent (spring, REAL)    -0.027907    0.095311

 stress matrix after NEB project (eV)
     -5.90424     -2.21183     -0.03826
     -2.21183     -3.35329      0.00081
     -0.03826      0.00081     -0.46126
  FORCES: max atom, RMS     0.012888    0.004482
  FORCE total and by dimension    0.044138    0.012850
  Stress total and by dimension    7.490309    5.904243
 OPT: skip step - force has converged


--------------------------------------------------------------------------------------------------------


  
 reached required accuracy - stopping structural energy minimisation
     LOOP+:  cpu time    291.2707: real time    293.3117
    4ORBIT:  cpu time      0.0000: real time      0.0000

 total amount of memory used by VASP MPI-rank0  1122711. kBytes
=======================================================================

   base      :      30000. kBytes
   nonlr-proj:       9004. kBytes
   fftplans  :     185212. kBytes
   grid      :     184190. kBytes
   one-center:        595. kBytes
   wavefun   :     713710. kBytes
 
  
  
 General timing and accounting informations for this job:
 ========================================================
  
                  Total CPU time used (sec):     2903.594
                            User time (sec):     2800.555
                          System time (sec):      103.039
                         Elapsed time (sec):     2926.169
  
                   Maximum memory used (kb):     1568508.
                   Average memory used (kb):          N/A
  
                          Minor page faults:       272810
                          Major page faults:           47
                 Voluntary context switches:         2523
