 vasp.6.4.2 20Jul23 (build Aug 26 2025 15:10:52) complex                        
  
 POSCAR found type information on POSCAR C H N O 
 05/POSCAR found :  4 types and      97 ions
 Reading from existing POTCAR
 scaLAPACK will be used
 -----------------------------------------------------------------------------
|                                                                             |
|           W    W    AA    RRRRR   N    N  II  N    N   GGGG   !!!           |
|           W    W   A  A   R    R  NN   N  II  NN   N  G    G  !!!           |
|           W    W  A    A  R    R  N N  N  II  N N  N  G       !!!           |
|           W WW W  AAAAAA  RRRRR   N  N N  II  N  N N  G  GGG   !            |
|           WW  WW  A    A  R   R   N   NN  II  N   NN  G    G                |
|           W    W  A    A  R    R  N    N  II  N    N   GGGG   !!!           |
|                                                                             |
|     For optimal performance we recommend to set                             |
|       NCORE = 2 up to number-of-cores-per-socket                            |
|     NCORE specifies how many cores store one orbital (NPAR=cpu/NCORE).      |
|     This setting can greatly improve the performance of VASP for DFT.       |
|     The default, NCORE=1 might be grossly inefficient on modern             |
|     multi-core architectures or massively parallel machines. Do your        |
|     own testing! More info at https://www.vasp.at/wiki/index.php/NCORE      |
|     Unfortunately you need to use the default for GW and RPA                |
|     calculations (for HF NCORE is supported but not extensively tested      |
|     yet).                                                                   |
|                                                                             |
 -----------------------------------------------------------------------------

 Reading from existing POTCAR
 LDA part: xc-table for Pade appr. of Perdew
 POSCAR found type information on POSCAR C H N O 
 00/POSCAR found :  4 types and      97 ions
 POSCAR found type information on POSCAR C H N O 
 06/POSCAR found :  4 types and      97 ions
 Jacobian:    33.6678109620489     
 POSCAR found type information on POSCAR C H N O 
 00/POSCAR found :  4 types and      97 ions
 POSCAR found type information on POSCAR C H N O 
 06/POSCAR found :  4 types and      97 ions
 POSCAR, INCAR and KPOINTS ok, starting setup
 FFT: planning ... GRIDC
 FFT: planning ... GRID_SOFT
 FFT: planning ... GRID
 WAVECAR not read
 entering main loop
       N       E                     dE             d eps       ncg     rms          rms(c)
DAV:   1     0.327489094679E+04    0.32749E+04   -0.13745E+05  4560   0.105E+03
DAV:   2    -0.249264884637E+03   -0.35242E+04   -0.33200E+04  6400   0.258E+02
DAV:   3    -0.864321790214E+03   -0.61506E+03   -0.61232E+03  5340   0.112E+02
DAV:   4    -0.886533174046E+03   -0.22211E+02   -0.22132E+02  5430   0.267E+01
DAV:   5    -0.887164852680E+03   -0.63168E+00   -0.63092E+00  6060   0.382E+00    0.518E+01
DAV:   6    -0.869802858361E+03    0.17362E+02   -0.22046E+01  5150   0.729E+00    0.337E+01
DAV:   7    -0.847634841809E+03    0.22168E+02   -0.32793E+01  5040   0.861E+00    0.204E+01
DAV:   8    -0.842831013894E+03    0.48038E+01   -0.24023E+01  5120   0.735E+00    0.820E+00
DAV:   9    -0.842731377276E+03    0.99637E-01   -0.10979E+00  5020   0.202E+00    0.330E+00
DAV:  10    -0.842637960182E+03    0.93417E-01   -0.45787E-01  4910   0.120E+00    0.969E-01
DAV:  11    -0.842626557394E+03    0.11403E-01   -0.89715E-02  4850   0.533E-01    0.336E-01
DAV:  12    -0.842624749807E+03    0.18076E-02   -0.92151E-03  5370   0.177E-01    0.179E-01
DAV:  13    -0.842624371103E+03    0.37870E-03   -0.26268E-03  5110   0.106E-01    0.819E-02
DAV:  14    -0.842624493868E+03   -0.12277E-03   -0.59160E-04  5210   0.469E-02    0.519E-02
DAV:  15    -0.842624523552E+03   -0.29684E-04   -0.76618E-05  4830   0.170E-02    0.294E-02
DAV:  16    -0.842624537303E+03   -0.13751E-04   -0.32781E-05  4070   0.116E-02    0.101E-02
DAV:  17    -0.842624537396E+03   -0.92485E-07   -0.52501E-06  3550   0.537E-03
   1 F= -.85036891E+03 E0= -.85036891E+03  d E =-.850369E+03  mag=     0.0001
quench:  g(F)=  0.000E+00 g(S)=  0.000E+00 dE (1.order)= 0.000E+00
 bond charge predicted
       N       E                     dE             d eps       ncg     rms          rms(c)
DAV:   1    -0.842624546132E+03   -0.88284E-05   -0.51766E-04  4490   0.457E-02    0.529E-03
DAV:   2    -0.842624546552E+03   -0.41987E-06   -0.99390E-06  2760   0.631E-03
   2 F= -.85036892E+03 E0= -.85036892E+03  d E =-.734180E-05  mag=    -0.0000
quench:  g(F)=  0.000E+00 g(S)=  0.000E+00 dE (1.order)= 0.000E+00
 bond charge predicted
       N       E                     dE             d eps       ncg     rms          rms(c)
DAV:   1    -0.842624557415E+03   -0.11283E-04   -0.11821E-03  4540   0.654E-02    0.911E-03
DAV:   2    -0.842624557747E+03   -0.33220E-06   -0.17421E-05  3300   0.804E-03
   3 F= -.85036893E+03 E0= -.85036893E+03  d E =-.675251E-05  mag=     0.0000
quench:  g(F)=  0.000E+00 g(S)=  0.000E+00 dE (1.order)= 0.000E+00
 bond charge predicted
       N       E                     dE             d eps       ncg     rms          rms(c)
DAV:   1    -0.842624585112E+03   -0.27698E-04   -0.24659E-03  4480   0.935E-02    0.123E-02
DAV:   2    -0.842624586080E+03   -0.96809E-06   -0.33254E-05  3740   0.110E-02
   4 F= -.85036895E+03 E0= -.85036895E+03  d E =-.215247E-04  mag=    -0.0000
quench:  g(F)=  0.000E+00 g(S)=  0.000E+00 dE (1.order)= 0.000E+00
 bond charge predicted
       N       E                     dE             d eps       ncg     rms          rms(c)
DAV:   1    -0.842624624964E+03   -0.39852E-04   -0.44389E-03  4500   0.125E-01    0.173E-02
DAV:   2    -0.842624626390E+03   -0.14260E-05   -0.58524E-05  4400   0.146E-02
   5 F= -.85036898E+03 E0= -.85036898E+03  d E =-.304465E-04  mag=     0.0000
quench:  g(F)=  0.000E+00 g(S)=  0.000E+00 dE (1.order)= 0.000E+00
 reached required accuracy - stopping structural energy minimisation
