<?xml version="1.0" encoding="ISO-8859-1"?>
<modeling>
 <generator>
  <i name="program" type="string">vasp </i>
  <i name="version" type="string">6.4.2  </i>
  <i name="subversion" type="string">20Jul23 (build Aug 26 2025 15:10:52) complex                          parallel </i>
  <i name="platform" type="string">LinuxIFC </i>
  <i name="date" type="string">2025 12 02 </i>
  <i name="time" type="string">12:14:44 </i>
 </generator>
 <incar>
  <i type="int" name="ISTART">     0</i>
  <i type="string" name="ALGO">Normal</i>
  <i type="logical" name="ADDGRID"> T  </i>
  <i type="int" name="ISPIN">     2</i>
  <i type="int" name="IMIX">     4</i>
  <i name="AMIX">      0.20000000</i>
  <i name="BMIX">      0.00010000</i>
  <i name="AMIX_MAG">      0.80000000</i>
  <i name="BMIX_MAG">      0.00010000</i>
  <i type="int" name="ICHARG">     2</i>
  <i type="int" name="NELM">   200</i>
  <i type="int" name="IBRION">     3</i>
  <i name="EDIFF">      0.00001000</i>
  <i name="EDIFFG">     -0.03000000</i>
  <i type="int" name="NSW">   300</i>
  <i type="int" name="ISIF">     2</i>
  <i type="int" name="ISYM">     0</i>
  <i name="ENCUT">    520.00000000</i>
  <i name="POTIM">      0.00000000</i>
  <v name="MAGMOM">      0.60000000      0.60000000      0.60000000      0.60000000      0.60000000      0.60000000      0.60000000      0.60000000      0.60000000      0.60000000      0.60000000      0.60000000      0.60000000      0.60000000      0.60000000      0.60000000      0.60000000      0.60000000      0.60000000      0.60000000
      0.60000000      0.60000000      0.60000000      0.60000000      0.60000000      0.60000000      0.60000000      0.60000000      0.60000000      0.60000000      0.60000000      0.60000000      0.60000000      0.60000000      0.60000000      0.60000000      0.60000000      0.60000000      0.60000000      0.60000000
      0.60000000      0.60000000      0.60000000      0.60000000      0.60000000      0.60000000      0.60000000      0.60000000      0.60000000      0.60000000      0.60000000      0.60000000      0.60000000      0.60000000      0.60000000      0.60000000      0.60000000      0.60000000      0.60000000      0.60000000
      0.60000000      0.60000000      0.60000000      0.60000000      0.60000000      0.60000000      0.60000000      0.60000000      0.60000000      0.60000000      0.60000000      0.60000000      0.60000000      0.60000000      0.60000000      0.60000000      0.60000000      0.60000000      0.60000000      0.60000000
      0.60000000      0.60000000      0.60000000      0.60000000      0.60000000      0.60000000      0.60000000      0.60000000      0.60000000      0.60000000      0.60000000      0.60000000      0.60000000      0.60000000      0.60000000      0.60000000      0.60000000</v>
  <i type="string" name="LREAL">Auto</i>
  <i type="int" name="ISMEAR">     0</i>
  <i name="SIGMA">      0.05000000</i>
  <i type="logical" name="LWAVE"> F  </i>
  <i type="logical" name="LCHARG"> F  </i>
  <i type="logical" name="LASPH"> T  </i>
  <i type="int" name="IVDW">    12</i>
  <i name="SPRING">     -5.00000000</i>
 </incar>
 <primitive_cell>
  <structure name="primitive_cell" >
   <crystal>
    <varray name="basis" >
     <v>      17.27103806       0.00000000       0.00000000 </v>
     <v>      -8.63551903      14.95715771       0.00000000 </v>
     <v>       0.00000000       0.00000000      15.00000000 </v>
    </varray>
    <i name="volume">   3874.88459904 </i>
    <varray name="rec_basis" >
     <v>       0.05790040       0.03342881       0.00000000 </v>
     <v>       0.00000000       0.06685762       0.00000000 </v>
     <v>       0.00000000       0.00000000       0.06666667 </v>
    </varray>
   </crystal>
   <varray name="positions" >
    <v>       0.99894609       0.99923133       0.49895905 </v>
    <v>       0.99894559       0.14204748       0.49978572 </v>
    <v>       0.99902983       0.28519782       0.50034577 </v>
    <v>       0.99893968       0.42825780       0.50024659 </v>
    <v>       0.99897938       0.57109663       0.49945623 </v>
    <v>       0.99917420       0.71375894       0.49909673 </v>
    <v>       0.99914906       0.85679521       0.49897742 </v>
    <v>       0.14257751       0.00000563       0.49896841 </v>
    <v>       0.14220062       0.14252496       0.50013165 </v>
    <v>       0.14133185       0.28467941       0.50148483 </v>
    <v>       0.14132524       0.42799625       0.50183044 </v>
    <v>       0.14220176       0.57101731       0.50081556 </v>
    <v>       0.14260355       0.71395309       0.49935370 </v>
    <v>       0.14255086       0.85696105       0.49874360 </v>
    <v>       0.28573164       0.00000693       0.49901441 </v>
    <v>       0.28598008       0.14307082       0.50029006 </v>
    <v>       0.28553026       0.28681078       0.50270715 </v>
    <v>       0.28290809       0.42710471       0.50424517 </v>
    <v>       0.28550947       0.57001262       0.50322918 </v>
    <v>       0.28597620       0.71422849       0.50085336 </v>
    <v>       0.28573915       0.85707894       0.49923675 </v>
    <v>       0.42863016       0.99997957       0.49914416 </v>
    <v>       0.42927961       0.14351385       0.49972503 </v>
    <v>       0.42807226       0.28368242       0.50168758 </v>
    <v>       0.42807522       0.71570527       0.50245199 </v>
    <v>       0.42928090       0.85708261       0.50009915 </v>
    <v>       0.57119771       0.99993825       0.49973771 </v>
    <v>       0.57121774       0.14265182       0.49950341 </v>
    <v>       0.57460828       0.28857756       0.50071669 </v>
    <v>       0.57461104       0.85742308       0.50117282 </v>
    <v>       0.71405204       0.00034174       0.50026002 </v>
    <v>       0.71396364       0.14268481       0.49949129 </v>
    <v>       0.71406871       0.28513739       0.50012352 </v>
    <v>       0.70968658       0.42432809       0.50257118 </v>
    <v>       0.71462872       0.57128042       0.51064331 </v>
    <v>       0.71462891       0.71473608       0.51064009 </v>
    <v>       0.70970969       0.85679050       0.50265559 </v>
    <v>       0.85606580       0.99933932       0.50011793 </v>
    <v>       0.85649294       0.14256853       0.49973132 </v>
    <v>       0.85650935       0.28534892       0.49982091 </v>
    <v>       0.85608643       0.42813538       0.50036896 </v>
    <v>       0.85517129       0.57027272       0.50109972 </v>
    <v>       0.85624464       0.71380825       0.50216722 </v>
    <v>       0.85514736       0.85626013       0.50089402 </v>
    <v>       0.04683218       0.09460150       0.49948169 </v>
    <v>       0.04611904       0.23706655       0.50045477 </v>
    <v>       0.04612138       0.38042554       0.50077882 </v>
    <v>       0.04683506       0.52358435       0.50010789 </v>
    <v>       0.04697719       0.66640796       0.49910486 </v>
    <v>       0.04682631       0.80910036       0.49881786 </v>
    <v>       0.04695278       0.95193202       0.49876591 </v>
    <v>       0.19030389       0.09504907       0.49976184 </v>
    <v>       0.18954976       0.23765633       0.50146105 </v>
    <v>       0.18771609       0.37954533       0.50253598 </v>
    <v>       0.18954604       0.52322134       0.50205306 </v>
    <v>       0.19031008       0.66659583       0.50030467 </v>
    <v>       0.19039698       0.80945762       0.49905004 </v>
    <v>       0.19040370       0.95232302       0.49884213 </v>
    <v>       0.33382152       0.09574653       0.49958035 </v>
    <v>       0.33463692       0.23856841       0.50162713 </v>
    <v>       0.32933947       0.37949961       0.50451303 </v>
    <v>       0.32933575       0.52112942       0.50469598 </v>
    <v>       0.33463643       0.66737697       0.50228559 </v>
    <v>       0.33380981       0.80939285       0.49999235 </v>
    <v>       0.33316006       0.95225862       0.49899244 </v>
    <v>       0.47621580       0.09517276       0.49932933 </v>
    <v>       0.47692062       0.23923029       0.50053457 </v>
    <v>       0.47691396       0.80900346       0.50111760 </v>
    <v>       0.47621037       0.95238321       0.49952931 </v>
    <v>       0.61864118       0.09501044       0.49946821 </v>
    <v>       0.61934464       0.23808503       0.50008669 </v>
    <v>       0.61934278       0.95266107       0.50043565 </v>
    <v>       0.76165248       0.09548221       0.49964443 </v>
    <v>       0.76164954       0.23757256       0.49963963 </v>
    <v>       0.76071694       0.37993880       0.50099397 </v>
    <v>       0.75874595       0.52262650       0.50453520 </v>
    <v>       0.76046813       0.66592450       0.50802121 </v>
    <v>       0.75873700       0.80750969       0.50445019 </v>
    <v>       0.76070254       0.95220982       0.50098268 </v>
    <v>       0.90367392       0.09432867       0.49975949 </v>
    <v>       0.90398743       0.23768844       0.49984611 </v>
    <v>       0.90370068       0.38074796       0.50001206 </v>
    <v>       0.90354160       0.52347999       0.49993295 </v>
    <v>       0.90331394       0.66573770       0.50055229 </v>
    <v>       0.90328622       0.80893328       0.50041951 </v>
    <v>       0.90350605       0.95141987       0.49958347 </v>
    <v>       0.46654731       0.35630356       0.50288049 </v>
    <v>       0.40187649       0.41913054       0.50479777 </v>
    <v>       0.40187250       0.55406960       0.50492264 </v>
    <v>       0.64224063       0.67899521       0.51875935 </v>
    <v>       0.64223572       0.53464719       0.51871489 </v>
    <v>       0.46655278       0.68156817       0.50382522 </v>
    <v>       0.55612964       0.60851093       0.42076097 </v>
    <v>       0.55700280       0.51985172       0.42055142 </v>
    <v>       0.61961625       0.37911053       0.50172794 </v>
    <v>       0.61963879       0.81192224       0.50205565 </v>
    <v>       0.51788933       0.54453919       0.43022414 </v>
   </varray>
  </structure>
  <varray name="primitive_index" >
   <v type="int" >        1 </v>
   <v type="int" >        2 </v>
   <v type="int" >        3 </v>
   <v type="int" >        4 </v>
   <v type="int" >        5 </v>
   <v type="int" >        6 </v>
   <v type="int" >        7 </v>
   <v type="int" >        8 </v>
   <v type="int" >        9 </v>
   <v type="int" >       10 </v>
   <v type="int" >       11 </v>
   <v type="int" >       12 </v>
   <v type="int" >       13 </v>
   <v type="int" >       14 </v>
   <v type="int" >       15 </v>
   <v type="int" >       16 </v>
   <v type="int" >       17 </v>
   <v type="int" >       18 </v>
   <v type="int" >       19 </v>
   <v type="int" >       20 </v>
   <v type="int" >       21 </v>
   <v type="int" >       22 </v>
   <v type="int" >       23 </v>
   <v type="int" >       24 </v>
   <v type="int" >       25 </v>
   <v type="int" >       26 </v>
   <v type="int" >       27 </v>
   <v type="int" >       28 </v>
   <v type="int" >       29 </v>
   <v type="int" >       30 </v>
   <v type="int" >       31 </v>
   <v type="int" >       32 </v>
   <v type="int" >       33 </v>
   <v type="int" >       34 </v>
   <v type="int" >       35 </v>
   <v type="int" >       36 </v>
   <v type="int" >       37 </v>
   <v type="int" >       38 </v>
   <v type="int" >       39 </v>
   <v type="int" >       40 </v>
   <v type="int" >       41 </v>
   <v type="int" >       42 </v>
   <v type="int" >       43 </v>
   <v type="int" >       44 </v>
   <v type="int" >       45 </v>
   <v type="int" >       46 </v>
   <v type="int" >       47 </v>
   <v type="int" >       48 </v>
   <v type="int" >       49 </v>
   <v type="int" >       50 </v>
   <v type="int" >       51 </v>
   <v type="int" >       52 </v>
   <v type="int" >       53 </v>
   <v type="int" >       54 </v>
   <v type="int" >       55 </v>
   <v type="int" >       56 </v>
   <v type="int" >       57 </v>
   <v type="int" >       58 </v>
   <v type="int" >       59 </v>
   <v type="int" >       60 </v>
   <v type="int" >       61 </v>
   <v type="int" >       62 </v>
   <v type="int" >       63 </v>
   <v type="int" >       64 </v>
   <v type="int" >       65 </v>
   <v type="int" >       66 </v>
   <v type="int" >       67 </v>
   <v type="int" >       68 </v>
   <v type="int" >       69 </v>
   <v type="int" >       70 </v>
   <v type="int" >       71 </v>
   <v type="int" >       72 </v>
   <v type="int" >       73 </v>
   <v type="int" >       74 </v>
   <v type="int" >       75 </v>
   <v type="int" >       76 </v>
   <v type="int" >       77 </v>
   <v type="int" >       78 </v>
   <v type="int" >       79 </v>
   <v type="int" >       80 </v>
   <v type="int" >       81 </v>
   <v type="int" >       82 </v>
   <v type="int" >       83 </v>
   <v type="int" >       84 </v>
   <v type="int" >       85 </v>
   <v type="int" >       86 </v>
   <v type="int" >       87 </v>
   <v type="int" >       88 </v>
   <v type="int" >       89 </v>
   <v type="int" >       90 </v>
   <v type="int" >       91 </v>
   <v type="int" >       92 </v>
   <v type="int" >       93 </v>
   <v type="int" >       94 </v>
   <v type="int" >       95 </v>
   <v type="int" >       96 </v>
   <v type="int" >       97 </v>
  </varray>
 </primitive_cell>
 <kpoints>
  <generation param="Gamma">
   <v type="int" name="divisions">       2        2        1 </v>
   <v name="usershift">      0.00000000       0.00000000       0.00000000 </v>
   <v name="genvec1">      0.50000000       0.00000000       0.00000000 </v>
   <v name="genvec2">      0.00000000       0.50000000       0.00000000 </v>
   <v name="genvec3">      0.00000000       0.00000000       1.00000000 </v>
   <v name="shift">      0.00000000       0.00000000       0.00000000 </v>
  </generation>
  <varray name="kpointlist" >
   <v>       0.00000000       0.00000000       0.00000000 </v>
   <v>       0.50000000       0.00000000       0.00000000 </v>
   <v>       0.00000000       0.50000000       0.00000000 </v>
   <v>       0.50000000       0.50000000       0.00000000 </v>
  </varray>
  <varray name="weights" >
   <v>       0.25000000 </v>
   <v>       0.25000000 </v>
   <v>       0.25000000 </v>
   <v>       0.25000000 </v>
  </varray>
 </kpoints>
 <parameters>
  <separator name="general" >
   <i type="string" name="SYSTEM">unknown system</i>
   <i type="logical" name="LCOMPAT"> F  </i>
  </separator>
  <separator name="electronic" >
   <i type="string" name="PREC">normal</i>
   <i name="ENMAX">    520.00000000</i>
   <i name="ENAUG">    644.87300000</i>
   <i name="EDIFF">      0.00001000</i>
   <i type="int" name="IALGO">    38</i>
   <i type="int" name="IWAVPR">    11</i>
   <i type="int" name="NBANDS">   265</i>
   <i type="int" name="NBANDSLOW">    -1</i>
   <i type="int" name="NBANDSHIGH">    -1</i>
   <i name="NELECT">    368.00000000</i>
   <i type="int" name="TURBO">     0</i>
   <i type="int" name="IRESTART">     0</i>
   <i type="int" name="NREBOOT">     0</i>
   <i type="int" name="NMIN">     0</i>
   <i name="EREF">      0.00000000</i>
   <separator name="electronic smearing" >
    <i type="int" name="ISMEAR">     0</i>
    <i name="SIGMA">      0.05000000</i>
    <i name="KSPACING">      0.50000000</i>
    <i type="logical" name="KGAMMA"> T  </i>
    <i type="logical" name="KBLOWUP"> T  </i>
   </separator>
   <separator name="electronic projectors" >
    <i type="logical" name="LREAL"> T  </i>
    <v name="ROPT">     -0.00050000     -0.00050000     -0.00050000     -0.00050000</v>
    <i type="int" name="LMAXPAW">  -100</i>
    <i type="int" name="LMAXMIX">     2</i>
    <i type="logical" name="NLSPLINE"> F  </i>
   </separator>
   <separator name="electronic startup" >
    <i type="int" name="ISTART">     0</i>
    <i type="int" name="ICHARG">     2</i>
    <i type="int" name="INIWAV">     1</i>
   </separator>
   <separator name="electronic spin" >
    <i type="int" name="ISPIN">     2</i>
    <i type="logical" name="LNONCOLLINEAR"> F  </i>
    <v name="MAGMOM">      0.60000000      0.60000000      0.60000000      0.60000000      0.60000000      0.60000000      0.60000000      0.60000000      0.60000000      0.60000000      0.60000000      0.60000000      0.60000000      0.60000000      0.60000000      0.60000000      0.60000000      0.60000000      0.60000000      0.60000000
      0.60000000      0.60000000      0.60000000      0.60000000      0.60000000      0.60000000      0.60000000      0.60000000      0.60000000      0.60000000      0.60000000      0.60000000      0.60000000      0.60000000      0.60000000      0.60000000      0.60000000      0.60000000      0.60000000      0.60000000
      0.60000000      0.60000000      0.60000000      0.60000000      0.60000000      0.60000000      0.60000000      0.60000000      0.60000000      0.60000000      0.60000000      0.60000000      0.60000000      0.60000000      0.60000000      0.60000000      0.60000000      0.60000000      0.60000000      0.60000000
      0.60000000      0.60000000      0.60000000      0.60000000      0.60000000      0.60000000      0.60000000      0.60000000      0.60000000      0.60000000      0.60000000      0.60000000      0.60000000      0.60000000      0.60000000      0.60000000      0.60000000      0.60000000      0.60000000      0.60000000
      0.60000000      0.60000000      0.60000000      0.60000000      0.60000000      0.60000000      0.60000000      0.60000000      0.60000000      0.60000000      0.60000000      0.60000000      0.60000000      0.60000000      0.60000000      0.60000000      0.60000000</v>
    <i name="NUPDOWN">     -1.00000000</i>
    <i type="logical" name="LSORBIT"> F  </i>
    <v name="SAXIS">      0.00000000      0.00000000      1.00000000</v>
    <i type="logical" name="LSPIRAL"> F  </i>
    <v name="QSPIRAL">      0.00000000      0.00000000      0.00000000</v>
    <i type="logical" name="LZEROZ"> F  </i>
   </separator>
   <separator name="electronic exchange-correlation" >
    <i type="logical" name="LASPH"> T  </i>
    <i type="logical" name="LMETAGGA"> F  </i>
   </separator>
   <separator name="electronic convergence" >
    <i type="int" name="NELM">   200</i>
    <i type="int" name="NELMDL">    -5</i>
    <i type="int" name="NELMIN">     2</i>
    <i name="ENINI">    520.00000000</i>
    <separator name="electronic convergence detail" >
     <i type="logical" name="LDIAG"> T  </i>
     <i type="logical" name="LSUBROT"> F  </i>
     <i name="WEIMIN">      0.00100000</i>
     <i name="EBREAK">      0.00000001</i>
     <i name="DEPER">      0.30000000</i>
     <i type="int" name="NRMM">     4</i>
     <i name="TIME">      0.40000000</i>
    </separator>
   </separator>
   <separator name="electronic mixer" >
    <i name="AMIX">      0.20000000</i>
    <i name="BMIX">      0.00010000</i>
    <i name="AMIN">      0.10000000</i>
    <i name="AMIX_MAG">      0.80000000</i>
    <i name="BMIX_MAG">      0.00010000</i>
    <separator name="electronic mixer details" >
     <i type="int" name="IMIX">     4</i>
     <i type="logical" name="MIXFIRST"> F  </i>
     <i type="int" name="MAXMIX">   -45</i>
     <i name="WC">    100.00000000</i>
     <i type="int" name="INIMIX">     1</i>
     <i type="int" name="MIXPRE">     1</i>
     <i type="int" name="MREMOVE">     5</i>
    </separator>
   </separator>
   <separator name="electronic dipolcorrection" >
    <i type="logical" name="LDIPOL"> F  </i>
    <i type="logical" name="LMONO"> F  </i>
    <i type="int" name="IDIPOL">     0</i>
    <i name="EPSILON">      1.00000000</i>
    <v name="DIPOL">   -100.00000000   -100.00000000   -100.00000000</v>
    <i name="EFIELD">      0.00000000</i>
   </separator>
  </separator>
  <separator name="grids" >
   <i type="int" name="NGX">    96</i>
   <i type="int" name="NGY">    96</i>
   <i type="int" name="NGZ">    84</i>
   <i type="int" name="NGXF">   192</i>
   <i type="int" name="NGYF">   192</i>
   <i type="int" name="NGZF">   168</i>
   <i type="logical" name="ADDGRID"> T  </i>
  </separator>
  <separator name="ionic" >
   <i type="int" name="NSW">   300</i>
   <i type="int" name="IBRION">     3</i>
   <i type="int" name="MDALGO">     0</i>
   <i type="int" name="ISIF">     2</i>
   <i name="PSTRESS">      0.00000000</i>
   <i name="EDIFFG">     -0.03000000</i>
   <i type="int" name="NFREE">     0</i>
   <i name="POTIM">      0.00000000</i>
   <i name="SMASS">     -3.00000000</i>
   <i name="SCALEE">      1.00000000</i>
  </separator>
  <separator name="ionic md" >
   <i name="TEBEG">      0.00010000</i>
   <i name="TEEND">      0.00010000</i>
   <i type="int" name="NBLOCK">     1</i>
   <i type="int" name="KBLOCK">   300</i>
   <i type="int" name="NPACO">   256</i>
   <i name="APACO">     10.00000000</i>
  </separator>
  <separator name="symmetry" >
   <i type="int" name="ISYM">     0</i>
   <i name="SYMPREC">      0.00001000</i>
  </separator>
  <separator name="dos" >
   <i type="int" name="LORBIT">     0</i>
   <v name="RWIGS">     -1.00000000     -1.00000000     -1.00000000     -1.00000000</v>
   <i type="int" name="NEDOS">   301</i>
   <i name="EMIN">     10.00000000</i>
   <i name="EMAX">    -10.00000000</i>
   <i name="EFERMI">      0.00000000</i>
  </separator>
  <separator name="writing" >
   <i type="int" name="NWRITE">     2</i>
   <i type="logical" name="LWAVE"> F  </i>
   <i type="logical" name="LDOWNSAMPLE"> F  </i>
   <i type="logical" name="LCHARG"> F  </i>
   <i type="logical" name="LPARD"> F  </i>
   <i type="logical" name="LVTOT"> F  </i>
   <i type="logical" name="LVHAR"> F  </i>
   <i type="logical" name="LELF"> F  </i>
   <i type="logical" name="LOPTICS"> F  </i>
   <v name="STM">      0.00000000      0.00000000      0.00000000      0.00000000      0.00000000      0.00000000      0.00000000</v>
  </separator>
  <separator name="performance" >
   <i type="int" name="NPAR">     5</i>
   <i type="int" name="NSIM">     4</i>
   <i type="int" name="NBLK">    -1</i>
   <i type="logical" name="LPLANE"> T  </i>
   <i type="logical" name="LSCALAPACK"> T  </i>
   <i type="logical" name="LSCAAWARE"> F  </i>
   <i type="logical" name="LSCALU"> F  </i>
   <i type="logical" name="LASYNC"> F  </i>
   <i type="logical" name="LORBITALREAL"> F  </i>
  </separator>
  <separator name="miscellaneous" >
   <i type="int" name="IDIOT">     3</i>
   <i type="int" name="PHON_NSTRUCT">    -1</i>
   <i type="logical" name="LMUSIC"> F  </i>
   <v name="POMASS">     12.01100000      1.00000000     14.00100000     16.00000000</v>
   <v name="DARWINR">      0.00000000      0.00000000      0.00000000      0.00000000</v>
   <v name="DARWINV">      1.00000000      1.00000000      1.00000000      1.00000000</v>
   <i type="logical" name="LCORR"> T  </i>
  </separator>
  <i type="logical" name="GGA_COMPAT"> T  </i>
  <i type="logical" name="LBERRY"> F  </i>
  <i type="int" name="ICORELEVEL">     0</i>
  <i type="logical" name="LDAU"> F  </i>
  <i type="int" name="I_CONSTRAINED_M">     0</i>
  <separator name="electronic exchange-correlation" >
   <i type="string" name="GGA">--</i>
   <i type="int" name="VOSKOWN">     0</i>
   <i type="logical" name="LHFCALC"> F  </i>
   <i type="string" name="PRECFOCK"></i>
   <i type="logical" name="LSYMGRAD"> F  </i>
   <i type="logical" name="LHFONE"> F  </i>
   <i type="logical" name="LRHFCALC"> F  </i>
   <i type="logical" name="LTHOMAS"> F  </i>
   <i type="logical" name="LMODELHF"> F  </i>
   <i type="logical" name="LFOCKACE"> F  </i>
   <i name="ENCUT4O">     -1.00000000</i>
   <i type="int" name="EXXOEP">     0</i>
   <i type="int" name="FOURORBIT">     0</i>
   <i name="AEXX">      0.00000000</i>
   <i name="HFALPHA">      0.00000000</i>
   <i name="MCALPHA">      0.00000000</i>
   <i name="ALDAX">      1.00000000</i>
   <i name="AGGAX">      1.00000000</i>
   <i name="ALDAC">      1.00000000</i>
   <i name="AGGAC">      1.00000000</i>
   <i type="int" name="NKREDX">     1</i>
   <i type="int" name="NKREDY">     1</i>
   <i type="int" name="NKREDZ">     1</i>
   <i type="logical" name="SHIFTRED"> F  </i>
   <i type="logical" name="ODDONLY"> F  </i>
   <i type="logical" name="EVENONLY"> F  </i>
   <i type="int" name="LMAXFOCK">     0</i>
   <i type="int" name="NMAXFOCKAE">     0</i>
   <i type="logical" name="LFOCKAEDFT"> F  </i>
   <i name="HFSCREEN">      0.00000000</i>
   <i name="HFSCREENC">      0.00000000</i>
   <i type="int" name="NBANDSGWLOW">     0</i>
  </separator>
  <separator name="vdW DFT" >
   <i type="logical" name="LUSE_VDW"> F  </i>
   <i type="int" name="IVDW_NL">     1</i>
   <i type="logical" name="LSPIN_VDW"> F  </i>
   <i name="Zab_VDW">     -0.84910000</i>
   <i name="PARAM1">      0.12340000</i>
   <i name="PARAM2">      1.00000000</i>
   <i name="PARAM3">      0.00000000</i>
  </separator>
  <separator name="model GW" >
   <i type="int" name="MODEL_GW">     0</i>
   <i name="MODEL_EPS0">     23.96835834</i>
   <i name="MODEL_ALPHA">      1.00000000</i>
  </separator>
  <separator name="linear response parameters" >
   <i type="logical" name="LEPSILON"> F  </i>
   <i type="logical" name="LRPA"> F  </i>
   <i type="logical" name="LNABLA"> F  </i>
   <i type="logical" name="LVEL"> F  </i>
   <i name="CSHIFT">      0.10000000</i>
   <i name="OMEGAMAX">     -1.00000000</i>
   <i name="DEG_THRESHOLD">      0.00200000</i>
   <i name="RTIME">     -0.10000000</i>
   <i name="WPLASMAI">      0.00000000</i>
   <v name="DFIELD">      0.00000000      0.00000000      0.00000000</v>
   <v name="WPLASMA">      0.00000000      0.00000000      0.00000000      0.00000000      0.00000000      0.00000000      0.00000000      0.00000000      0.00000000</v>
  </separator>
  <separator name="orbital magnetization" >
   <i type="logical" name="NUCIND"> F  </i>
   <v name="MAGPOS">      0.00000000      0.00000000      0.00000000</v>
   <i type="logical" name="LNICSALL"> T  </i>
   <i type="logical" name="ORBITALMAG"> F  </i>
   <i type="logical" name="LMAGBLOCH"> F  </i>
   <i type="logical" name="LCHIMAG"> F  </i>
   <i type="logical" name="LGAUGE"> T  </i>
   <i type="int" name="MAGATOM">     0</i>
   <v name="MAGDIPOL">      0.00000000      0.00000000      0.00000000</v>
   <v name="AVECCONST">      0.00000000      0.00000000      0.00000000</v>
  </separator>
  <separator name="response functions" >
   <i type="logical" name="LALL_IN_ONE"> F  </i>
   <i type="int" name="IALL_IN_ONE">    -1</i>
   <i type="int" name="NBANDS_WAVE">    -1</i>
   <i type="logical" name="LFINITE_TEMPERATURE"> F  </i>
   <i type="logical" name="LADDER"> F  </i>
   <i type="logical" name="LRPAFORCE"> F  </i>
   <i type="logical" name="LFXC"> F  </i>
   <i type="logical" name="LHARTREE"> T  </i>
   <i type="int" name="IBSE">     0</i>
   <v type="int" name="KPOINT">    -1     0     0     0</v>
   <i type="logical" name="LTCTC"> F  </i>
   <i type="logical" name="LTCTE"> F  </i>
   <i type="logical" name="LTETE"> F  </i>
   <i type="logical" name="LTRIPLET"> F  </i>
   <i type="logical" name="LFXCEPS"> F  </i>
   <i type="logical" name="LFXHEG"> F  </i>
   <i type="int" name="NATURALO">     2</i>
   <i type="logical" name="LHOLEGF"> F  </i>
   <i type="logical" name="L2ORDER"> F  </i>
   <i type="logical" name="LDMP1"> F  </i>
   <i type="logical" name="LMP2LT"> F  </i>
   <i type="logical" name="LSMP2LT"> F  </i>
   <i type="logical" name="LGWLF"> F  </i>
   <i name="ENCUTGW">     -1.60000002</i>
   <i name="ENCUTGWSOFT">     -1.60000002</i>
   <i name="ENCUTLF">     -1.00000000</i>
   <i type="logical" name="LESF_SPLINES"> F  </i>
   <i type="int" name="LMAXMP2">    -1</i>
   <i name="SCISSOR">      0.00000000</i>
   <i type="int" name="NOMEGA">     0</i>
   <i type="int" name="NOMEGAR">     0</i>
   <i type="int" name="NBANDSGW">    -1</i>
   <i type="int" name="NBANDSO">    -1</i>
   <i type="int" name="NBANDSV">    -1</i>
   <i type="int" name="NELMGW">     1</i>
   <i type="int" name="NELMHF">     1</i>
   <i type="int" name="DIM">     3</i>
   <i type="int" name="IESPILON">     4</i>
   <i type="int" name="ANTIRES">     0</i>
   <i name="OMEGAMAX">    -30.00000000</i>
   <i name="OMEGAMIN">    -30.00000000</i>
   <i name="OMEGATL">   -200.00000000</i>
   <i type="int" name="OMEGAGRID">     0</i>
   <i name="CSHIFT">     -0.10000000</i>
   <i type="logical" name="LSELFENERGY"> F  </i>
   <i type="logical" name="LSPECTRAL"> F  </i>
   <i type="logical" name="LSPECTRALGW"> F  </i>
   <i type="logical" name="LSINGLES"> F  </i>
   <i type="logical" name="LFERMIGW"> F  </i>
   <i type="logical" name="ODDONLYGW"> F  </i>
   <i type="logical" name="EVENONLYGW"> F  </i>
   <i type="int" name="NKREDLFX">     1</i>
   <i type="int" name="NKREDLFY">     1</i>
   <i type="int" name="NKREDLFZ">     1</i>
   <i type="int" name="MAXMEM">  2800</i>
   <i type="int" name="TELESCOPE">     0</i>
   <i type="int" name="NTAUPAR">    -1</i>
   <i type="int" name="NOMEGAPAR">    -1</i>
   <i name="DAMP_NEWTON">      0.80000001</i>
   <i name="LAMBDA">      1.00000000</i>
  </separator>
  <separator name="External order field" >
   <i name="OFIELD_KAPPA">      0.00000000</i>
   <v name="OFIELD_K">      0.00000000      0.00000000      0.00000000</v>
   <i name="OFIELD_Q6_NEAR">      0.00000000</i>
   <i name="OFIELD_Q6_FAR">      0.00000000</i>
   <i name="OFIELD_A">      0.00000000</i>
  </separator>
  <separator name="optional k-points parameters" >
   <i type="int" name="KPOINTS_OPT_MODE">     1</i>
   <i type="logical" name="LKPOINTS_OPT"> F  </i>
  </separator>
 </parameters>
 <atominfo>
  <atoms>      97 </atoms>
  <types>       4 </types>
  <array name="atoms" >
   <dimension dim="1">ion</dimension>
   <field type="string">element</field>
   <field type="int">atomtype</field>
   <set>
    <rc><c>C </c><c>   1</c></rc>
    <rc><c>C </c><c>   1</c></rc>
    <rc><c>C </c><c>   1</c></rc>
    <rc><c>C </c><c>   1</c></rc>
    <rc><c>C </c><c>   1</c></rc>
    <rc><c>C </c><c>   1</c></rc>
    <rc><c>C </c><c>   1</c></rc>
    <rc><c>C </c><c>   1</c></rc>
    <rc><c>C </c><c>   1</c></rc>
    <rc><c>C </c><c>   1</c></rc>
    <rc><c>C </c><c>   1</c></rc>
    <rc><c>C </c><c>   1</c></rc>
    <rc><c>C </c><c>   1</c></rc>
    <rc><c>C </c><c>   1</c></rc>
    <rc><c>C </c><c>   1</c></rc>
    <rc><c>C </c><c>   1</c></rc>
    <rc><c>C </c><c>   1</c></rc>
    <rc><c>C </c><c>   1</c></rc>
    <rc><c>C </c><c>   1</c></rc>
    <rc><c>C </c><c>   1</c></rc>
    <rc><c>C </c><c>   1</c></rc>
    <rc><c>C </c><c>   1</c></rc>
    <rc><c>C </c><c>   1</c></rc>
    <rc><c>C </c><c>   1</c></rc>
    <rc><c>C </c><c>   1</c></rc>
    <rc><c>C </c><c>   1</c></rc>
    <rc><c>C </c><c>   1</c></rc>
    <rc><c>C </c><c>   1</c></rc>
    <rc><c>C </c><c>   1</c></rc>
    <rc><c>C </c><c>   1</c></rc>
    <rc><c>C </c><c>   1</c></rc>
    <rc><c>C </c><c>   1</c></rc>
    <rc><c>C </c><c>   1</c></rc>
    <rc><c>C </c><c>   1</c></rc>
    <rc><c>C </c><c>   1</c></rc>
    <rc><c>C </c><c>   1</c></rc>
    <rc><c>C </c><c>   1</c></rc>
    <rc><c>C </c><c>   1</c></rc>
    <rc><c>C </c><c>   1</c></rc>
    <rc><c>C </c><c>   1</c></rc>
    <rc><c>C </c><c>   1</c></rc>
    <rc><c>C </c><c>   1</c></rc>
    <rc><c>C </c><c>   1</c></rc>
    <rc><c>C </c><c>   1</c></rc>
    <rc><c>C </c><c>   1</c></rc>
    <rc><c>C </c><c>   1</c></rc>
    <rc><c>C </c><c>   1</c></rc>
    <rc><c>C </c><c>   1</c></rc>
    <rc><c>C </c><c>   1</c></rc>
    <rc><c>C </c><c>   1</c></rc>
    <rc><c>C </c><c>   1</c></rc>
    <rc><c>C </c><c>   1</c></rc>
    <rc><c>C </c><c>   1</c></rc>
    <rc><c>C </c><c>   1</c></rc>
    <rc><c>C </c><c>   1</c></rc>
    <rc><c>C </c><c>   1</c></rc>
    <rc><c>C </c><c>   1</c></rc>
    <rc><c>C </c><c>   1</c></rc>
    <rc><c>C </c><c>   1</c></rc>
    <rc><c>C </c><c>   1</c></rc>
    <rc><c>C </c><c>   1</c></rc>
    <rc><c>C </c><c>   1</c></rc>
    <rc><c>C </c><c>   1</c></rc>
    <rc><c>C </c><c>   1</c></rc>
    <rc><c>C </c><c>   1</c></rc>
    <rc><c>C </c><c>   1</c></rc>
    <rc><c>C </c><c>   1</c></rc>
    <rc><c>C </c><c>   1</c></rc>
    <rc><c>C </c><c>   1</c></rc>
    <rc><c>C </c><c>   1</c></rc>
    <rc><c>C </c><c>   1</c></rc>
    <rc><c>C </c><c>   1</c></rc>
    <rc><c>C </c><c>   1</c></rc>
    <rc><c>C </c><c>   1</c></rc>
    <rc><c>C </c><c>   1</c></rc>
    <rc><c>C </c><c>   1</c></rc>
    <rc><c>C </c><c>   1</c></rc>
    <rc><c>C </c><c>   1</c></rc>
    <rc><c>C </c><c>   1</c></rc>
    <rc><c>C </c><c>   1</c></rc>
    <rc><c>C </c><c>   1</c></rc>
    <rc><c>C </c><c>   1</c></rc>
    <rc><c>C </c><c>   1</c></rc>
    <rc><c>C </c><c>   1</c></rc>
    <rc><c>C </c><c>   1</c></rc>
    <rc><c>C </c><c>   1</c></rc>
    <rc><c>H </c><c>   2</c></rc>
    <rc><c>H </c><c>   2</c></rc>
    <rc><c>H </c><c>   2</c></rc>
    <rc><c>H </c><c>   2</c></rc>
    <rc><c>H </c><c>   2</c></rc>
    <rc><c>H </c><c>   2</c></rc>
    <rc><c>H </c><c>   2</c></rc>
    <rc><c>H </c><c>   2</c></rc>
    <rc><c>N </c><c>   3</c></rc>
    <rc><c>N </c><c>   3</c></rc>
    <rc><c>O </c><c>   4</c></rc>
   </set>
  </array>
  <array name="atomtypes" >
   <dimension dim="1">type</dimension>
   <field type="int">atomspertype</field>
   <field type="string">element</field>
   <field>mass</field>
   <field>valence</field>
   <field type="string">pseudopotential</field>
   <set>
    <rc><c>  86</c><c>C </c><c>     12.01100000</c><c>      4.00000000</c><c>  PAW_PBE C 08Apr2002                   </c></rc>
    <rc><c>   8</c><c>H </c><c>      1.00000000</c><c>      1.00000000</c><c>  PAW_PBE H 15Jun2001                   </c></rc>
    <rc><c>   2</c><c>N </c><c>     14.00100000</c><c>      5.00000000</c><c>  PAW_PBE N 08Apr2002                   </c></rc>
    <rc><c>   1</c><c>O </c><c>     16.00000000</c><c>      6.00000000</c><c>  PAW_PBE O 08Apr2002                   </c></rc>
   </set>
  </array>
 </atominfo>
 <structure name="initialpos" >
  <crystal>
   <varray name="basis" >
    <v>      17.27103806       0.00000000       0.00000000 </v>
    <v>      -8.63551903      14.95715771       0.00000000 </v>
    <v>       0.00000000       0.00000000      15.00000000 </v>
   </varray>
   <i name="volume">   3874.88459904 </i>
   <varray name="rec_basis" >
    <v>       0.05790040       0.03342881       0.00000000 </v>
    <v>       0.00000000       0.06685762       0.00000000 </v>
    <v>       0.00000000       0.00000000       0.06666667 </v>
   </varray>
  </crystal>
  <varray name="positions" >
   <v>       0.99894609       0.99923133       0.49895905 </v>
   <v>       0.99894559       0.14204748       0.49978572 </v>
   <v>       0.99902983       0.28519782       0.50034577 </v>
   <v>       0.99893968       0.42825780       0.50024659 </v>
   <v>       0.99897938       0.57109663       0.49945623 </v>
   <v>       0.99917420       0.71375894       0.49909673 </v>
   <v>       0.99914906       0.85679521       0.49897742 </v>
   <v>       0.14257751       0.00000563       0.49896841 </v>
   <v>       0.14220062       0.14252496       0.50013165 </v>
   <v>       0.14133185       0.28467941       0.50148483 </v>
   <v>       0.14132524       0.42799625       0.50183044 </v>
   <v>       0.14220176       0.57101731       0.50081556 </v>
   <v>       0.14260355       0.71395309       0.49935370 </v>
   <v>       0.14255086       0.85696105       0.49874360 </v>
   <v>       0.28573164       0.00000693       0.49901441 </v>
   <v>       0.28598008       0.14307082       0.50029006 </v>
   <v>       0.28553026       0.28681078       0.50270715 </v>
   <v>       0.28290809       0.42710471       0.50424517 </v>
   <v>       0.28550947       0.57001262       0.50322918 </v>
   <v>       0.28597620       0.71422849       0.50085336 </v>
   <v>       0.28573915       0.85707894       0.49923675 </v>
   <v>       0.42863016       0.99997957       0.49914416 </v>
   <v>       0.42927961       0.14351385       0.49972503 </v>
   <v>       0.42807226       0.28368242       0.50168758 </v>
   <v>       0.42807522       0.71570527       0.50245199 </v>
   <v>       0.42928090       0.85708261       0.50009915 </v>
   <v>       0.57119771       0.99993825       0.49973771 </v>
   <v>       0.57121774       0.14265182       0.49950341 </v>
   <v>       0.57460828       0.28857756       0.50071669 </v>
   <v>       0.57461104       0.85742308       0.50117282 </v>
   <v>       0.71405204       0.00034174       0.50026002 </v>
   <v>       0.71396364       0.14268481       0.49949129 </v>
   <v>       0.71406871       0.28513739       0.50012352 </v>
   <v>       0.70968658       0.42432809       0.50257118 </v>
   <v>       0.71462872       0.57128042       0.51064331 </v>
   <v>       0.71462891       0.71473608       0.51064009 </v>
   <v>       0.70970969       0.85679050       0.50265559 </v>
   <v>       0.85606580       0.99933932       0.50011793 </v>
   <v>       0.85649294       0.14256853       0.49973132 </v>
   <v>       0.85650935       0.28534892       0.49982091 </v>
   <v>       0.85608643       0.42813538       0.50036896 </v>
   <v>       0.85517129       0.57027272       0.50109972 </v>
   <v>       0.85624464       0.71380825       0.50216722 </v>
   <v>       0.85514736       0.85626013       0.50089402 </v>
   <v>       0.04683218       0.09460150       0.49948169 </v>
   <v>       0.04611904       0.23706655       0.50045477 </v>
   <v>       0.04612138       0.38042554       0.50077882 </v>
   <v>       0.04683506       0.52358435       0.50010789 </v>
   <v>       0.04697719       0.66640796       0.49910486 </v>
   <v>       0.04682631       0.80910036       0.49881786 </v>
   <v>       0.04695278       0.95193202       0.49876591 </v>
   <v>       0.19030389       0.09504907       0.49976184 </v>
   <v>       0.18954976       0.23765633       0.50146105 </v>
   <v>       0.18771609       0.37954533       0.50253598 </v>
   <v>       0.18954604       0.52322134       0.50205306 </v>
   <v>       0.19031008       0.66659583       0.50030467 </v>
   <v>       0.19039698       0.80945762       0.49905004 </v>
   <v>       0.19040370       0.95232302       0.49884213 </v>
   <v>       0.33382152       0.09574653       0.49958035 </v>
   <v>       0.33463692       0.23856841       0.50162713 </v>
   <v>       0.32933947       0.37949961       0.50451303 </v>
   <v>       0.32933575       0.52112942       0.50469598 </v>
   <v>       0.33463643       0.66737697       0.50228559 </v>
   <v>       0.33380981       0.80939285       0.49999235 </v>
   <v>       0.33316006       0.95225862       0.49899244 </v>
   <v>       0.47621580       0.09517276       0.49932933 </v>
   <v>       0.47692062       0.23923029       0.50053457 </v>
   <v>       0.47691396       0.80900346       0.50111760 </v>
   <v>       0.47621037       0.95238321       0.49952931 </v>
   <v>       0.61864118       0.09501044       0.49946821 </v>
   <v>       0.61934464       0.23808503       0.50008669 </v>
   <v>       0.61934278       0.95266107       0.50043565 </v>
   <v>       0.76165248       0.09548221       0.49964443 </v>
   <v>       0.76164954       0.23757256       0.49963963 </v>
   <v>       0.76071694       0.37993880       0.50099397 </v>
   <v>       0.75874595       0.52262650       0.50453520 </v>
   <v>       0.76046813       0.66592450       0.50802121 </v>
   <v>       0.75873700       0.80750969       0.50445019 </v>
   <v>       0.76070254       0.95220982       0.50098268 </v>
   <v>       0.90367392       0.09432867       0.49975949 </v>
   <v>       0.90398743       0.23768844       0.49984611 </v>
   <v>       0.90370068       0.38074796       0.50001206 </v>
   <v>       0.90354160       0.52347999       0.49993295 </v>
   <v>       0.90331394       0.66573770       0.50055229 </v>
   <v>       0.90328622       0.80893328       0.50041951 </v>
   <v>       0.90350605       0.95141987       0.49958347 </v>
   <v>       0.46654731       0.35630356       0.50288049 </v>
   <v>       0.40187649       0.41913054       0.50479777 </v>
   <v>       0.40187250       0.55406960       0.50492264 </v>
   <v>       0.64224063       0.67899521       0.51875935 </v>
   <v>       0.64223572       0.53464719       0.51871489 </v>
   <v>       0.46655278       0.68156817       0.50382522 </v>
   <v>       0.55612964       0.60851093       0.42076097 </v>
   <v>       0.55700280       0.51985172       0.42055142 </v>
   <v>       0.61961625       0.37911053       0.50172794 </v>
   <v>       0.61963879       0.81192224       0.50205565 </v>
   <v>       0.51788933       0.54453919       0.43022414 </v>
  </varray>
  <varray name="selective"  type="logical" >
   <v type="logical" >  T  T  T </v>
   <v type="logical" >  T  T  T </v>
   <v type="logical" >  T  T  T </v>
   <v type="logical" >  T  T  T </v>
   <v type="logical" >  T  T  T </v>
   <v type="logical" >  T  T  T </v>
   <v type="logical" >  T  T  T </v>
   <v type="logical" >  T  T  T </v>
   <v type="logical" >  T  T  T </v>
   <v type="logical" >  T  T  T </v>
   <v type="logical" >  T  T  T </v>
   <v type="logical" >  T  T  T </v>
   <v type="logical" >  T  T  T </v>
   <v type="logical" >  T  T  T </v>
   <v type="logical" >  T  T  T </v>
   <v type="logical" >  T  T  T </v>
   <v type="logical" >  T  T  T </v>
   <v type="logical" >  T  T  T </v>
   <v type="logical" >  T  T  T </v>
   <v type="logical" >  T  T  T </v>
   <v type="logical" >  T  T  T </v>
   <v type="logical" >  T  T  T </v>
   <v type="logical" >  T  T  T </v>
   <v type="logical" >  T  T  T </v>
   <v type="logical" >  T  T  T </v>
   <v type="logical" >  T  T  T </v>
   <v type="logical" >  T  T  T </v>
   <v type="logical" >  T  T  T </v>
   <v type="logical" >  T  T  T </v>
   <v type="logical" >  T  T  T </v>
   <v type="logical" >  T  T  T </v>
   <v type="logical" >  T  T  T </v>
   <v type="logical" >  T  T  T </v>
   <v type="logical" >  T  T  T </v>
   <v type="logical" >  T  T  T </v>
   <v type="logical" >  T  T  T </v>
   <v type="logical" >  T  T  T </v>
   <v type="logical" >  T  T  T </v>
   <v type="logical" >  T  T  T </v>
   <v type="logical" >  T  T  T </v>
   <v type="logical" >  T  T  T </v>
   <v type="logical" >  T  T  T </v>
   <v type="logical" >  T  T  T </v>
   <v type="logical" >  T  T  T </v>
   <v type="logical" >  T  T  T </v>
   <v type="logical" >  T  T  T </v>
   <v type="logical" >  T  T  T </v>
   <v type="logical" >  T  T  T </v>
   <v type="logical" >  T  T  T </v>
   <v type="logical" >  T  T  T </v>
   <v type="logical" >  T  T  T </v>
   <v type="logical" >  T  T  T </v>
   <v type="logical" >  T  T  T </v>
   <v type="logical" >  T  T  T </v>
   <v type="logical" >  T  T  T </v>
   <v type="logical" >  T  T  T </v>
   <v type="logical" >  T  T  T </v>
   <v type="logical" >  T  T  T </v>
   <v type="logical" >  T  T  T </v>
   <v type="logical" >  T  T  T </v>
   <v type="logical" >  T  T  T </v>
   <v type="logical" >  T  T  T </v>
   <v type="logical" >  T  T  T </v>
   <v type="logical" >  T  T  T </v>
   <v type="logical" >  T  T  T </v>
   <v type="logical" >  T  T  T </v>
   <v type="logical" >  T  T  T </v>
   <v type="logical" >  T  T  T </v>
   <v type="logical" >  T  T  T </v>
   <v type="logical" >  T  T  T </v>
   <v type="logical" >  T  T  T </v>
   <v type="logical" >  T  T  T </v>
   <v type="logical" >  T  T  T </v>
   <v type="logical" >  T  T  T </v>
   <v type="logical" >  T  T  T </v>
   <v type="logical" >  T  T  T </v>
   <v type="logical" >  T  T  T </v>
   <v type="logical" >  T  T  T </v>
   <v type="logical" >  T  T  T </v>
   <v type="logical" >  T  T  T </v>
   <v type="logical" >  T  T  T </v>
   <v type="logical" >  T  T  T </v>
   <v type="logical" >  T  T  T </v>
   <v type="logical" >  T  T  T </v>
   <v type="logical" >  T  T  T </v>
   <v type="logical" >  T  T  T </v>
   <v type="logical" >  T  T  T </v>
   <v type="logical" >  T  T  T </v>
   <v type="logical" >  T  T  T </v>
   <v type="logical" >  T  T  T </v>
   <v type="logical" >  T  T  T </v>
   <v type="logical" >  T  T  T </v>
   <v type="logical" >  T  T  T </v>
   <v type="logical" >  T  T  T </v>
   <v type="logical" >  T  T  T </v>
   <v type="logical" >  T  T  T </v>
   <v type="logical" >  T  T  F </v>
  </varray>
  <nose>
   <v>      -3.00000000       0.00000000       0.00010000       0.00010000 </v>
  </nose>
 </structure>
 <calculation>
  <scstep>
   <time name="dav">   72.45   72.89</time>
   <time name="total">   77.67   78.19</time>
   <energy>
    <i name="alphaZ">    175.87611319 </i>
    <i name="ewald">  36488.74422497 </i>
    <i name="hartreedc"> -46688.62442547 </i>
    <i name="XCdc">   1223.87914687 </i>
    <i name="pawpsdc">  10101.41315093 </i>
    <i name="pawaedc"> -10154.35997595 </i>
    <i name="eentropy">     -0.04618914 </i>
    <i name="bandstr">  -1588.12181776 </i>
    <i name="atom">  13716.13071916 </i>
    <i name="e_fr_energy">   3274.89094679 </i>
    <i name="e_wo_entrp">   3274.93713593 </i>
    <i name="e_0_energy">   3274.91404136 </i>
   </energy>
  </scstep>
  <scstep>
   <time name="dav">   95.11   95.71</time>
   <time name="total">   95.11   95.72</time>
   <energy>
    <i name="e_fr_energy">   -249.26488464 </i>
    <i name="e_wo_entrp">   -249.26482516 </i>
    <i name="e_0_energy">   -249.26485490 </i>
   </energy>
  </scstep>
  <scstep>
   <time name="dav">   82.20   82.73</time>
   <time name="total">   82.20   82.74</time>
   <energy>
    <i name="e_fr_energy">   -864.32179021 </i>
    <i name="e_wo_entrp">   -864.32178799 </i>
    <i name="e_0_energy">   -864.32178910 </i>
   </energy>
  </scstep>
  <scstep>
   <time name="dav">   83.22   83.77</time>
   <time name="total">   83.22   83.78</time>
   <energy>
    <i name="e_fr_energy">   -886.53317405 </i>
    <i name="e_wo_entrp">   -886.53317255 </i>
    <i name="e_0_energy">   -886.53317330 </i>
   </energy>
  </scstep>
  <scstep>
   <time name="dav">   91.45   92.04</time>
   <time name="total">   96.84   97.49</time>
   <energy>
    <i name="e_fr_energy">   -887.16485268 </i>
    <i name="e_wo_entrp">   -887.16485113 </i>
    <i name="e_0_energy">   -887.16485190 </i>
   </energy>
  </scstep>
  <scstep>
   <time name="dav">   79.61   80.11</time>
   <time name="total">   89.82   90.43</time>
   <energy>
    <i name="e_fr_energy">   -869.80285836 </i>
    <i name="e_wo_entrp">   -869.80052897 </i>
    <i name="e_0_energy">   -869.80169367 </i>
   </energy>
  </scstep>
  <scstep>
   <time name="dav">   78.41   78.89</time>
   <time name="total">   88.58   89.16</time>
   <energy>
    <i name="e_fr_energy">   -847.63484181 </i>
    <i name="e_wo_entrp">   -847.63482899 </i>
    <i name="e_0_energy">   -847.63483540 </i>
   </energy>
  </scstep>
  <scstep>
   <time name="dav">   79.23   79.73</time>
   <time name="total">   89.41   90.06</time>
   <energy>
    <i name="e_fr_energy">   -842.83101389 </i>
    <i name="e_wo_entrp">   -842.83101383 </i>
    <i name="e_0_energy">   -842.83101386 </i>
   </energy>
  </scstep>
  <scstep>
   <time name="dav">   77.38   77.84</time>
   <time name="total">   87.79   88.35</time>
   <energy>
    <i name="e_fr_energy">   -842.73137728 </i>
    <i name="e_wo_entrp">   -842.73137721 </i>
    <i name="e_0_energy">   -842.73137724 </i>
   </energy>
  </scstep>
  <scstep>
   <time name="dav">   76.02   76.52</time>
   <time name="total">   86.74   87.36</time>
   <energy>
    <i name="e_fr_energy">   -842.63796018 </i>
    <i name="e_wo_entrp">   -842.63796014 </i>
    <i name="e_0_energy">   -842.63796016 </i>
   </energy>
  </scstep>
  <scstep>
   <time name="dav">   75.85   76.31</time>
   <time name="total">   86.70   87.28</time>
   <energy>
    <i name="e_fr_energy">   -842.62655739 </i>
    <i name="e_wo_entrp">   -842.62655735 </i>
    <i name="e_0_energy">   -842.62655737 </i>
   </energy>
  </scstep>
  <scstep>
   <time name="dav">   82.18   82.68</time>
   <time name="total">   92.82   93.41</time>
   <energy>
    <i name="e_fr_energy">   -842.62474981 </i>
    <i name="e_wo_entrp">   -842.62474977 </i>
    <i name="e_0_energy">   -842.62474979 </i>
   </energy>
  </scstep>
  <scstep>
   <time name="dav">   79.07   79.55</time>
   <time name="total">   89.89   90.47</time>
   <energy>
    <i name="e_fr_energy">   -842.62437110 </i>
    <i name="e_wo_entrp">   -842.62437106 </i>
    <i name="e_0_energy">   -842.62437108 </i>
   </energy>
  </scstep>
  <scstep>
   <time name="dav">   80.01   80.49</time>
   <time name="total">   90.77   91.35</time>
   <energy>
    <i name="e_fr_energy">   -842.62449387 </i>
    <i name="e_wo_entrp">   -842.62449383 </i>
    <i name="e_0_energy">   -842.62449385 </i>
   </energy>
  </scstep>
  <scstep>
   <time name="dav">   75.16   75.61</time>
   <time name="total">   85.88   86.44</time>
   <energy>
    <i name="e_fr_energy">   -842.62452355 </i>
    <i name="e_wo_entrp">   -842.62452351 </i>
    <i name="e_0_energy">   -842.62452353 </i>
   </energy>
  </scstep>
  <scstep>
   <time name="dav">   66.42   66.83</time>
   <time name="total">   77.32   77.83</time>
   <energy>
    <i name="e_fr_energy">   -842.62453730 </i>
    <i name="e_wo_entrp">   -842.62453726 </i>
    <i name="e_0_energy">   -842.62453728 </i>
   </energy>
  </scstep>
  <scstep>
   <time name="dav">   59.88   60.25</time>
   <time name="total">   64.83   65.27</time>
   <energy>
    <i name="alphaZ">    175.87611319 </i>
    <i name="ewald">  36488.74422497 </i>
    <i name="hartreedc"> -48197.34659949 </i>
    <i name="XCdc">   1273.88428653 </i>
    <i name="pawpsdc">  37277.74902869 </i>
    <i name="pawaedc"> -37341.56882570 </i>
    <i name="eentropy">     -0.00000004 </i>
    <i name="bandstr">  -4236.09348470 </i>
    <i name="atom">  13716.13071916 </i>
    <i name="e_fr_energy">   -842.62453740 </i>
    <i name="e_wo_entrp">   -842.62453736 </i>
    <i name="e_0_energy">   -842.62453738 </i>
   </energy>
  </scstep>
  <structure>
   <crystal>
    <varray name="basis" >
     <v>      17.27103806       0.00000000       0.00000000 </v>
     <v>      -8.63551903      14.95715771       0.00000000 </v>
     <v>       0.00000000       0.00000000      15.00000000 </v>
    </varray>
    <i name="volume">   3874.88459904 </i>
    <varray name="rec_basis" >
     <v>       0.05790040       0.03342881       0.00000000 </v>
     <v>       0.00000000       0.06685762       0.00000000 </v>
     <v>       0.00000000       0.00000000       0.06666667 </v>
    </varray>
   </crystal>
   <varray name="positions" >
    <v>       0.99894609       0.99923133       0.49895905 </v>
    <v>       0.99894559       0.14204748       0.49978572 </v>
    <v>       0.99902983       0.28519782       0.50034577 </v>
    <v>       0.99893968       0.42825780       0.50024659 </v>
    <v>       0.99897938       0.57109663       0.49945623 </v>
    <v>       0.99917420       0.71375894       0.49909673 </v>
    <v>       0.99914906       0.85679521       0.49897742 </v>
    <v>       0.14257751       0.00000563       0.49896841 </v>
    <v>       0.14220062       0.14252496       0.50013165 </v>
    <v>       0.14133185       0.28467941       0.50148483 </v>
    <v>       0.14132524       0.42799625       0.50183044 </v>
    <v>       0.14220176       0.57101731       0.50081556 </v>
    <v>       0.14260355       0.71395309       0.49935370 </v>
    <v>       0.14255086       0.85696105       0.49874360 </v>
    <v>       0.28573164       0.00000693       0.49901441 </v>
    <v>       0.28598008       0.14307082       0.50029006 </v>
    <v>       0.28553026       0.28681078       0.50270715 </v>
    <v>       0.28290809       0.42710471       0.50424517 </v>
    <v>       0.28550947       0.57001262       0.50322918 </v>
    <v>       0.28597620       0.71422849       0.50085336 </v>
    <v>       0.28573915       0.85707894       0.49923675 </v>
    <v>       0.42863016       0.99997957       0.49914416 </v>
    <v>       0.42927961       0.14351385       0.49972503 </v>
    <v>       0.42807226       0.28368242       0.50168758 </v>
    <v>       0.42807522       0.71570527       0.50245199 </v>
    <v>       0.42928090       0.85708261       0.50009915 </v>
    <v>       0.57119771       0.99993825       0.49973771 </v>
    <v>       0.57121774       0.14265182       0.49950341 </v>
    <v>       0.57460828       0.28857756       0.50071669 </v>
    <v>       0.57461104       0.85742308       0.50117282 </v>
    <v>       0.71405204       0.00034174       0.50026002 </v>
    <v>       0.71396364       0.14268481       0.49949129 </v>
    <v>       0.71406871       0.28513739       0.50012352 </v>
    <v>       0.70968658       0.42432809       0.50257118 </v>
    <v>       0.71462872       0.57128042       0.51064331 </v>
    <v>       0.71462891       0.71473608       0.51064009 </v>
    <v>       0.70970969       0.85679050       0.50265559 </v>
    <v>       0.85606580       0.99933932       0.50011793 </v>
    <v>       0.85649294       0.14256853       0.49973132 </v>
    <v>       0.85650935       0.28534892       0.49982091 </v>
    <v>       0.85608643       0.42813538       0.50036896 </v>
    <v>       0.85517129       0.57027272       0.50109972 </v>
    <v>       0.85624464       0.71380825       0.50216722 </v>
    <v>       0.85514736       0.85626013       0.50089402 </v>
    <v>       0.04683218       0.09460150       0.49948169 </v>
    <v>       0.04611904       0.23706655       0.50045477 </v>
    <v>       0.04612138       0.38042554       0.50077882 </v>
    <v>       0.04683506       0.52358435       0.50010789 </v>
    <v>       0.04697719       0.66640796       0.49910486 </v>
    <v>       0.04682631       0.80910036       0.49881786 </v>
    <v>       0.04695278       0.95193202       0.49876591 </v>
    <v>       0.19030389       0.09504907       0.49976184 </v>
    <v>       0.18954976       0.23765633       0.50146105 </v>
    <v>       0.18771609       0.37954533       0.50253598 </v>
    <v>       0.18954604       0.52322134       0.50205306 </v>
    <v>       0.19031008       0.66659583       0.50030467 </v>
    <v>       0.19039698       0.80945762       0.49905004 </v>
    <v>       0.19040370       0.95232302       0.49884213 </v>
    <v>       0.33382152       0.09574653       0.49958035 </v>
    <v>       0.33463692       0.23856841       0.50162713 </v>
    <v>       0.32933947       0.37949961       0.50451303 </v>
    <v>       0.32933575       0.52112942       0.50469598 </v>
    <v>       0.33463643       0.66737697       0.50228559 </v>
    <v>       0.33380981       0.80939285       0.49999235 </v>
    <v>       0.33316006       0.95225862       0.49899244 </v>
    <v>       0.47621580       0.09517276       0.49932933 </v>
    <v>       0.47692062       0.23923029       0.50053457 </v>
    <v>       0.47691396       0.80900346       0.50111760 </v>
    <v>       0.47621037       0.95238321       0.49952931 </v>
    <v>       0.61864118       0.09501044       0.49946821 </v>
    <v>       0.61934464       0.23808503       0.50008669 </v>
    <v>       0.61934278       0.95266107       0.50043565 </v>
    <v>       0.76165248       0.09548221       0.49964443 </v>
    <v>       0.76164954       0.23757256       0.49963963 </v>
    <v>       0.76071694       0.37993880       0.50099397 </v>
    <v>       0.75874595       0.52262650       0.50453520 </v>
    <v>       0.76046813       0.66592450       0.50802121 </v>
    <v>       0.75873700       0.80750969       0.50445019 </v>
    <v>       0.76070254       0.95220982       0.50098268 </v>
    <v>       0.90367392       0.09432867       0.49975949 </v>
    <v>       0.90398743       0.23768844       0.49984611 </v>
    <v>       0.90370068       0.38074796       0.50001206 </v>
    <v>       0.90354160       0.52347999       0.49993295 </v>
    <v>       0.90331394       0.66573770       0.50055229 </v>
    <v>       0.90328622       0.80893328       0.50041951 </v>
    <v>       0.90350605       0.95141987       0.49958347 </v>
    <v>       0.46654731       0.35630356       0.50288049 </v>
    <v>       0.40187649       0.41913054       0.50479777 </v>
    <v>       0.40187250       0.55406960       0.50492264 </v>
    <v>       0.64224063       0.67899521       0.51875935 </v>
    <v>       0.64223572       0.53464719       0.51871489 </v>
    <v>       0.46655278       0.68156817       0.50382522 </v>
    <v>       0.55612964       0.60851093       0.42076097 </v>
    <v>       0.55700280       0.51985172       0.42055142 </v>
    <v>       0.61961625       0.37911053       0.50172794 </v>
    <v>       0.61963879       0.81192224       0.50205565 </v>
    <v>       0.51788933       0.54453919       0.43022414 </v>
   </varray>
  </structure>
  <varray name="forces" >
   <v>      -0.00110557      -0.00129429      -0.00086562 </v>
   <v>       0.00025670       0.00081000       0.00023029 </v>
   <v>       0.00088798       0.00527378       0.00004143 </v>
   <v>       0.00563427       0.00232671      -0.00031883 </v>
   <v>       0.00306017      -0.00148531       0.00026736 </v>
   <v>      -0.00031089      -0.00725294       0.00016976 </v>
   <v>      -0.00139440      -0.00137589      -0.00129368 </v>
   <v>      -0.00070280      -0.00030857      -0.00301797 </v>
   <v>       0.00009641       0.00030122      -0.00040608 </v>
   <v>      -0.00030856       0.00179273       0.00310758 </v>
   <v>       0.00047664       0.00374162       0.00298038 </v>
   <v>       0.00115777      -0.00215287       0.00083813 </v>
   <v>       0.00270629      -0.00906178      -0.00061952 </v>
   <v>      -0.00020726      -0.00176130      -0.00298918 </v>
   <v>      -0.00014492      -0.00080479      -0.00196693 </v>
   <v>      -0.00066225       0.00007046      -0.00030863 </v>
   <v>      -0.00054783       0.00030905       0.00307998 </v>
   <v>       0.00000508       0.00392091       0.00531835 </v>
   <v>      -0.00150479      -0.00015892       0.00379006 </v>
   <v>      -0.00290495      -0.00630159       0.00143684 </v>
   <v>       0.00018108      -0.00257683      -0.00127580 </v>
   <v>       0.00172591      -0.00090588      -0.00152894 </v>
   <v>      -0.00041736       0.00070989       0.00009933 </v>
   <v>      -0.00005559       0.00021604       0.00343157 </v>
   <v>      -0.00023917      -0.00119397       0.00357259 </v>
   <v>       0.00065042      -0.00218278       0.00133337 </v>
   <v>       0.00145826      -0.00095006       0.00094361 </v>
   <v>       0.00077075      -0.00021035      -0.00076512 </v>
   <v>      -0.00018501      -0.00066920       0.00290285 </v>
   <v>      -0.00028311      -0.00005102       0.00432570 </v>
   <v>       0.00021574      -0.00129989       0.00197360 </v>
   <v>       0.00343020      -0.00134254       0.00020436 </v>
   <v>       0.00116202       0.00027244       0.00045281 </v>
   <v>       0.00049705       0.00022844       0.00732461 </v>
   <v>      -0.00148240      -0.00154546       0.01328747 </v>
   <v>      -0.00261929      -0.00304453       0.01113758 </v>
   <v>      -0.00059933      -0.00098588       0.00484058 </v>
   <v>      -0.00352541      -0.00703343       0.00217061 </v>
   <v>       0.00027650       0.00092366      -0.00014691 </v>
   <v>       0.00779538       0.00245629      -0.00078909 </v>
   <v>       0.00434074       0.00019098       0.00223375 </v>
   <v>       0.00030991      -0.00129012       0.00600134 </v>
   <v>      -0.00108314      -0.00252283       0.00733186 </v>
   <v>      -0.00336185      -0.00292458       0.00292766 </v>
   <v>      -0.00185206       0.00020794      -0.00093528 </v>
   <v>       0.00026539      -0.00206152       0.00123476 </v>
   <v>      -0.00316646      -0.00802213       0.00115889 </v>
   <v>      -0.00289638       0.00104771       0.00011574 </v>
   <v>      -0.00195584       0.00445157      -0.00077069 </v>
   <v>      -0.00056704       0.00275227      -0.00222393 </v>
   <v>      -0.00034007      -0.00058740      -0.00263360 </v>
   <v>      -0.00036802      -0.00058581      -0.00171982 </v>
   <v>       0.00024474      -0.00051969       0.00203906 </v>
   <v>       0.00134833      -0.00213297       0.00439097 </v>
   <v>       0.00147724       0.00030029       0.00282273 </v>
   <v>      -0.00317081       0.00794185       0.00025462 </v>
   <v>      -0.00133893       0.00404462      -0.00194620 </v>
   <v>      -0.00092184       0.00094325      -0.00056204 </v>
   <v>      -0.00016961      -0.00005398      -0.00080082 </v>
   <v>      -0.00005135      -0.00038838       0.00201726 </v>
   <v>       0.00085526      -0.00076867       0.00439909 </v>
   <v>       0.00229043      -0.00146874       0.00441211 </v>
   <v>       0.00164282       0.00225697       0.00309570 </v>
   <v>      -0.00042271       0.00396840       0.00041304 </v>
   <v>      -0.00091769       0.00297980      -0.00160964 </v>
   <v>      -0.00077925       0.00054375      -0.00064013 </v>
   <v>      -0.00038372      -0.00055204       0.00213532 </v>
   <v>      -0.00138645       0.00297030       0.00365046 </v>
   <v>      -0.00239386       0.00307025      -0.00039141 </v>
   <v>      -0.00191756       0.00148109      -0.00043032 </v>
   <v>      -0.00044478       0.00002494       0.00021799 </v>
   <v>      -0.00189716       0.00155978       0.00246514 </v>
   <v>      -0.00187048       0.00154754       0.00023587 </v>
   <v>      -0.00423733       0.00022786      -0.00072702 </v>
   <v>      -0.00156708      -0.00098087       0.00325895 </v>
   <v>      -0.00060421       0.00121434       0.00915213 </v>
   <v>       0.00090607      -0.00148056       0.01149002 </v>
   <v>       0.00042907      -0.00103993       0.00586702 </v>
   <v>       0.00116439       0.00217760       0.00261811 </v>
   <v>       0.00054566       0.00258634       0.00006803 </v>
   <v>      -0.00296476      -0.00085580      -0.00051029 </v>
   <v>      -0.00497132      -0.00145879       0.00028913 </v>
   <v>      -0.00554733      -0.00051436       0.00203590 </v>
   <v>      -0.00041883       0.00106816       0.00376353 </v>
   <v>       0.00001348       0.00031007       0.00329414 </v>
   <v>      -0.00016246       0.00077916       0.00116387 </v>
   <v>       0.00021395       0.00007035       0.00480387 </v>
   <v>       0.00055671      -0.00022882       0.00390680 </v>
   <v>       0.00061820       0.00056960       0.00355772 </v>
   <v>       0.00018105      -0.00266384       0.00946462 </v>
   <v>      -0.00252481      -0.00002012       0.01007806 </v>
   <v>       0.00059325       0.00116024       0.00460179 </v>
   <v>       0.00868778       0.00422407      -0.07553786 </v>
   <v>       0.00902565       0.00475201      -0.07540194 </v>
   <v>      -0.00086282      -0.00019061       0.00625667 </v>
   <v>      -0.00162754       0.00004082       0.00575775 </v>
   <v>       0.01019174       0.00444542      -0.04110899 </v>
  </varray>
  <varray name="stress" >
   <v>      -2.44537011      -0.91461113      -0.01530575 </v>
   <v>      -0.91461106      -1.38280204       0.00144463 </v>
   <v>      -0.01530547       0.00144478      -0.19460914 </v>
  </varray>
  <energy>
   <i name="e_fr_energy">   -850.36891371 </i>
   <i name="e_wo_entrp">   -850.36891367 </i>
   <i name="e_0_energy">   -850.36891369 </i>
  </energy>
  <time name="totalsc"> 1715.75 1727.06</time>
 </calculation>
 <calculation>
  <scstep>
   <time name="dav">   71.29   71.71</time>
   <time name="total">   82.30   82.82</time>
   <energy>
    <i name="alphaZ">    175.87611319 </i>
    <i name="ewald">  36488.72327330 </i>
    <i name="hartreedc"> -48197.31166357 </i>
    <i name="XCdc">   1273.88433211 </i>
    <i name="pawpsdc">  37277.51550083 </i>
    <i name="pawaedc"> -37341.33503763 </i>
    <i name="eentropy">     -0.00000004 </i>
    <i name="bandstr">  -4236.10778347 </i>
    <i name="atom">  13716.13071916 </i>
    <i name="e_fr_energy">   -842.62454613 </i>
    <i name="e_wo_entrp">   -842.62454609 </i>
    <i name="e_0_energy">   -842.62454611 </i>
   </energy>
  </scstep>
  <scstep>
   <time name="dav">   50.93   51.23</time>
   <time name="total">   56.06   56.43</time>
   <energy>
    <i name="alphaZ">    175.87611319 </i>
    <i name="ewald">  36488.72327330 </i>
    <i name="hartreedc"> -48197.30406659 </i>
    <i name="XCdc">   1273.88425721 </i>
    <i name="pawpsdc">  37277.46484244 </i>
    <i name="pawaedc"> -37341.28437578 </i>
    <i name="eentropy">     -0.00000004 </i>
    <i name="bandstr">  -4236.11530942 </i>
    <i name="atom">  13716.13071916 </i>
    <i name="e_fr_energy">   -842.62454655 </i>
    <i name="e_wo_entrp">   -842.62454651 </i>
    <i name="e_0_energy">   -842.62454653 </i>
   </energy>
  </scstep>
  <structure>
   <crystal>
    <varray name="basis" >
     <v>      17.27103806       0.00000000       0.00000000 </v>
     <v>      -8.63551903      14.95715771       0.00000000 </v>
     <v>       0.00000000       0.00000000      15.00000000 </v>
    </varray>
    <i name="volume">   3874.88459904 </i>
    <varray name="rec_basis" >
     <v>       0.05790040       0.03342881       0.00000000 </v>
     <v>       0.00000000       0.06685762       0.00000000 </v>
     <v>       0.00000000       0.00000000       0.06666667 </v>
    </varray>
   </crystal>
   <varray name="positions" >
    <v>       0.99894535       0.99923062       0.49895795 </v>
    <v>       0.99894599       0.14204796       0.49978531 </v>
    <v>       0.99903198       0.28520126       0.50034511 </v>
    <v>       0.99894370       0.42825934       0.50024541 </v>
    <v>       0.99898097       0.57109576       0.49945548 </v>
    <v>       0.99917210       0.71375431       0.49909614 </v>
    <v>       0.99914833       0.85679453       0.49897594 </v>
    <v>       0.14257731       0.00000554       0.49896628 </v>
    <v>       0.14220077       0.14252511       0.50013074 </v>
    <v>       0.14133201       0.28468044       0.50148589 </v>
    <v>       0.14132649       0.42799862       0.50183119 </v>
    <v>       0.14220169       0.57101589       0.50081504 </v>
    <v>       0.14260238       0.71394717       0.49935302 </v>
    <v>       0.14255055       0.85696005       0.49874167 </v>
    <v>       0.28573159       0.00000654       0.49901344 </v>
    <v>       0.28597984       0.14307093       0.50028964 </v>
    <v>       0.28552964       0.28681074       0.50270871 </v>
    <v>       0.28290880       0.42710703       0.50424855 </v>
    <v>       0.28550811       0.57001234       0.50323104 </v>
    <v>       0.28597251       0.71422429       0.50085401 </v>
    <v>       0.28573868       0.85707734       0.49923625 </v>
    <v>       0.42863108       0.99997908       0.49914373 </v>
    <v>       0.42927981       0.14351453       0.49972534 </v>
    <v>       0.42807221       0.28368264       0.50168907 </v>
    <v>       0.42807458       0.71570430       0.50245334 </v>
    <v>       0.42928076       0.85708115       0.50010015 </v>
    <v>       0.57119838       0.99993761       0.49973862 </v>
    <v>       0.57121826       0.14265182       0.49950328 </v>
    <v>       0.57460812       0.28857744       0.50071851 </v>
    <v>       0.57461103       0.85742288       0.50117551 </v>
    <v>       0.71405183       0.00034085       0.50026124 </v>
    <v>       0.71396522       0.14268391       0.49949159 </v>
    <v>       0.71406956       0.28513765       0.50012363 </v>
    <v>       0.70968735       0.42432847       0.50257533 </v>
    <v>       0.71462889       0.57127995       0.51065169 </v>
    <v>       0.71462791       0.71473496       0.51064709 </v>
    <v>       0.70970940       0.85678997       0.50265832 </v>
    <v>       0.85606160       0.99933469       0.50011894 </v>
    <v>       0.85649340       0.14256912       0.49973111 </v>
    <v>       0.85651468       0.28535054       0.49982008 </v>
    <v>       0.85608920       0.42813558       0.50036956 </v>
    <v>       0.85517178       0.57027213       0.50110234 </v>
    <v>       0.85624391       0.71380691       0.50217071 </v>
    <v>       0.85514517       0.85625859       0.50089487 </v>
    <v>       0.04683126       0.09460168       0.49948045 </v>
    <v>       0.04611834       0.23706506       0.50045480 </v>
    <v>       0.04611667       0.38042006       0.50077853 </v>
    <v>       0.04683381       0.52358505       0.50010692 </v>
    <v>       0.04697791       0.66641107       0.49910376 </v>
    <v>       0.04682738       0.80910241       0.49881601 </v>
    <v>       0.04695276       0.95193183       0.49876376 </v>
    <v>       0.19030363       0.09504875       0.49976039 </v>
    <v>       0.18954947       0.23765581       0.50146154 </v>
    <v>       0.18771573       0.37954367       0.50253784 </v>
    <v>       0.18954671       0.52322142       0.50205368 </v>
    <v>       0.19031104       0.66660119       0.50030437 </v>
    <v>       0.19039789       0.80946046       0.49904886 </v>
    <v>       0.19040382       0.95232380       0.49884192 </v>
    <v>       0.33382163       0.09574665       0.49957996 </v>
    <v>       0.33463667       0.23856817       0.50162795 </v>
    <v>       0.32933902       0.37949870       0.50451639 </v>
    <v>       0.32933583       0.52112813       0.50469938 </v>
    <v>       0.33463804       0.66737835       0.50228700 </v>
    <v>       0.33381111       0.80939554       0.49999271 </v>
    <v>       0.33316078       0.95226073       0.49899190 </v>
    <v>       0.47621571       0.09517328       0.49932941 </v>
    <v>       0.47692033       0.23923019       0.50053584 </v>
    <v>       0.47691428       0.80900531       0.50111968 </v>
    <v>       0.47621018       0.95238529       0.49952947 </v>
    <v>       0.61864066       0.09501146       0.49946825 </v>
    <v>       0.61934449       0.23808525       0.50008689 </v>
    <v>       0.61934231       0.95266201       0.50043728 </v>
    <v>       0.76165194       0.09548322       0.49964464 </v>
    <v>       0.76164718       0.23757272       0.49963909 </v>
    <v>       0.76071591       0.37993823       0.50099545 </v>
    <v>       0.75874695       0.52262757       0.50454021 </v>
    <v>       0.76046902       0.66592392       0.50802788 </v>
    <v>       0.75873783       0.80750962       0.50445322 </v>
    <v>       0.76070416       0.95221135       0.50098402 </v>
    <v>       0.90367515       0.09433040       0.49975921 </v>
    <v>       0.90398536       0.23768781       0.49984549 </v>
    <v>       0.90369733       0.38074696       0.50001156 </v>
    <v>       0.90353863       0.52347975       0.49993320 </v>
    <v>       0.90331468       0.66573868       0.50055355 </v>
    <v>       0.90328698       0.80893382       0.50042061 </v>
    <v>       0.90350664       0.95142067       0.49958356 </v>
    <v>       0.46654710       0.35630365       0.50288208 </v>
    <v>       0.40187573       0.41912991       0.50480249 </v>
    <v>       0.40187197       0.55406945       0.50492735 </v>
    <v>       0.64224198       0.67899601       0.51876770 </v>
    <v>       0.64223639       0.53464659       0.51872362 </v>
    <v>       0.46655315       0.68156855       0.50382634 </v>
    <v>       0.55613066       0.60851157       0.42076487 </v>
    <v>       0.55700419       0.51985265       0.42055567 </v>
    <v>       0.61961605       0.37911081       0.50173185 </v>
    <v>       0.61963820       0.81192219       0.50205925 </v>
    <v>       0.51788997       0.54453930       0.43022414 </v>
   </varray>
  </structure>
  <varray name="forces" >
   <v>      -0.00093321      -0.00042653      -0.00105884 </v>
   <v>      -0.00031196      -0.00004544       0.00010543 </v>
   <v>      -0.00016886      -0.00065955       0.00001400 </v>
   <v>      -0.00094215       0.00002890       0.00087227 </v>
   <v>      -0.00130346       0.00006984       0.00013526 </v>
   <v>      -0.00061864       0.00271288      -0.00069284 </v>
   <v>      -0.00092951      -0.00059547      -0.00139132 </v>
   <v>      -0.00060662      -0.00038660      -0.00307137 </v>
   <v>      -0.00053855      -0.00025042      -0.00055126 </v>
   <v>      -0.00017844      -0.00030431       0.00309423 </v>
   <v>       0.00021282      -0.00071706       0.00300081 </v>
   <v>      -0.00019213       0.00052606       0.00077300 </v>
   <v>      -0.00125104       0.00345269      -0.00155758 </v>
   <v>      -0.00070353       0.00016041      -0.00302551 </v>
   <v>      -0.00056238       0.00019134      -0.00193430 </v>
   <v>      -0.00032147      -0.00029481      -0.00037401 </v>
   <v>       0.00017337      -0.00022276       0.00316486 </v>
   <v>      -0.00006304      -0.00227773       0.00457708 </v>
   <v>       0.00108188       0.00031135       0.00393211 </v>
   <v>       0.00178512       0.00272667       0.00145230 </v>
   <v>      -0.00048518       0.00037343      -0.00138050 </v>
   <v>      -0.00127916       0.00011219      -0.00033625 </v>
   <v>      -0.00034788      -0.00059226       0.00006729 </v>
   <v>      -0.00069241      -0.00019257       0.00350116 </v>
   <v>      -0.00011895       0.00033493       0.00373361 </v>
   <v>      -0.00092776       0.00100813       0.00133704 </v>
   <v>      -0.00106044       0.00087453       0.00088314 </v>
   <v>      -0.00029511      -0.00024995      -0.00079572 </v>
   <v>      -0.00020439       0.00007241       0.00296082 </v>
   <v>      -0.00057871       0.00041316       0.00438716 </v>
   <v>      -0.00044867       0.00075159       0.00199669 </v>
   <v>      -0.00126150       0.00082595      -0.00116566 </v>
   <v>      -0.00011505      -0.00028456       0.00046338 </v>
   <v>      -0.00075186      -0.00057657       0.00729668 </v>
   <v>      -0.00151069      -0.00083434       0.01361170 </v>
   <v>      -0.00059666      -0.00267657       0.01130866 </v>
   <v>      -0.00117839      -0.00070839       0.00489542 </v>
   <v>       0.00160438       0.00120580       0.00138555 </v>
   <v>      -0.00027490       0.00018999      -0.00023247 </v>
   <v>      -0.00276970      -0.00051116      -0.00022286 </v>
   <v>      -0.00009055      -0.00038847       0.00222488 </v>
   <v>      -0.00074493      -0.00014419       0.00602663 </v>
   <v>      -0.00053692      -0.00077637       0.00738123 </v>
   <v>      -0.00089692      -0.00092230       0.00298257 </v>
   <v>       0.00071787      -0.00099038       0.00001317 </v>
   <v>       0.00017026       0.00061642       0.00118719 </v>
   <v>       0.00021062       0.00310934       0.00187837 </v>
   <v>       0.00046787       0.00019114      -0.00000922 </v>
   <v>      -0.00005231      -0.00125677      -0.00081926 </v>
   <v>      -0.00076481      -0.00104983      -0.00234596 </v>
   <v>      -0.00089221      -0.00068765      -0.00280047 </v>
   <v>      -0.00034618      -0.00036446      -0.00185262 </v>
   <v>      -0.00029771      -0.00006689       0.00206233 </v>
   <v>      -0.00026438       0.00075094       0.00451783 </v>
   <v>       0.00012647       0.00039566       0.00284060 </v>
   <v>       0.00158866      -0.00275896       0.00028075 </v>
   <v>      -0.00023607      -0.00107964      -0.00207396 </v>
   <v>      -0.00070149      -0.00013313      -0.00107516 </v>
   <v>      -0.00037244      -0.00021362      -0.00090393 </v>
   <v>       0.00002986      -0.00005843       0.00207741 </v>
   <v>       0.00015069       0.00032823       0.00471624 </v>
   <v>       0.00060913       0.00056140       0.00472908 </v>
   <v>       0.00006206      -0.00023661       0.00316775 </v>
   <v>      -0.00035016      -0.00075980       0.00043165 </v>
   <v>      -0.00018544       0.00042468      -0.00175144 </v>
   <v>      -0.00029423      -0.00002301      -0.00073381 </v>
   <v>      -0.00005550       0.00011319       0.00222507 </v>
   <v>      -0.00019677      -0.00096609       0.00223607 </v>
   <v>      -0.00034027       0.00035906      -0.00031574 </v>
   <v>       0.00013573       0.00000965      -0.00039141 </v>
   <v>      -0.00040172       0.00014784       0.00025933 </v>
   <v>      -0.00019763      -0.00030126       0.00259282 </v>
   <v>       0.00011618      -0.00036274       0.00028163 </v>
   <v>       0.00055370       0.00031196      -0.00075686 </v>
   <v>      -0.00009012       0.00013332       0.00336028 </v>
   <v>      -0.00068532      -0.00040438       0.00957320 </v>
   <v>      -0.00057427      -0.00142895       0.01200322 </v>
   <v>      -0.00158216      -0.00181130       0.00621809 </v>
   <v>      -0.00073972      -0.00118782       0.00278998 </v>
   <v>      -0.00039528      -0.00049407       0.00009607 </v>
   <v>       0.00039121       0.00049964      -0.00064045 </v>
   <v>       0.00104972       0.00060266       0.00014036 </v>
   <v>       0.00146772      -0.00039615       0.00296220 </v>
   <v>      -0.00064445      -0.00111949       0.00398683 </v>
   <v>      -0.00124896      -0.00137811       0.00330290 </v>
   <v>      -0.00115675      -0.00154410       0.00114061 </v>
   <v>       0.00011495       0.00000592       0.00480476 </v>
   <v>       0.00072419      -0.00032370       0.00392355 </v>
   <v>       0.00086361       0.00051603       0.00358699 </v>
   <v>      -0.00069886      -0.00338494       0.00965064 </v>
   <v>      -0.00279002      -0.00015392       0.01021251 </v>
   <v>       0.00058412       0.00085242       0.00459518 </v>
   <v>       0.00858265       0.00381530      -0.07559273 </v>
   <v>       0.00905085       0.00457726      -0.07551310 </v>
   <v>       0.00025116      -0.00071524       0.00620560 </v>
   <v>      -0.00076611       0.00070180       0.00569174 </v>
   <v>       0.01123622       0.00532374      -0.04194034 </v>
  </varray>
  <varray name="stress" >
   <v>      -2.44366448      -0.91399024      -0.01593656 </v>
   <v>      -0.91399019      -1.38205428       0.00227435 </v>
   <v>      -0.01593629       0.00227451      -0.19196594 </v>
  </varray>
  <energy>
   <i name="e_fr_energy">   -850.36892105 </i>
   <i name="e_wo_entrp">   -850.36892101 </i>
   <i name="e_0_energy">   -850.36892103 </i>
  </energy>
  <time name="totalsc">  283.29  285.43</time>
 </calculation>
 <calculation>
  <scstep>
   <time name="dav">   72.20   72.65</time>
   <time name="total">   83.04   83.55</time>
   <energy>
    <i name="alphaZ">    175.87611319 </i>
    <i name="ewald">  36488.68926451 </i>
    <i name="hartreedc"> -48197.25978323 </i>
    <i name="XCdc">   1273.88413127 </i>
    <i name="pawpsdc">  37277.36308258 </i>
    <i name="pawaedc"> -37341.18260713 </i>
    <i name="eentropy">     -0.00000004 </i>
    <i name="bandstr">  -4236.12547771 </i>
    <i name="atom">  13716.13071916 </i>
    <i name="e_fr_energy">   -842.62455741 </i>
    <i name="e_wo_entrp">   -842.62455737 </i>
    <i name="e_0_energy">   -842.62455739 </i>
   </energy>
  </scstep>
  <scstep>
   <time name="dav">   56.96   57.31</time>
   <time name="total">   61.81   62.22</time>
   <energy>
    <i name="alphaZ">    175.87611319 </i>
    <i name="ewald">  36488.68926451 </i>
    <i name="hartreedc"> -48197.25621542 </i>
    <i name="XCdc">   1273.88414291 </i>
    <i name="pawpsdc">  37277.29831523 </i>
    <i name="pawaedc"> -37341.11783859 </i>
    <i name="eentropy">     -0.00000004 </i>
    <i name="bandstr">  -4236.12905870 </i>
    <i name="atom">  13716.13071916 </i>
    <i name="e_fr_energy">   -842.62455775 </i>
    <i name="e_wo_entrp">   -842.62455771 </i>
    <i name="e_0_energy">   -842.62455773 </i>
   </energy>
  </scstep>
  <structure>
   <crystal>
    <varray name="basis" >
     <v>      17.27103806       0.00000000       0.00000000 </v>
     <v>      -8.63551903      14.95715771       0.00000000 </v>
     <v>       0.00000000       0.00000000      15.00000000 </v>
    </varray>
    <i name="volume">   3874.88459904 </i>
    <varray name="rec_basis" >
     <v>       0.05790040       0.03342881       0.00000000 </v>
     <v>       0.00000000       0.06685762       0.00000000 </v>
     <v>       0.00000000       0.00000000       0.06666667 </v>
    </varray>
   </crystal>
   <varray name="positions" >
[...]
       <r>   -13.9784     3.8905    58.1684 </r>
       <r>   -13.8749     5.5072    58.7381 </r>
       <r>   -13.7715     3.2224    59.0714 </r>
       <r>   -13.6680     7.7357    59.8716 </r>
       <r>   -13.5646     6.4961    60.5436 </r>
       <r>   -13.4611     9.6415    61.5409 </r>
       <r>   -13.3577     9.7762    62.5522 </r>
       <r>   -13.2543     8.9556    63.4786 </r>
       <r>   -13.1508     3.7884    63.8705 </r>
       <r>   -13.0474     5.7726    64.4676 </r>
       <r>   -12.9439     0.3996    64.5090 </r>
       <r>   -12.8405     7.5782    65.2929 </r>
       <r>   -12.7370     5.1713    65.8278 </r>
       <r>   -12.6336     9.3817    66.7983 </r>
       <r>   -12.5301    12.7810    68.1204 </r>
       <r>   -12.4267    14.5844    69.6290 </r>
       <r>   -12.3233    10.8872    70.7552 </r>
       <r>   -12.2198     7.2944    71.5098 </r>
       <r>   -12.1164     2.3190    71.7497 </r>
       <r>   -12.0129     1.6927    71.9248 </r>
       <r>   -11.9095    12.3317    73.2004 </r>
       <r>   -11.8060     7.0884    73.9337 </r>
       <r>   -11.7026    11.1905    75.0912 </r>
       <r>   -11.5992    10.3753    76.1645 </r>
       <r>   -11.4957    13.9812    77.6107 </r>
       <r>   -11.3923     8.9027    78.5317 </r>
       <r>   -11.2888    14.3983    80.0211 </r>
       <r>   -11.1854     8.3767    80.8876 </r>
       <r>   -11.0819     9.7935    81.9007 </r>
       <r>   -10.9785     9.4086    82.8739 </r>
       <r>   -10.8751    11.0551    84.0175 </r>
       <r>   -10.7716    14.2239    85.4888 </r>
       <r>   -10.6682     6.1859    86.1287 </r>
       <r>   -10.5647     2.6663    86.4045 </r>
       <r>   -10.4613     5.8901    87.0138 </r>
       <r>   -10.3578     3.5973    87.3860 </r>
       <r>   -10.2544     8.7558    88.2917 </r>
       <r>   -10.1510    17.3418    90.0856 </r>
       <r>   -10.0475    18.3699    91.9858 </r>
       <r>    -9.9441    14.6284    93.4990 </r>
       <r>    -9.8406    17.3277    95.2914 </r>
       <r>    -9.7372    19.2851    97.2864 </r>
       <r>    -9.6337    13.7927    98.7131 </r>
       <r>    -9.5303    13.6710   100.1273 </r>
       <r>    -9.4269    19.3610   102.1300 </r>
       <r>    -9.3234    18.5604   104.0500 </r>
       <r>    -9.2200    15.5039   105.6538 </r>
       <r>    -9.1165    15.8409   107.2924 </r>
       <r>    -9.0131    21.8218   109.5497 </r>
       <r>    -8.9096    27.4055   112.3846 </r>
       <r>    -8.8062    24.8647   114.9567 </r>
       <r>    -8.7028    23.3540   117.3725 </r>
       <r>    -8.5993    17.0271   119.1338 </r>
       <r>    -8.4959    22.8145   121.4938 </r>
       <r>    -8.3924    12.5435   122.7914 </r>
       <r>    -8.2890    20.5265   124.9147 </r>
       <r>    -8.1855    23.8378   127.3806 </r>
       <r>    -8.0821    23.8308   129.8457 </r>
       <r>    -7.9787    13.1041   131.2012 </r>
       <r>    -7.8752    18.4795   133.1128 </r>
       <r>    -7.7718    16.3720   134.8064 </r>
       <r>    -7.6683    18.5799   136.7283 </r>
       <r>    -7.5649     8.4529   137.6027 </r>
       <r>    -7.4614    10.3101   138.6693 </r>
       <r>    -7.3580    13.7187   140.0884 </r>
       <r>    -7.2545    23.2722   142.4957 </r>
       <r>    -7.1511    22.1235   144.7842 </r>
       <r>    -7.0477    15.4255   146.3799 </r>
       <r>    -6.9442    13.9400   147.8219 </r>
       <r>    -6.8408    12.6037   149.1257 </r>
       <r>    -6.7373    11.2570   150.2901 </r>
       <r>    -6.6339     9.7589   151.2996 </r>
       <r>    -6.5304     9.7590   152.3091 </r>
       <r>    -6.4270    10.1695   153.3611 </r>
       <r>    -6.3236    11.5879   154.5598 </r>
       <r>    -6.2201    20.6134   156.6921 </r>
       <r>    -6.1167    17.9463   158.5485 </r>
       <r>    -6.0132    13.3560   159.9301 </r>
       <r>    -5.9098     9.6475   160.9281 </r>
       <r>    -5.8063    15.6685   162.5489 </r>
       <r>    -5.7029    18.7294   164.4863 </r>
       <r>    -5.5995    12.3436   165.7631 </r>
       <r>    -5.4960     6.1885   166.4033 </r>
       <r>    -5.3926     4.0562   166.8229 </r>
       <r>    -5.2891     1.7961   167.0087 </r>
       <r>    -5.1857     4.3806   167.4618 </r>
       <r>    -5.0822    15.7526   169.0913 </r>
       <r>    -4.9788    19.0536   171.0623 </r>
       <r>    -4.8754    18.3949   172.9651 </r>
       <r>    -4.7719    13.4863   174.3602 </r>
       <r>    -4.6685     8.5006   175.2395 </r>
       <r>    -4.5650    12.5122   176.5338 </r>
       <r>    -4.4616     6.8092   177.2382 </r>
       <r>    -4.3581     1.9108   177.4358 </r>
       <r>    -4.2547    10.7511   178.5480 </r>
       <r>    -4.1513     6.9724   179.2692 </r>
       <r>    -4.0478     7.0490   179.9984 </r>
       <r>    -3.9444    10.2197   181.0555 </r>
       <r>    -3.8409     7.3592   181.8168 </r>
       <r>    -3.7375     1.7692   181.9998 </r>
       <r>    -3.6340     0.0022   182.0000 </r>
       <r>    -3.5306     0.5268   182.0545 </r>
       <r>    -3.4272     1.9065   182.2517 </r>
       <r>    -3.3237     3.8212   182.6470 </r>
       <r>    -3.2203     4.7477   183.1381 </r>
       <r>    -3.1168     3.3334   183.4830 </r>
       <r>    -3.0134     0.1648   183.5000 </r>
       <r>    -2.9099     0.0000   183.5000 </r>
       <r>    -2.8065     0.0007   183.5001 </r>
       <r>    -2.7031     1.1470   183.6187 </r>
       <r>    -2.5996     3.6206   183.9932 </r>
       <r>    -2.4962     0.0653   184.0000 </r>
       <r>    -2.3927     0.0504   184.0052 </r>
       <r>    -2.2893     3.4816   184.3654 </r>
       <r>    -2.1858     1.3006   184.4999 </r>
       <r>    -2.0824     0.0010   184.5000 </r>
       <r>    -1.9790     0.1744   184.5180 </r>
       <r>    -1.8755     2.5695   184.7838 </r>
       <r>    -1.7721     3.4478   185.1405 </r>
       <r>    -1.6686     5.3027   185.6890 </r>
       <r>    -1.5652     2.1039   185.9067 </r>
       <r>    -1.4617     0.9287   186.0027 </r>
       <r>    -1.3583     3.7966   186.3954 </r>
       <r>    -1.2548     9.2347   187.3507 </r>
       <r>    -1.1514     1.4430   187.5000 </r>
       <r>    -1.0480     0.9877   187.6021 </r>
       <r>    -0.9445     7.5935   188.3876 </r>
       <r>    -0.8411    18.0552   190.2553 </r>
       <r>    -0.7376     6.9958   190.9790 </r>
       <r>    -0.6342     9.1593   191.9265 </r>
       <r>    -0.5307    10.1312   192.9745 </r>
       <r>    -0.4273     6.8965   193.6879 </r>
       <r>    -0.3239     5.1186   194.2174 </r>
       <r>    -0.2204     4.6916   194.7027 </r>
       <r>    -0.1170    11.7123   195.9142 </r>
       <r>    -0.0135     8.9831   196.8435 </r>
       <r>     0.0899    10.0979   197.8880 </r>
       <r>     0.1934    12.2698   199.1572 </r>
       <r>     0.2968     4.8555   199.6595 </r>
       <r>     0.4002     3.2052   199.9911 </r>
       <r>     0.5037     3.1703   200.3190 </r>
       <r>     0.6071     5.5320   200.8913 </r>
       <r>     0.7106     6.3503   201.5482 </r>
       <r>     0.8140    11.4616   202.7338 </r>
       <r>     0.9175     8.4627   203.6092 </r>
       <r>     1.0209     9.8979   204.6331 </r>
       <r>     1.1243     7.0166   205.3589 </r>
       <r>     1.2278    10.6149   206.4569 </r>
       <r>     1.3312     5.7813   207.0550 </r>
       <r>     1.4347    16.5625   208.7682 </r>
       <r>     1.5381    17.0388   210.5308 </r>
       <r>     1.6416    13.5144   211.9288 </r>
       <r>     1.7450    10.6941   213.0350 </r>
       <r>     1.8484     8.7771   213.9429 </r>
       <r>     1.9519    15.4660   215.5428 </r>
       <r>     2.0553    19.9391   217.6053 </r>
       <r>     2.1588    12.2353   218.8710 </r>
       <r>     2.2622    22.6924   221.2184 </r>
       <r>     2.3657    18.7107   223.1539 </r>
       <r>     2.4691    25.8700   225.8299 </r>
       <r>     2.5725     4.1030   226.2544 </r>
       <r>     2.6760     8.8967   227.1747 </r>
       <r>     2.7794    21.2003   229.3677 </r>
       <r>     2.8829    35.1565   233.0044 </r>
       <r>     2.9863    41.4400   237.2911 </r>
       <r>     3.0898    16.6383   239.0122 </r>
       <r>     3.1932    19.1886   240.9971 </r>
       <r>     3.2966    19.8572   243.0512 </r>
       <r>     3.4001    12.5917   244.3537 </r>
       <r>     3.5035    25.1388   246.9542 </r>
       <r>     3.6070    21.3358   249.1612 </r>
       <r>     3.7104    12.2219   250.4255 </r>
       <r>     3.8139    28.0603   253.3281 </r>
       <r>     3.9173    21.9082   255.5944 </r>
       <r>     4.0208    24.5264   258.1315 </r>
       <r>     4.1242    17.8199   259.9748 </r>
       <r>     4.2276    15.5556   261.5839 </r>
       <r>     4.3311    24.6020   264.1288 </r>
       <r>     4.4345     8.2591   264.9832 </r>
       <r>     4.5380     0.1625   265.0000 </r>
       <r>     4.6414     0.0000   265.0000 </r>
       <r>     4.7449     0.0000   265.0000 </r>
       <r>     4.8483     0.0000   265.0000 </r>
       <r>     4.9517     0.0000   265.0000 </r>
       <r>     5.0552     0.0000   265.0000 </r>
       <r>     5.1586     0.0000   265.0000 </r>
       <r>     5.2621     0.0000   265.0000 </r>
       <r>     5.3655     0.0000   265.0000 </r>
       <r>     5.4690     0.0000   265.0000 </r>
       <r>     5.5724     0.0000   265.0000 </r>
       <r>     5.6758     0.0000   265.0000 </r>
       <r>     5.7793     0.0000   265.0000 </r>
      </set>
     </set>
    </array>
   </total>
  </dos>
 </calculation>
 <structure name="finalpos" >
  <crystal>
   <varray name="basis" >
    <v>      17.27103806       0.00000000       0.00000000 </v>
    <v>      -8.63551903      14.95715771       0.00000000 </v>
    <v>       0.00000000       0.00000000      15.00000000 </v>
   </varray>
   <i name="volume">   3874.88459904 </i>
   <varray name="rec_basis" >
    <v>       0.05790040       0.03342881       0.00000000 </v>
    <v>       0.00000000       0.06685762       0.00000000 </v>
    <v>       0.00000000       0.00000000       0.06666667 </v>
   </varray>
  </crystal>
  <varray name="positions" >
   <v>       0.99894242       0.99922837       0.49894673 </v>
   <v>       0.99894502       0.14204726       0.49978091 </v>
   <v>       0.99902986       0.28519928       0.50033951 </v>
   <v>       0.99894269       0.42826043       0.50023993 </v>
   <v>       0.99897994       0.57109699       0.49944816 </v>
   <v>       0.99917511       0.71375968       0.49908692 </v>
   <v>       0.99914639       0.85679300       0.49896205 </v>
   <v>       0.14257544       0.00000450       0.49894698 </v>
   <v>       0.14219820       0.14252309       0.50012178 </v>
   <v>       0.14132930       0.28467835       0.50149541 </v>
   <v>       0.14132451       0.42799694       0.50183846 </v>
   <v>       0.14220280       0.57101812       0.50081018 </v>
   <v>       0.14260476       0.71395380       0.49934234 </v>
   <v>       0.14255061       0.85696133       0.49872439 </v>
   <v>       0.28573166       0.00000822       0.49900505 </v>
   <v>       0.28597838       0.14307002       0.50028537 </v>
   <v>       0.28552611       0.28680779       0.50272339 </v>
   <v>       0.28290334       0.42710077       0.50427668 </v>
   <v>       0.28550953       0.57001244       0.50324881 </v>
   <v>       0.28597537       0.71422736       0.50085976 </v>
   <v>       0.28573965       0.85707981       0.49923098 </v>
   <v>       0.42863140       0.99998203       0.49914341 </v>
   <v>       0.42927948       0.14351524       0.49972775 </v>
   <v>       0.42806986       0.28368279       0.50170291 </v>
   <v>       0.42807547       0.71570508       0.50246653 </v>
   <v>       0.42928157       0.85708460       0.50010892 </v>
   <v>       0.57119808       0.99994062       0.49974617 </v>
   <v>       0.57121817       0.14265330       0.49950174 </v>
   <v>       0.57460804       0.28857906       0.50073520 </v>
   <v>       0.57461020       0.85742387       0.50119964 </v>
   <v>       0.71405167       0.00034195       0.50027245 </v>
   <v>       0.71396509       0.14268595       0.49948920 </v>
   <v>       0.71406899       0.28513823       0.50012469 </v>
   <v>       0.70968841       0.42432880       0.50261256 </v>
   <v>       0.71463262       0.57127934       0.51072817 </v>
   <v>       0.71462865       0.71473160       0.51070997 </v>
   <v>       0.70970707       0.85678761       0.50268356 </v>
   <v>       0.85606518       0.99933828       0.50012257 </v>
   <v>       0.85649308       0.14256986       0.49972848 </v>
   <v>       0.85651020       0.28535044       0.49981480 </v>
   <v>       0.85608952       0.42813474       0.50037510 </v>
   <v>       0.85517369       0.57027228       0.50112659 </v>
   <v>       0.85624465       0.71380457       0.50220282 </v>
   <v>       0.85514225       0.85625501       0.50090369 </v>
   <v>       0.04683020       0.09459880       0.49947302 </v>
   <v>       0.04611800       0.23706615       0.50045463 </v>
   <v>       0.04611924       0.38042545       0.50077855 </v>
   <v>       0.04683633       0.52358644       0.50009765 </v>
   <v>       0.04697838       0.66640966       0.49909320 </v>
   <v>       0.04682622       0.80910093       0.49879843 </v>
   <v>       0.04694999       0.95192976       0.49874333 </v>
   <v>       0.19030204       0.09504765       0.49974647 </v>
   <v>       0.18954623       0.23765401       0.50146614 </v>
   <v>       0.18771407       0.37954435       0.50255428 </v>
   <v>       0.18954649       0.52322209       0.50205950 </v>
   <v>       0.19031192       0.66659947       0.50030148 </v>
   <v>       0.19039643       0.80945647       0.49904047 </v>
   <v>       0.19040320       0.95232426       0.49883521 </v>
   <v>       0.33382123       0.09574724       0.49957568 </v>
   <v>       0.33463463       0.23856747       0.50163582 </v>
   <v>       0.32933406       0.37949570       0.50454858 </v>
   <v>       0.32933299       0.52112648       0.50473194 </v>
   <v>       0.33463791       0.66737727       0.50230018 </v>
   <v>       0.33381123       0.80939499       0.49999592 </v>
   <v>       0.33315979       0.95225944       0.49898606 </v>
   <v>       0.47621598       0.09517485       0.49932949 </v>
   <v>       0.47692011       0.23923205       0.50054775 </v>
   <v>       0.47691320       0.80900367       0.50113310 </v>
   <v>       0.47621066       0.95238639       0.49953385 </v>
   <v>       0.61864182       0.09501276       0.49946844 </v>
   <v>       0.61934421       0.23808670       0.50008893 </v>
   <v>       0.61934180       0.95266204       0.50045280 </v>
   <v>       0.76165211       0.09548292       0.49964654 </v>
   <v>       0.76164931       0.23757423       0.49963389 </v>
   <v>       0.76071786       0.37993906       0.50100954 </v>
   <v>       0.75874964       0.52262804       0.50458803 </v>
   <v>       0.76047038       0.66592029       0.50809227 </v>
   <v>       0.75873414       0.80750550       0.50448364 </v>
   <v>       0.76070292       0.95220987       0.50099596 </v>
   <v>       0.90367387       0.09432944       0.49975685 </v>
   <v>       0.90398681       0.23768947       0.49983895 </v>
   <v>       0.90370175       0.38074999       0.50000979 </v>
   <v>       0.90354079       0.52347903       0.49993904 </v>
   <v>       0.90331427       0.66573628       0.50056582 </v>
   <v>       0.90328365       0.80892995       0.50043045 </v>
   <v>       0.90350229       0.95141613       0.49958388 </v>
   <v>       0.46654477       0.35630407       0.50289657 </v>
   <v>       0.40187040       0.41912440       0.50484431 </v>
   <v>       0.40186947       0.55406831       0.50496910 </v>
   <v>       0.64224625       0.67899784       0.51884304 </v>
   <v>       0.64224050       0.53464083       0.51880223 </v>
   <v>       0.46655565       0.68157059       0.50383661 </v>
   <v>       0.55614125       0.60851817       0.42079035 </v>
   <v>       0.55701948       0.51985973       0.42058396 </v>
   <v>       0.61961734       0.37911188       0.50176690 </v>
   <v>       0.61963732       0.81192305       0.50209109 </v>
   <v>       0.51789855       0.54454288       0.43022414 </v>
  </varray>
  <varray name="selective"  type="logical" >
   <v type="logical" >  T  T  T </v>
   <v type="logical" >  T  T  T </v>
   <v type="logical" >  T  T  T </v>
   <v type="logical" >  T  T  T </v>
   <v type="logical" >  T  T  T </v>
   <v type="logical" >  T  T  T </v>
   <v type="logical" >  T  T  T </v>
   <v type="logical" >  T  T  T </v>
   <v type="logical" >  T  T  T </v>
   <v type="logical" >  T  T  T </v>
   <v type="logical" >  T  T  T </v>
   <v type="logical" >  T  T  T </v>
   <v type="logical" >  T  T  T </v>
   <v type="logical" >  T  T  T </v>
   <v type="logical" >  T  T  T </v>
   <v type="logical" >  T  T  T </v>
   <v type="logical" >  T  T  T </v>
   <v type="logical" >  T  T  T </v>
   <v type="logical" >  T  T  T </v>
   <v type="logical" >  T  T  T </v>
   <v type="logical" >  T  T  T </v>
   <v type="logical" >  T  T  T </v>
   <v type="logical" >  T  T  T </v>
   <v type="logical" >  T  T  T </v>
   <v type="logical" >  T  T  T </v>
   <v type="logical" >  T  T  T </v>
   <v type="logical" >  T  T  T </v>
   <v type="logical" >  T  T  T </v>
   <v type="logical" >  T  T  T </v>
   <v type="logical" >  T  T  T </v>
   <v type="logical" >  T  T  T </v>
   <v type="logical" >  T  T  T </v>
   <v type="logical" >  T  T  T </v>
   <v type="logical" >  T  T  T </v>
   <v type="logical" >  T  T  T </v>
   <v type="logical" >  T  T  T </v>
   <v type="logical" >  T  T  T </v>
   <v type="logical" >  T  T  T </v>
   <v type="logical" >  T  T  T </v>
   <v type="logical" >  T  T  T </v>
   <v type="logical" >  T  T  T </v>
   <v type="logical" >  T  T  T </v>
   <v type="logical" >  T  T  T </v>
   <v type="logical" >  T  T  T </v>
   <v type="logical" >  T  T  T </v>
   <v type="logical" >  T  T  T </v>
   <v type="logical" >  T  T  T </v>
   <v type="logical" >  T  T  T </v>
   <v type="logical" >  T  T  T </v>
   <v type="logical" >  T  T  T </v>
   <v type="logical" >  T  T  T </v>
   <v type="logical" >  T  T  T </v>
   <v type="logical" >  T  T  T </v>
   <v type="logical" >  T  T  T </v>
   <v type="logical" >  T  T  T </v>
   <v type="logical" >  T  T  T </v>
   <v type="logical" >  T  T  T </v>
   <v type="logical" >  T  T  T </v>
   <v type="logical" >  T  T  T </v>
   <v type="logical" >  T  T  T </v>
   <v type="logical" >  T  T  T </v>
   <v type="logical" >  T  T  T </v>
   <v type="logical" >  T  T  T </v>
   <v type="logical" >  T  T  T </v>
   <v type="logical" >  T  T  T </v>
   <v type="logical" >  T  T  T </v>
   <v type="logical" >  T  T  T </v>
   <v type="logical" >  T  T  T </v>
   <v type="logical" >  T  T  T </v>
   <v type="logical" >  T  T  T </v>
   <v type="logical" >  T  T  T </v>
   <v type="logical" >  T  T  T </v>
   <v type="logical" >  T  T  T </v>
   <v type="logical" >  T  T  T </v>
   <v type="logical" >  T  T  T </v>
   <v type="logical" >  T  T  T </v>
   <v type="logical" >  T  T  T </v>
   <v type="logical" >  T  T  T </v>
   <v type="logical" >  T  T  T </v>
   <v type="logical" >  T  T  T </v>
   <v type="logical" >  T  T  T </v>
   <v type="logical" >  T  T  T </v>
   <v type="logical" >  T  T  T </v>
   <v type="logical" >  T  T  T </v>
   <v type="logical" >  T  T  T </v>
   <v type="logical" >  T  T  T </v>
   <v type="logical" >  T  T  T </v>
   <v type="logical" >  T  T  T </v>
   <v type="logical" >  T  T  T </v>
   <v type="logical" >  T  T  T </v>
   <v type="logical" >  T  T  T </v>
   <v type="logical" >  T  T  T </v>
   <v type="logical" >  T  T  T </v>
   <v type="logical" >  T  T  T </v>
   <v type="logical" >  T  T  T </v>
   <v type="logical" >  T  T  T </v>
   <v type="logical" >  T  T  F </v>
  </varray>
  <nose>
   <v>      -3.00000000       0.00000000       0.00010000       0.00010000 </v>
  </nose>
 </structure>
</modeling>
