unknown system                          
           1
    17.271038    0.000000    0.000000
    -8.635519   14.957158    0.000000
     0.000000    0.000000   15.000000
   C    H    N    O 
    86     8     2     1
Direct configuration=     1
   0.99894535  0.99923062  0.49895795
   0.99894599  0.14204796  0.49978531
   0.99903198  0.28520126  0.50034511
   0.99894370  0.42825934  0.50024541
   0.99898097  0.57109576  0.49945548
   0.99917210  0.71375431  0.49909614
   0.99914833  0.85679453  0.49897594
   0.14257731  0.00000554  0.49896628
   0.14220077  0.14252511  0.50013074
   0.14133201  0.28468044  0.50148589
   0.14132649  0.42799862  0.50183119
   0.14220169  0.57101589  0.50081504
   0.14260238  0.71394717  0.49935302
   0.14255055  0.85696005  0.49874167
   0.28573159  0.00000654  0.49901344
   0.28597984  0.14307093  0.50028964
   0.28552964  0.28681074  0.50270871
   0.28290880  0.42710703  0.50424855
   0.28550811  0.57001234  0.50323104
   0.28597251  0.71422429  0.50085401
   0.28573868  0.85707734  0.49923625
   0.42863108  0.99997908  0.49914373
   0.42927981  0.14351453  0.49972534
   0.42807221  0.28368264  0.50168907
   0.42807458  0.71570430  0.50245334
   0.42928076  0.85708115  0.50010015
   0.57119838  0.99993761  0.49973862
   0.57121826  0.14265182  0.49950328
   0.57460812  0.28857744  0.50071851
   0.57461103  0.85742288  0.50117551
   0.71405183  0.00034085  0.50026124
   0.71396522  0.14268391  0.49949159
   0.71406956  0.28513765  0.50012363
   0.70968735  0.42432847  0.50257533
   0.71462889  0.57127995  0.51065169
   0.71462791  0.71473496  0.51064709
   0.70970940  0.85678997  0.50265832
   0.85606160  0.99933469  0.50011894
   0.85649340  0.14256912  0.49973111
   0.85651468  0.28535054  0.49982008
   0.85608920  0.42813558  0.50036956
   0.85517178  0.57027213  0.50110234
   0.85624391  0.71380691  0.50217071
   0.85514517  0.85625859  0.50089487
   0.04683126  0.09460168  0.49948045
   0.04611834  0.23706506  0.50045480
   0.04611667  0.38042006  0.50077853
   0.04683381  0.52358505  0.50010692
   0.04697791  0.66641107  0.49910376
   0.04682738  0.80910241  0.49881601
   0.04695276  0.95193183  0.49876376
   0.19030363  0.09504875  0.49976039
   0.18954947  0.23765581  0.50146154
   0.18771573  0.37954367  0.50253784
   0.18954671  0.52322142  0.50205368
   0.19031104  0.66660119  0.50030437
   0.19039789  0.80946046  0.49904886
   0.19040382  0.95232380  0.49884192
   0.33382163  0.09574665  0.49957996
   0.33463667  0.23856817  0.50162795
   0.32933902  0.37949870  0.50451639
   0.32933583  0.52112813  0.50469938
   0.33463804  0.66737835  0.50228700
   0.33381111  0.80939554  0.49999271
   0.33316078  0.95226073  0.49899190
   0.47621571  0.09517328  0.49932941
   0.47692033  0.23923019  0.50053584
   0.47691428  0.80900531  0.50111968
   0.47621018  0.95238529  0.49952947
   0.61864066  0.09501146  0.49946825
   0.61934449  0.23808525  0.50008689
   0.61934231  0.95266201  0.50043728
   0.76165194  0.09548322  0.49964464
   0.76164718  0.23757272  0.49963909
   0.76071591  0.37993823  0.50099545
   0.75874695  0.52262757  0.50454021
   0.76046902  0.66592392  0.50802788
   0.75873783  0.80750962  0.50445322
   0.76070416  0.95221135  0.50098402
   0.90367515  0.09433040  0.49975921
   0.90398536  0.23768781  0.49984549
   0.90369733  0.38074696  0.50001156
   0.90353863  0.52347975  0.49993320
   0.90331468  0.66573868  0.50055355
   0.90328698  0.80893382  0.50042061
   0.90350664  0.95142067  0.49958356
   0.46654710  0.35630365  0.50288208
   0.40187573  0.41912991  0.50480249
   0.40187197  0.55406945  0.50492735
   0.64224198  0.67899601  0.51876770
   0.64223639  0.53464659  0.51872362
   0.46655315  0.68156855  0.50382634
   0.55613066  0.60851157  0.42076487
   0.55700419  0.51985265  0.42055567
   0.61961605  0.37911081  0.50173185
   0.61963820  0.81192219  0.50205925
   0.51788997  0.54453930  0.43022414
Direct configuration=     2
   0.99894427  0.99922984  0.49895557
   0.99894610  0.14204830  0.49978438
   0.99903340  0.28520375  0.50034377
   0.99894668  0.42826072  0.50024393
   0.99898193  0.57109515  0.49945389
   0.99917139  0.71375243  0.49909433
   0.99914743  0.85679374  0.49897288
   0.14257694  0.00000531  0.49896194
   0.14220046  0.14252499  0.50012881
   0.14133163  0.28468094  0.50148805
   0.14132717  0.42800007  0.50183274
   0.14220167  0.57101502  0.50081397
   0.14260215  0.71394458  0.49935093
   0.14255032  0.85695947  0.49873773
   0.28573157  0.00000651  0.49901149
   0.28597943  0.14307089  0.50028874
   0.28552867  0.28681026  0.50271193
   0.28290788  0.42710707  0.50425483
   0.28550722  0.57001213  0.50323492
   0.28597150  0.71422259  0.50085534
   0.28573842  0.85707630  0.49923515
   0.42863138  0.99997885  0.49914376
   0.42927978  0.14351493  0.49972593
   0.42807154  0.28368277  0.50169214
   0.42807395  0.71570350  0.50245620
   0.42928062  0.85708058  0.50010219
   0.57119877  0.99993769  0.49974040
   0.57121861  0.14265180  0.49950297
   0.57460805  0.28857776  0.50072223
   0.57461099  0.85742280  0.50118098
   0.71405174  0.00034058  0.50026373
   0.71396619  0.14268373  0.49949117
   0.71407025  0.28513777  0.50012384
   0.70968779  0.42432862  0.50258372
   0.71462946  0.57127953  0.51066887
   0.71462733  0.71473297  0.51066139
   0.70970853  0.85678910  0.50266388
   0.85605954  0.99933150  0.50012039
   0.85649371  0.14256974  0.49973061
   0.85651747  0.28535160  0.49981884
   0.85609171  0.42813556  0.50037077
   0.85517250  0.57027179  0.50110768
   0.85624344  0.71380551  0.50217781
   0.85514310  0.85625698  0.50089664
   0.04683063  0.09460115  0.49947868
   0.04611787  0.23706405  0.50045484
   0.04611352  0.38041734  0.50077849
   0.04683315  0.52358584  0.50010489
   0.04697844  0.66641307  0.49910150
   0.04682797  0.80910370  0.49881217
   0.04695232  0.95193135  0.49875930
   0.19030321  0.09504828  0.49975737
   0.18954871  0.23765509  0.50146255
   0.18771505  0.37954248  0.50254171
   0.18954722  0.52322165  0.50205494
   0.19031206  0.66660399  0.50030378
   0.19039853  0.80946234  0.49904639
   0.19040379  0.95232457  0.49884111
   0.33382165  0.09574678  0.49957911
   0.33463634  0.23856795  0.50162967
   0.32933806  0.37949767  0.50452343
   0.32933567  0.52112706  0.50470648
   0.33463932  0.66737925  0.50228991
   0.33381202  0.80939745  0.49999344
   0.33316176  0.95226309  0.49899070
   0.47621562  0.09517389  0.49932949
   0.47692021  0.23923047  0.50053847
   0.47691423  0.80900610  0.50112285
   0.47621012  0.95238747  0.49952984
   0.61864037  0.09501243  0.49946834
   0.61934427  0.23808577  0.50008731
   0.61934176  0.95266251  0.50044068
   0.76165143  0.09548383  0.49964511
   0.76164556  0.23757310  0.49963800
   0.76071522  0.37993791  0.50099852
   0.75874830  0.52262853  0.50455067
   0.76046987  0.66592278  0.50804176
   0.75873790  0.80750890  0.50445962
   0.76070494  0.95221191  0.50098687
   0.90367585  0.09433159  0.49975868
   0.90398388  0.23768755  0.49984414
   0.90369525  0.38074650  0.50001045
   0.90353723  0.52347935  0.49993441
   0.90331520  0.66573901  0.50055629
   0.90328704  0.80893362  0.50042285
   0.90350632  0.95142054  0.49958373
   0.46654659  0.35630377  0.50288532
   0.40187429  0.41912857  0.50481202
   0.40187107  0.55406913  0.50493687
   0.64224386  0.67899706  0.51878468
   0.64223751  0.53464530  0.51874134
   0.46655377  0.68156909  0.50382862
   0.55613257  0.60851258  0.42077214
   0.55700700  0.51985442  0.42056362
   0.61961618  0.37911098  0.50173971
   0.61963783  0.81192258  0.50206648
   0.51789233  0.54454020  0.43022414
Direct configuration=     3
   0.99894339  0.99922933  0.49895184
   0.99894565  0.14204804  0.49978290
   0.99903219  0.28520238  0.50034182
   0.99894569  0.42826071  0.50024207
   0.99898112  0.57109580  0.49945143
   0.99917273  0.71375517  0.49909124
   0.99914696  0.85679337  0.49896825
   0.14257636  0.00000497  0.49895548
   0.14219949  0.14252429  0.50012581
   0.14133053  0.28467989  0.50149119
   0.14132624  0.42799890  0.50183509
   0.14220201  0.57101612  0.50081232
   0.14260320  0.71394822  0.49934734
   0.14255041  0.85696026  0.49873190
   0.28573168  0.00000728  0.49900865
   0.28597895  0.14307054  0.50028731
   0.28552748  0.28680920  0.50271675
   0.28290582  0.42710434  0.50426406
   0.28550803  0.57001221  0.50324078
   0.28597436  0.71422545  0.50085724
   0.28573895  0.85707773  0.49923337
   0.42863100  0.99997999  0.49914404
   0.42927959  0.14351503  0.49972672
   0.42807063  0.28368277  0.50169670
   0.42807437  0.71570404  0.50246054
   0.42928096  0.85708225  0.50010509
   0.57119853  0.99993907  0.49974289
   0.57121849  0.14265232  0.49950245
   0.57460805  0.28857832  0.50072775
   0.57461069  0.85742328  0.50118901
   0.71405177  0.00034136  0.50026741
   0.71396566  0.14268487  0.49949000
   0.71406986  0.28513786  0.50012416
   0.70968799  0.42432867  0.50259609
   0.71463079  0.57127906  0.51069461
   0.71462746  0.71473176  0.51068218
   0.70970768  0.85678836  0.50267220
   0.85606188  0.99933473  0.50012121
   0.85649357  0.14257004  0.49972973
   0.85651501  0.28535120  0.49981707
   0.85609139  0.42813506  0.50037255
   0.85517301  0.57027203  0.50111567
   0.85624389  0.71380495  0.50218841
   0.85514239  0.85625600  0.50089945
   0.04683045  0.09460005  0.49947625
   0.04611802  0.23706486  0.50045479
   0.04611497  0.38042004  0.50077854
   0.04683441  0.52358627  0.50010178
   0.04697848  0.66641182  0.49909802
   0.04682728  0.80910269  0.49880633
   0.04695132  0.95193062  0.49875250
   0.19030268  0.09504793  0.49975274
   0.18954762  0.23765459  0.50146405
   0.18771419  0.37954307  0.50254749
   0.18954707  0.52322202  0.50205683
   0.19031227  0.66660141  0.50030284
   0.19039767  0.80945995  0.49904369
   0.19040350  0.95232468  0.49883909
   0.33382150  0.09574700  0.49957769
   0.33463573  0.23856780  0.50163224
   0.32933640  0.37949689  0.50453408
   0.32933468  0.52112685  0.50471724
   0.33463890  0.66737852  0.50229426
   0.33381173  0.80939654  0.49999451
   0.33316130  0.95226224  0.49898874
   0.47621574  0.09517439  0.49932950
   0.47692020  0.23923120  0.50054241
   0.47691376  0.80900513  0.50112721
   0.47621025  0.95238698  0.49953168
   0.61864089  0.09501266  0.49946841
   0.61934418  0.23808632  0.50008795
   0.61934163  0.95266224  0.50044581
   0.76165152  0.09548340  0.49964575
   0.76164678  0.23757369  0.49963627
   0.76071612  0.37993834  0.50100315
   0.75874956  0.52262879  0.50456676
   0.76047019  0.66592140  0.50806299
   0.75873631  0.80750684  0.50446954
   0.76070369  0.95221047  0.50099124
   0.90367510  0.09433083  0.49975790
   0.90398486  0.23768840  0.49984198
   0.90369753  0.38074801  0.50000989
   0.90353908  0.52347908  0.49993656
   0.90331523  0.66573799  0.50056063
   0.90328564  0.80893211  0.50042613
   0.90350447  0.95141854  0.49958388
   0.46654581  0.35630394  0.50289008
   0.40187245  0.41912669  0.50482594
   0.40187020  0.55406876  0.50495076
   0.64224544  0.67899781  0.51880973
   0.64223890  0.53464336  0.51876746
   0.46655461  0.68156976  0.50383198
   0.55613591  0.60851465  0.42078124
   0.55701193  0.51985675  0.42057366
   0.61961660  0.37911130  0.50175143
   0.61963767  0.81192295  0.50207716
   0.51789524  0.54454146  0.43022414
Direct configuration=     4
   0.99894242  0.99922837  0.49894673
   0.99894502  0.14204726  0.49978091
   0.99902986  0.28519928  0.50033951
   0.99894269  0.42826043  0.50023993
   0.99897994  0.57109699  0.49944816
   0.99917511  0.71375968  0.49908692
   0.99914639  0.85679300  0.49896205
   0.14257544  0.00000450  0.49894698
   0.14219820  0.14252309  0.50012178
   0.14132930  0.28467835  0.50149541
   0.14132451  0.42799694  0.50183846
   0.14220280  0.57101812  0.50081018
   0.14260476  0.71395380  0.49934234
   0.14255061  0.85696133  0.49872439
   0.28573166  0.00000822  0.49900505
   0.28597838  0.14307002  0.50028537
   0.28552611  0.28680779  0.50272339
   0.28290334  0.42710077  0.50427668
   0.28550953  0.57001244  0.50324881
   0.28597537  0.71422736  0.50085976
   0.28573965  0.85707981  0.49923098
   0.42863140  0.99998203  0.49914341
   0.42927948  0.14351524  0.49972775
   0.42806986  0.28368279  0.50170291
   0.42807547  0.71570508  0.50246653
   0.42928157  0.85708460  0.50010892
   0.57119808  0.99994062  0.49974617
   0.57121817  0.14265330  0.49950174
   0.57460804  0.28857906  0.50073520
   0.57461020  0.85742387  0.50119964
   0.71405167  0.00034195  0.50027245
   0.71396509  0.14268595  0.49948920
   0.71406899  0.28513823  0.50012469
   0.70968841  0.42432880  0.50261256
   0.71463262  0.57127934  0.51072817
   0.71462865  0.71473160  0.51070997
   0.70970707  0.85678761  0.50268356
   0.85606518  0.99933828  0.50012257
   0.85649308  0.14256986  0.49972848
   0.85651020  0.28535044  0.49981480
   0.85608952  0.42813474  0.50037510
   0.85517369  0.57027228  0.50112659
   0.85624465  0.71380457  0.50220282
   0.85514225  0.85625501  0.50090369
   0.04683020  0.09459880  0.49947302
   0.04611800  0.23706615  0.50045463
   0.04611924  0.38042545  0.50077855
   0.04683633  0.52358644  0.50009765
   0.04697838  0.66640966  0.49909320
   0.04682622  0.80910093  0.49879843
   0.04694999  0.95192976  0.49874333
   0.19030204  0.09504765  0.49974647
   0.18954623  0.23765401  0.50146614
   0.18771407  0.37954435  0.50255428
   0.18954649  0.52322209  0.50205950
   0.19031192  0.66659947  0.50030148
   0.19039643  0.80945647  0.49904047
   0.19040320  0.95232426  0.49883521
   0.33382123  0.09574724  0.49957568
   0.33463463  0.23856747  0.50163582
   0.32933406  0.37949570  0.50454858
   0.32933299  0.52112648  0.50473194
   0.33463791  0.66737727  0.50230018
   0.33381123  0.80939499  0.49999592
   0.33315979  0.95225944  0.49898606
   0.47621598  0.09517485  0.49932949
   0.47692011  0.23923205  0.50054775
   0.47691320  0.80900367  0.50113310
   0.47621066  0.95238639  0.49953385
   0.61864182  0.09501276  0.49946844
   0.61934421  0.23808670  0.50008893
   0.61934180  0.95266204  0.50045280
   0.76165211  0.09548292  0.49964654
   0.76164931  0.23757423  0.49963389
   0.76071786  0.37993906  0.50100954
   0.75874964  0.52262804  0.50458803
   0.76047038  0.66592029  0.50809227
   0.75873414  0.80750550  0.50448364
   0.76070292  0.95220987  0.50099596
   0.90367387  0.09432944  0.49975685
   0.90398681  0.23768947  0.49983895
   0.90370175  0.38074999  0.50000979
   0.90354079  0.52347903  0.49993904
   0.90331427  0.66573628  0.50056582
   0.90328365  0.80892995  0.50043045
   0.90350229  0.95141613  0.49958388
   0.46654477  0.35630407  0.50289657
   0.40187040  0.41912440  0.50484431
   0.40186947  0.55406831  0.50496910
   0.64224625  0.67899784  0.51884304
   0.64224050  0.53464083  0.51880223
   0.46655565  0.68157059  0.50383661
   0.55614125  0.60851817  0.42079035
   0.55701948  0.51985973  0.42058396
   0.61961734  0.37911188  0.50176690
   0.61963732  0.81192305  0.50209109
   0.51789855  0.54454288  0.43022414
Direct configuration=     5
   0.99894242  0.99922837  0.49894673
   0.99894502  0.14204726  0.49978091
   0.99902986  0.28519928  0.50033951
   0.99894269  0.42826043  0.50023993
   0.99897994  0.57109699  0.49944816
   0.99917511  0.71375968  0.49908692
   0.99914639  0.85679300  0.49896205
   0.14257544  0.00000450  0.49894698
   0.14219820  0.14252309  0.50012178
   0.14132930  0.28467835  0.50149541
   0.14132451  0.42799694  0.50183846
   0.14220280  0.57101812  0.50081018
   0.14260476  0.71395380  0.49934234
   0.14255061  0.85696133  0.49872439
   0.28573166  0.00000822  0.49900505
   0.28597838  0.14307002  0.50028537
   0.28552611  0.28680779  0.50272339
   0.28290334  0.42710077  0.50427668
   0.28550953  0.57001244  0.50324881
   0.28597537  0.71422736  0.50085976
   0.28573965  0.85707981  0.49923098
   0.42863140  0.99998203  0.49914341
   0.42927948  0.14351524  0.49972775
   0.42806986  0.28368279  0.50170291
   0.42807547  0.71570508  0.50246653
   0.42928157  0.85708460  0.50010892
   0.57119808  0.99994062  0.49974617
   0.57121817  0.14265330  0.49950174
   0.57460804  0.28857906  0.50073520
   0.57461020  0.85742387  0.50119964
   0.71405167  0.00034195  0.50027245
   0.71396509  0.14268595  0.49948920
   0.71406899  0.28513823  0.50012469
   0.70968841  0.42432880  0.50261256
   0.71463262  0.57127934  0.51072817
   0.71462865  0.71473160  0.51070997
   0.70970707  0.85678761  0.50268356
   0.85606518  0.99933828  0.50012257
   0.85649308  0.14256986  0.49972848
   0.85651020  0.28535044  0.49981480
   0.85608952  0.42813474  0.50037510
   0.85517369  0.57027228  0.50112659
   0.85624465  0.71380457  0.50220282
   0.85514225  0.85625501  0.50090369
   0.04683020  0.09459880  0.49947302
   0.04611800  0.23706615  0.50045463
   0.04611924  0.38042545  0.50077855
   0.04683633  0.52358644  0.50009765
   0.04697838  0.66640966  0.49909320
   0.04682622  0.80910093  0.49879843
   0.04694999  0.95192976  0.49874333
   0.19030204  0.09504765  0.49974647
   0.18954623  0.23765401  0.50146614
   0.18771407  0.37954435  0.50255428
   0.18954649  0.52322209  0.50205950
   0.19031192  0.66659947  0.50030148
   0.19039643  0.80945647  0.49904047
   0.19040320  0.95232426  0.49883521
   0.33382123  0.09574724  0.49957568
   0.33463463  0.23856747  0.50163582
   0.32933406  0.37949570  0.50454858
   0.32933299  0.52112648  0.50473194
   0.33463791  0.66737727  0.50230018
   0.33381123  0.80939499  0.49999592
   0.33315979  0.95225944  0.49898606
   0.47621598  0.09517485  0.49932949
   0.47692011  0.23923205  0.50054775
   0.47691320  0.80900367  0.50113310
   0.47621066  0.95238639  0.49953385
   0.61864182  0.09501276  0.49946844
   0.61934421  0.23808670  0.50008893
   0.61934180  0.95266204  0.50045280
   0.76165211  0.09548292  0.49964654
   0.76164931  0.23757423  0.49963389
   0.76071786  0.37993906  0.50100954
   0.75874964  0.52262804  0.50458803
   0.76047038  0.66592029  0.50809227
   0.75873414  0.80750550  0.50448364
   0.76070292  0.95220987  0.50099596
   0.90367387  0.09432944  0.49975685
   0.90398681  0.23768947  0.49983895
   0.90370175  0.38074999  0.50000979
   0.90354079  0.52347903  0.49993904
   0.90331427  0.66573628  0.50056582
   0.90328365  0.80892995  0.50043045
   0.90350229  0.95141613  0.49958388
   0.46654477  0.35630407  0.50289657
   0.40187040  0.41912440  0.50484431
   0.40186947  0.55406831  0.50496910
   0.64224625  0.67899784  0.51884304
   0.64224050  0.53464083  0.51880223
   0.46655565  0.68157059  0.50383661
   0.55614125  0.60851817  0.42079035
   0.55701948  0.51985973  0.42058396
   0.61961734  0.37911188  0.50176690
   0.61963732  0.81192305  0.50209109
   0.51789855  0.54454288  0.43022414
