  93  93   0   0
  0.4166543E+02  0.1727104E-08  0.1727104E-08  0.1500000E-08  0.1000000E-15
   1.0000000000000000E-004
  CAR 
 unknown system                          
      5.74635652    -30.78662733  301     -2.81693537      1.00000000
    -30.787  0.0000E+00  0.0000E+00  0.0000E+00  0.0000E+00
    -30.665  0.0000E+00  0.0000E+00  0.0000E+00  0.0000E+00
    -30.543  0.0000E+00  0.0000E+00  0.0000E+00  0.0000E+00
    -30.421  0.0000E+00  0.0000E+00  0.0000E+00  0.0000E+00
    -30.300  0.0000E+00  0.0000E+00  0.0000E+00  0.0000E+00
    -30.178  0.0000E+00  0.0000E+00  0.0000E+00  0.0000E+00
    -30.056  0.0000E+00  0.0000E+00  0.0000E+00  0.0000E+00
    -29.934  0.0000E+00  0.0000E+00  0.0000E+00  0.0000E+00
    -29.812  0.0000E+00  0.0000E+00  0.0000E+00  0.0000E+00
    -29.691  0.0000E+00  0.0000E+00  0.0000E+00  0.0000E+00
    -29.569  0.0000E+00  0.0000E+00  0.0000E+00  0.0000E+00
    -29.447  0.0000E+00  0.0000E+00  0.0000E+00  0.0000E+00
    -29.325  0.2369E-09  0.2369E-09  0.2885E-10  0.2885E-10
    -29.204  0.3887E-03  0.3887E-03  0.4733E-04  0.4733E-04
    -29.082  0.3192E-01  0.3192E-01  0.3935E-02  0.3935E-02
    -28.960  0.2238E-01  0.2238E-01  0.6660E-02  0.6660E-02
    -28.838  0.5473E-04  0.5473E-04  0.6667E-02  0.6667E-02
    -28.716  0.3515E-11  0.3515E-11  0.6667E-02  0.6667E-02
    -28.595  0.0000E+00  0.0000E+00  0.6667E-02  0.6667E-02
    -28.473  0.0000E+00  0.0000E+00  0.6667E-02  0.6667E-02
    -28.351  0.0000E+00  0.0000E+00  0.6667E-02  0.6667E-02
    -28.229  0.0000E+00  0.0000E+00  0.6667E-02  0.6667E-02
    -28.108  0.0000E+00  0.0000E+00  0.6667E-02  0.6667E-02
    -27.986  0.0000E+00  0.0000E+00  0.6667E-02  0.6667E-02
    -27.864  0.0000E+00  0.0000E+00  0.6667E-02  0.6667E-02
    -27.742  0.0000E+00  0.0000E+00  0.6667E-02  0.6667E-02
    -27.620  0.0000E+00  0.0000E+00  0.6667E-02  0.6667E-02
    -27.499  0.0000E+00  0.0000E+00  0.6667E-02  0.6667E-02
    -27.377  0.0000E+00  0.0000E+00  0.6667E-02  0.6667E-02
    -27.255  0.0000E+00  0.0000E+00  0.6667E-02  0.6667E-02
    -27.133  0.0000E+00  0.0000E+00  0.6667E-02  0.6667E-02
    -27.012  0.0000E+00  0.0000E+00  0.6667E-02  0.6667E-02
    -26.890  0.0000E+00  0.0000E+00  0.6667E-02  0.6667E-02
    -26.768  0.0000E+00  0.0000E+00  0.6667E-02  0.6667E-02
    -26.646  0.0000E+00  0.0000E+00  0.6667E-02  0.6667E-02
    -26.524  0.0000E+00  0.0000E+00  0.6667E-02  0.6667E-02
    -26.403  0.0000E+00  0.0000E+00  0.6667E-02  0.6667E-02
    -26.281  0.0000E+00  0.0000E+00  0.6667E-02  0.6667E-02
    -26.159  0.0000E+00  0.0000E+00  0.6667E-02  0.6667E-02
    -26.037  0.0000E+00  0.0000E+00  0.6667E-02  0.6667E-02
    -25.916  0.0000E+00  0.0000E+00  0.6667E-02  0.6667E-02
    -25.794  0.0000E+00  0.0000E+00  0.6667E-02  0.6667E-02
    -25.672  0.0000E+00  0.0000E+00  0.6667E-02  0.6667E-02
    -25.550  0.0000E+00  0.0000E+00  0.6667E-02  0.6667E-02
    -25.428  0.0000E+00  0.0000E+00  0.6667E-02  0.6667E-02
    -25.307  0.0000E+00  0.0000E+00  0.6667E-02  0.6667E-02
    -25.185  0.0000E+00  0.0000E+00  0.6667E-02  0.6667E-02
    -25.063  0.0000E+00  0.0000E+00  0.6667E-02  0.6667E-02
    -24.941  0.0000E+00  0.0000E+00  0.6667E-02  0.6667E-02
    -24.820  0.0000E+00  0.0000E+00  0.6667E-02  0.6667E-02
    -24.698  0.0000E+00  0.0000E+00  0.6667E-02  0.6667E-02
    -24.576  0.0000E+00  0.0000E+00  0.6667E-02  0.6667E-02
    -24.454  0.0000E+00  0.0000E+00  0.6667E-02  0.6667E-02
    -24.332  0.0000E+00  0.0000E+00  0.6667E-02  0.6667E-02
    -24.211  0.0000E+00  0.0000E+00  0.6667E-02  0.6667E-02
    -24.089  0.0000E+00  0.0000E+00  0.6667E-02  0.6667E-02
    -23.967  0.0000E+00  0.0000E+00  0.6667E-02  0.6667E-02
    -23.845  0.0000E+00  0.0000E+00  0.6667E-02  0.6667E-02
    -23.724  0.0000E+00  0.0000E+00  0.6667E-02  0.6667E-02
    -23.602  0.0000E+00  0.0000E+00  0.6667E-02  0.6667E-02
    -23.480  0.0000E+00  0.0000E+00  0.6667E-02  0.6667E-02
    -23.358  0.0000E+00  0.0000E+00  0.6667E-02  0.6667E-02
    -23.236  0.0000E+00  0.0000E+00  0.6667E-02  0.6667E-02
    -23.115  0.0000E+00  0.0000E+00  0.6667E-02  0.6667E-02
    -22.993  0.3799E-18  0.3799E-18  0.6667E-02  0.6667E-02
    -22.871  0.5127E-08  0.5127E-08  0.6667E-02  0.6667E-02
    -22.749  0.1287E-02  0.1287E-02  0.6823E-02  0.6823E-02
    -22.628  0.2510E-01  0.2510E-01  0.9880E-02  0.9880E-02
    -22.506  0.3723E-01  0.3723E-01  0.1441E-01  0.1441E-01
    -22.384  0.1849E-01  0.1849E-01  0.1667E-01  0.1667E-01
    -22.262  0.5122E-02  0.5122E-02  0.1729E-01  0.1729E-01
    -22.140  0.2704E-01  0.2704E-01  0.2058E-01  0.2058E-01
    -22.019  0.2286E-01  0.2286E-01  0.2337E-01  0.2337E-01
    -21.897  0.2007E-01  0.2007E-01  0.2581E-01  0.2581E-01
    -21.775  0.1882E-01  0.1882E-01  0.2810E-01  0.2810E-01
    -21.653  0.2834E-01  0.2834E-01  0.3155E-01  0.3155E-01
    -21.532  0.1190E-01  0.1190E-01  0.3300E-01  0.3300E-01
    -21.410  0.2663E-01  0.2663E-01  0.3624E-01  0.3624E-01
    -21.288  0.1506E-01  0.1506E-01  0.3808E-01  0.3808E-01
    -21.166  0.1571E-01  0.1571E-01  0.3999E-01  0.3999E-01
    -21.044  0.9342E-02  0.9342E-02  0.4113E-01  0.4113E-01
    -20.923  0.2472E-01  0.2472E-01  0.4414E-01  0.4414E-01
    -20.801  0.4435E-01  0.4435E-01  0.4954E-01  0.4954E-01
    -20.679  0.2770E-01  0.2770E-01  0.5291E-01  0.5291E-01
    -20.557  0.2273E-01  0.2273E-01  0.5568E-01  0.5568E-01
    -20.436  0.1414E-01  0.1414E-01  0.5740E-01  0.5740E-01
    -20.314  0.3060E-01  0.3060E-01  0.6113E-01  0.6113E-01
    -20.192  0.1294E-01  0.1294E-01  0.6271E-01  0.6271E-01
    -20.070  0.1592E-01  0.1592E-01  0.6464E-01  0.6464E-01
    -19.949  0.1869E-01  0.1869E-01  0.6692E-01  0.6692E-01
    -19.827  0.2020E-01  0.2020E-01  0.6938E-01  0.6938E-01
    -19.705  0.3830E-01  0.3830E-01  0.7404E-01  0.7404E-01
    -19.583  0.3579E-01  0.3579E-01  0.7840E-01  0.7840E-01
    -19.461  0.1985E-01  0.1985E-01  0.8082E-01  0.8082E-01
    -19.340  0.1012E-01  0.1012E-01  0.8205E-01  0.8205E-01
    -19.218  0.1054E-01  0.1054E-01  0.8334E-01  0.8334E-01
    -19.096  0.1368E-01  0.1368E-01  0.8500E-01  0.8500E-01
    -18.974  0.1654E-01  0.1654E-01  0.8702E-01  0.8702E-01
    -18.853  0.3060E-01  0.3060E-01  0.9074E-01  0.9074E-01
    -18.731  0.4763E-01  0.4763E-01  0.9654E-01  0.9654E-01
    -18.609  0.1966E-01  0.1966E-01  0.9894E-01  0.9894E-01
    -18.487  0.3141E-01  0.3141E-01  0.1028E+00  0.1028E+00
    -18.365  0.1439E-01  0.1439E-01  0.1045E+00  0.1045E+00
    -18.244  0.2018E-01  0.2018E-01  0.1070E+00  0.1070E+00
    -18.122  0.2109E-01  0.2109E-01  0.1095E+00  0.1095E+00
    -18.000  0.2383E-01  0.2383E-01  0.1124E+00  0.1124E+00
    -17.878  0.1159E-01  0.1159E-01  0.1139E+00  0.1139E+00
    -17.757  0.4555E-01  0.4555E-01  0.1194E+00  0.1194E+00
    -17.635  0.4221E-01  0.4221E-01  0.1245E+00  0.1245E+00
    -17.513  0.1046E-01  0.1046E-01  0.1258E+00  0.1258E+00
    -17.391  0.1975E-01  0.1975E-01  0.1282E+00  0.1282E+00
    -17.269  0.3705E-01  0.3705E-01  0.1327E+00  0.1327E+00
    -17.148  0.2751E-01  0.2751E-01  0.1361E+00  0.1361E+00
    -17.026  0.1741E-01  0.1741E-01  0.1382E+00  0.1382E+00
    -16.904  0.2019E-01  0.2019E-01  0.1407E+00  0.1407E+00
    -16.782  0.2373E-01  0.2373E-01  0.1435E+00  0.1435E+00
    -16.661  0.5316E-01  0.5316E-01  0.1500E+00  0.1500E+00
    -16.539  0.1904E-01  0.1904E-01  0.1523E+00  0.1523E+00
    -16.417  0.1385E-01  0.1385E-01  0.1540E+00  0.1540E+00
    -16.295  0.1145E-02  0.1145E-02  0.1542E+00  0.1542E+00
    -16.173  0.3469E-04  0.3469E-04  0.1542E+00  0.1542E+00
    -16.052  0.6186E-02  0.6186E-02  0.1549E+00  0.1549E+00
    -15.930  0.2364E-01  0.2364E-01  0.1578E+00  0.1578E+00
    -15.808  0.2807E-01  0.2807E-01  0.1612E+00  0.1612E+00
    -15.686  0.1578E-01  0.1578E-01  0.1631E+00  0.1631E+00
    -15.565  0.9534E-02  0.9534E-02  0.1643E+00  0.1643E+00
    -15.443  0.3252E-01  0.3252E-01  0.1683E+00  0.1683E+00
    -15.321  0.4440E-01  0.4440E-01  0.1737E+00  0.1737E+00
    -15.199  0.2554E-01  0.2554E-01  0.1768E+00  0.1768E+00
    -15.077  0.2234E-01  0.2234E-01  0.1795E+00  0.1795E+00
    -14.956  0.2821E-01  0.2821E-01  0.1829E+00  0.1829E+00
    -14.834  0.3122E-01  0.3122E-01  0.1867E+00  0.1867E+00
    -14.712  0.2696E-01  0.2696E-01  0.1900E+00  0.1900E+00
    -14.590  0.4439E-01  0.4439E-01  0.1954E+00  0.1954E+00
    -14.469  0.2970E-01  0.2970E-01  0.1990E+00  0.1990E+00
    -14.347  0.1310E-01  0.1310E-01  0.2006E+00  0.2006E+00
    -14.225  0.1596E-01  0.1596E-01  0.2026E+00  0.2026E+00
    -14.103  0.1236E-01  0.1236E-01  0.2041E+00  0.2041E+00
    -13.981  0.2512E-01  0.2512E-01  0.2071E+00  0.2071E+00
    -13.860  0.3063E-01  0.3063E-01  0.2109E+00  0.2109E+00
    -13.738  0.3824E-01  0.3824E-01  0.2155E+00  0.2155E+00
    -13.616  0.2523E-01  0.2523E-01  0.2186E+00  0.2186E+00
    -13.494  0.1902E-01  0.1902E-01  0.2209E+00  0.2209E+00
    -13.373  0.6092E-02  0.6092E-02  0.2217E+00  0.2217E+00
    -13.251  0.1377E-01  0.1377E-01  0.2233E+00  0.2233E+00
    -13.129  0.1872E-01  0.1872E-01  0.2256E+00  0.2256E+00
    -13.007  0.2431E-01  0.2431E-01  0.2286E+00  0.2286E+00
    -12.885  0.3251E-01  0.3251E-01  0.2325E+00  0.2325E+00
    -12.764  0.5796E-01  0.5796E-01  0.2396E+00  0.2396E+00
    -12.642  0.1706E-01  0.1706E-01  0.2417E+00  0.2417E+00
    -12.520  0.3203E-01  0.3203E-01  0.2456E+00  0.2456E+00
    -12.398  0.2953E-01  0.2953E-01  0.2492E+00  0.2492E+00
    -12.277  0.1922E-01  0.1922E-01  0.2515E+00  0.2515E+00
    -12.155  0.8731E-02  0.8731E-02  0.2526E+00  0.2526E+00
    -12.033  0.3088E-01  0.3088E-01  0.2563E+00  0.2563E+00
    -11.911  0.2431E-01  0.2431E-01  0.2593E+00  0.2593E+00
    -11.789  0.3905E-01  0.3905E-01  0.2641E+00  0.2641E+00
    -11.668  0.4704E-01  0.4704E-01  0.2698E+00  0.2698E+00
    -11.546  0.3931E-01  0.3931E-01  0.2746E+00  0.2746E+00
    -11.424  0.3295E-01  0.3295E-01  0.2786E+00  0.2786E+00
    -11.302  0.4439E-01  0.4439E-01  0.2840E+00  0.2840E+00
    -11.181  0.3324E-01  0.3324E-01  0.2880E+00  0.2880E+00
    -11.059  0.2204E-01  0.2204E-01  0.2907E+00  0.2907E+00
    -10.937  0.1488E-01  0.1488E-01  0.2925E+00  0.2925E+00
    -10.815  0.1481E-01  0.1481E-01  0.2943E+00  0.2943E+00
    -10.693  0.3345E-01  0.3345E-01  0.2984E+00  0.2984E+00
    -10.572  0.5194E-01  0.5194E-01  0.3047E+00  0.3047E+00
    -10.450  0.3855E-01  0.3855E-01  0.3094E+00  0.3094E+00
    -10.328  0.4694E-01  0.4694E-01  0.3151E+00  0.3151E+00
    -10.206  0.4955E-01  0.4955E-01  0.3212E+00  0.3212E+00
    -10.085  0.5664E-01  0.5664E-01  0.3281E+00  0.3281E+00
     -9.963  0.5818E-01  0.5818E-01  0.3352E+00  0.3352E+00
     -9.841  0.6120E-01  0.6120E-01  0.3426E+00  0.3426E+00
     -9.719  0.6583E-01  0.6583E-01  0.3506E+00  0.3506E+00
     -9.597  0.6102E-01  0.6102E-01  0.3581E+00  0.3581E+00
     -9.476  0.7968E-01  0.7968E-01  0.3678E+00  0.3678E+00
     -9.354  0.5391E-01  0.5391E-01  0.3743E+00  0.3743E+00
     -9.232  0.7668E-01  0.7668E-01  0.3837E+00  0.3837E+00
     -9.110  0.8845E-01  0.8845E-01  0.3944E+00  0.3944E+00
     -8.989  0.8062E-01  0.8062E-01  0.4043E+00  0.4043E+00
     -8.867  0.5759E-01  0.5759E-01  0.4113E+00  0.4113E+00
     -8.745  0.4778E-01  0.4778E-01  0.4171E+00  0.4171E+00
     -8.623  0.6120E-01  0.6120E-01  0.4245E+00  0.4245E+00
     -8.502  0.6556E-01  0.6556E-01  0.4325E+00  0.4325E+00
     -8.380  0.9295E-01  0.9295E-01  0.4438E+00  0.4438E+00
     -8.258  0.5716E-01  0.5716E-01  0.4508E+00  0.4508E+00
     -8.136  0.4363E-01  0.4363E-01  0.4561E+00  0.4561E+00
     -8.014  0.3264E-01  0.3264E-01  0.4601E+00  0.4601E+00
     -7.893  0.4006E-01  0.4006E-01  0.4650E+00  0.4650E+00
     -7.771  0.2630E-01  0.2630E-01  0.4682E+00  0.4682E+00
     -7.649  0.3659E-01  0.3659E-01  0.4726E+00  0.4726E+00
     -7.527  0.7420E-01  0.7420E-01  0.4817E+00  0.4817E+00
     -7.406  0.7933E-01  0.7933E-01  0.4913E+00  0.4913E+00
     -7.284  0.4378E-01  0.4378E-01  0.4967E+00  0.4967E+00
     -7.162  0.2921E-01  0.2921E-01  0.5002E+00  0.5002E+00
     -7.040  0.4152E-01  0.4152E-01  0.5053E+00  0.5053E+00
     -6.918  0.5286E-01  0.5286E-01  0.5117E+00  0.5117E+00
     -6.797  0.3822E-01  0.3822E-01  0.5164E+00  0.5164E+00
     -6.675  0.4164E-01  0.4164E-01  0.5214E+00  0.5214E+00
     -6.553  0.3131E-01  0.3131E-01  0.5252E+00  0.5252E+00
     -6.431  0.8299E-01  0.8299E-01  0.5353E+00  0.5353E+00
     -6.310  0.2839E-01  0.2839E-01  0.5388E+00  0.5388E+00
     -6.188  0.3496E-01  0.3496E-01  0.5431E+00  0.5431E+00
     -6.066  0.4257E-01  0.4257E-01  0.5482E+00  0.5482E+00
     -5.944  0.1746E-01  0.1746E-01  0.5504E+00  0.5504E+00
     -5.822  0.3323E-01  0.3323E-01  0.5544E+00  0.5544E+00
     -5.701  0.1108E-01  0.1108E-01  0.5558E+00  0.5558E+00
     -5.579  0.2582E-01  0.2582E-01  0.5589E+00  0.5589E+00
     -5.457  0.4262E-01  0.4262E-01  0.5641E+00  0.5641E+00
     -5.335  0.3790E-01  0.3790E-01  0.5687E+00  0.5687E+00
     -5.214  0.6741E-01  0.6741E-01  0.5769E+00  0.5769E+00
     -5.092  0.5306E-01  0.5306E-01  0.5834E+00  0.5834E+00
     -4.970  0.2771E-01  0.2771E-01  0.5868E+00  0.5868E+00
     -4.848  0.6031E-02  0.6031E-02  0.5875E+00  0.5875E+00
     -4.726  0.4025E-02  0.4025E-02  0.5880E+00  0.5880E+00
     -4.605  0.2581E-01  0.2581E-01  0.5911E+00  0.5911E+00
     -4.483  0.5241E-01  0.5241E-01  0.5975E+00  0.5975E+00
     -4.361  0.6586E-01  0.6586E-01  0.6055E+00  0.6055E+00
     -4.239  0.7112E-01  0.7112E-01  0.6142E+00  0.6142E+00
     -4.118  0.4065E-01  0.4065E-01  0.6191E+00  0.6191E+00
     -3.996  0.3240E-01  0.3240E-01  0.6231E+00  0.6231E+00
     -3.874  0.4949E-02  0.4949E-02  0.6237E+00  0.6237E+00
     -3.752  0.5584E-02  0.5584E-02  0.6244E+00  0.6244E+00
     -3.630  0.2048E-01  0.2048E-01  0.6269E+00  0.6269E+00
     -3.509  0.5216E-02  0.5216E-02  0.6275E+00  0.6275E+00
     -3.387  0.5534E-02  0.5534E-02  0.6282E+00  0.6282E+00
     -3.265  0.1285E-02  0.1285E-02  0.6283E+00  0.6283E+00
     -3.143  0.1378E-04  0.1378E-04  0.6283E+00  0.6283E+00
     -3.022  0.1148E-01  0.1148E-01  0.6297E+00  0.6297E+00
     -2.900  0.2914E-01  0.2914E-01  0.6333E+00  0.6333E+00
     -2.778  0.4374E-03  0.4374E-03  0.6333E+00  0.6333E+00
     -2.656  0.7753E-02  0.7753E-02  0.6343E+00  0.6343E+00
     -2.534  0.5923E-02  0.5923E-02  0.6350E+00  0.6350E+00
     -2.413  0.2574E-05  0.2574E-05  0.6350E+00  0.6350E+00
     -2.291  0.2032E-02  0.2032E-02  0.6352E+00  0.6352E+00
     -2.169  0.1057E-01  0.1057E-01  0.6365E+00  0.6365E+00
     -2.047  0.6165E-02  0.6165E-02  0.6373E+00  0.6373E+00
     -1.926  0.2197E-01  0.2197E-01  0.6400E+00  0.6400E+00
     -1.804  0.1151E-02  0.1151E-02  0.6401E+00  0.6401E+00
     -1.682  0.1498E-01  0.1498E-01  0.6419E+00  0.6419E+00
     -1.560  0.1792E-01  0.1792E-01  0.6441E+00  0.6441E+00
     -1.438  0.7317E-02  0.7317E-02  0.6450E+00  0.6450E+00
     -1.317  0.3047E-02  0.3047E-02  0.6454E+00  0.6454E+00
     -1.195  0.3763E-01  0.3763E-01  0.6500E+00  0.6500E+00
     -1.073  0.4977E-01  0.4977E-01  0.6560E+00  0.6560E+00
     -0.951  0.2420E-01  0.2420E-01  0.6590E+00  0.6590E+00
     -0.830  0.3055E-01  0.3055E-01  0.6627E+00  0.6627E+00
     -0.708  0.2581E-01  0.2581E-01  0.6658E+00  0.6658E+00
     -0.586  0.1500E-01  0.1500E-01  0.6676E+00  0.6676E+00
     -0.464  0.2865E-01  0.2865E-01  0.6711E+00  0.6711E+00
     -0.342  0.2576E-01  0.2576E-01  0.6743E+00  0.6743E+00
     -0.221  0.3747E-01  0.3747E-01  0.6788E+00  0.6788E+00
     -0.099  0.4225E-01  0.4225E-01  0.6840E+00  0.6840E+00
      0.023  0.1673E-01  0.1673E-01  0.6860E+00  0.6860E+00
      0.145  0.6799E-02  0.6799E-02  0.6868E+00  0.6868E+00
      0.266  0.1443E-01  0.1443E-01  0.6886E+00  0.6886E+00
      0.388  0.1952E-01  0.1952E-01  0.6910E+00  0.6910E+00
      0.510  0.2939E-01  0.2939E-01  0.6946E+00  0.6946E+00
      0.632  0.1390E-01  0.1390E-01  0.6963E+00  0.6963E+00
      0.754  0.1483E-01  0.1483E-01  0.6981E+00  0.6981E+00
      0.875  0.3304E-01  0.3304E-01  0.7021E+00  0.7021E+00
      0.997  0.2733E-01  0.2733E-01  0.7054E+00  0.7054E+00
      1.119  0.2500E-01  0.2500E-01  0.7085E+00  0.7085E+00
      1.241  0.4727E-01  0.4727E-01  0.7142E+00  0.7142E+00
      1.362  0.5574E-01  0.5574E-01  0.7210E+00  0.7210E+00
      1.484  0.3915E-01  0.3915E-01  0.7258E+00  0.7258E+00
      1.606  0.2011E-01  0.2011E-01  0.7282E+00  0.7282E+00
      1.728  0.2076E-01  0.2076E-01  0.7307E+00  0.7307E+00
      1.850  0.3352E-01  0.3352E-01  0.7348E+00  0.7348E+00
      1.971  0.9755E-01  0.9755E-01  0.7467E+00  0.7467E+00
      2.093  0.3835E-01  0.3835E-01  0.7514E+00  0.7514E+00
      2.215  0.2778E-01  0.2778E-01  0.7548E+00  0.7548E+00
      2.337  0.6310E-01  0.6310E-01  0.7624E+00  0.7624E+00
      2.458  0.7161E-01  0.7161E-01  0.7712E+00  0.7712E+00
      2.580  0.4941E-01  0.4941E-01  0.7772E+00  0.7772E+00
      2.702  0.2529E-01  0.2529E-01  0.7803E+00  0.7803E+00
      2.824  0.1184E+00  0.1184E+00  0.7947E+00  0.7947E+00
      2.945  0.1518E+00  0.1518E+00  0.8132E+00  0.8132E+00
      3.067  0.4377E-01  0.4377E-01  0.8185E+00  0.8185E+00
      3.189  0.3098E-01  0.3098E-01  0.8223E+00  0.8223E+00
      3.311  0.5044E-01  0.5044E-01  0.8284E+00  0.8284E+00
      3.433  0.9848E-01  0.9848E-01  0.8404E+00  0.8404E+00
      3.554  0.4536E-01  0.4536E-01  0.8459E+00  0.8459E+00
      3.676  0.3463E-01  0.3463E-01  0.8501E+00  0.8501E+00
      3.798  0.1027E+00  0.1027E+00  0.8626E+00  0.8626E+00
      3.920  0.9391E-01  0.9391E-01  0.8741E+00  0.8741E+00
      4.041  0.6405E-01  0.6405E-01  0.8819E+00  0.8819E+00
      4.163  0.1182E-01  0.1182E-01  0.8833E+00  0.8833E+00
      4.285  0.9747E-04  0.9746E-04  0.8833E+00  0.8833E+00
      4.407  0.5947E-10  0.5946E-10  0.8833E+00  0.8833E+00
      4.529  0.0000E+00  0.0000E+00  0.8833E+00  0.8833E+00
      4.650  0.0000E+00  0.0000E+00  0.8833E+00  0.8833E+00
      4.772  0.0000E+00  0.0000E+00  0.8833E+00  0.8833E+00
      4.894  0.0000E+00  0.0000E+00  0.8833E+00  0.8833E+00
      5.016  0.0000E+00  0.0000E+00  0.8833E+00  0.8833E+00
      5.137  0.0000E+00  0.0000E+00  0.8833E+00  0.8833E+00
      5.259  0.0000E+00  0.0000E+00  0.8833E+00  0.8833E+00
      5.381  0.0000E+00  0.0000E+00  0.8833E+00  0.8833E+00
      5.503  0.0000E+00  0.0000E+00  0.8833E+00  0.8833E+00
      5.625  0.0000E+00  0.0000E+00  0.8833E+00  0.8833E+00
      5.746  0.0000E+00  0.0000E+00  0.8833E+00  0.8833E+00
