       N       E                     dE             d eps       ncg     rms          rms(c)
DAV:   1     0.349476528078E+04    0.34948E+04   -0.14369E+05  4590   0.109E+03
DAV:   2    -0.184606369887E+03   -0.36794E+04   -0.34684E+04  6380   0.268E+02
DAV:   3    -0.840971441180E+03   -0.65637E+03   -0.65329E+03  5260   0.118E+02
DAV:   4    -0.863493269880E+03   -0.22522E+02   -0.22417E+02  5150   0.274E+01
DAV:   5    -0.864211740342E+03   -0.71847E+00   -0.71748E+00  6030   0.418E+00    0.513E+01
DAV:   6    -0.847777467780E+03    0.16434E+02   -0.20544E+01  5080   0.784E+00    0.333E+01
DAV:   7    -0.827793035227E+03    0.19984E+02   -0.30689E+01  4980   0.884E+00    0.202E+01
DAV:   8    -0.823103834424E+03    0.46892E+01   -0.20873E+01  4920   0.695E+00    0.801E+00
DAV:   9    -0.823167871769E+03   -0.64037E-01   -0.11935E+00  5010   0.198E+00    0.342E+00
DAV:  10    -0.823021165158E+03    0.14671E+00   -0.28457E-01  4950   0.117E+00    0.131E+00
DAV:  11    -0.823002496655E+03    0.18669E-01   -0.18984E-01  4650   0.755E-01    0.404E-01
DAV:  12    -0.823000647891E+03    0.18488E-02   -0.19461E-02  5410   0.325E-01    0.206E-01
DAV:  13    -0.823000634562E+03    0.13329E-04   -0.40420E-03  4970   0.132E-01    0.137E-01
DAV:  14    -0.823000613931E+03    0.20631E-04   -0.70072E-04  5040   0.457E-02    0.904E-02
DAV:  15    -0.823000671892E+03   -0.57961E-04   -0.22493E-04  4850   0.395E-02    0.421E-02
DAV:  16    -0.823000721527E+03   -0.49635E-04   -0.10120E-04  4590   0.200E-02    0.234E-02
DAV:  17    -0.823000718358E+03    0.31687E-05   -0.23866E-05  5050   0.110E-02    0.111E-02
DAV:  18    -0.823000717366E+03    0.99256E-06   -0.64084E-06  4780   0.474E-03
   1 F= -.83054260E+03 E0= -.83054260E+03  d E =-.830543E+03  mag=     0.0001
       N       E                     dE             d eps       ncg     rms          rms(c)
DAV:   1    -0.823000739230E+03   -0.20872E-04   -0.18315E-03  4480   0.869E-02    0.987E-03
DAV:   2    -0.823000742162E+03   -0.29318E-05   -0.42341E-05  5000   0.124E-02    0.857E-03
DAV:   3    -0.823000741421E+03    0.74096E-06   -0.17249E-06  3620   0.280E-03
   2 F= -.83054263E+03 E0= -.83054263E+03  d E =-.245076E-04  mag=    -0.0000
       N       E                     dE             d eps       ncg     rms          rms(c)
DAV:   1    -0.823000748891E+03   -0.67294E-05   -0.36246E-03  4480   0.123E-01    0.140E-02
DAV:   2    -0.823000755263E+03   -0.63717E-05   -0.91377E-05  4930   0.184E-02    0.117E-02
DAV:   3    -0.823000753993E+03    0.12705E-05   -0.39939E-06  4640   0.418E-03    0.865E-03
DAV:   4    -0.823000753455E+03    0.53733E-06   -0.28991E-06  3830   0.370E-03
   3 F= -.83054265E+03 E0= -.83054265E+03  d E =-.212717E-04  mag=    -0.0000
       N       E                     dE             d eps       ncg     rms          rms(c)
DAV:   1    -0.823000773310E+03   -0.19318E-04   -0.41618E-03  4460   0.136E-01    0.151E-02
DAV:   2    -0.823000780724E+03   -0.74140E-05   -0.11072E-04  5020   0.207E-02    0.128E-02
DAV:   3    -0.823000779010E+03    0.17139E-05   -0.54000E-06  5080   0.479E-03    0.944E-03
DAV:   4    -0.823000777950E+03    0.10600E-05   -0.26567E-06  3790   0.370E-03    0.459E-03
DAV:   5    -0.823000777964E+03   -0.14181E-07   -0.96067E-07  2720   0.215E-03
   4 F= -.83054267E+03 E0= -.83054267E+03  d E =-.223179E-04  mag=    -0.0000
       N       E                     dE             d eps       ncg     rms          rms(c)
DAV:   1    -0.823000798402E+03   -0.20451E-04   -0.23311E-03  4440   0.101E-01    0.113E-02
DAV:   2    -0.823000802443E+03   -0.40415E-05   -0.61068E-05  5020   0.154E-02    0.968E-03
DAV:   3    -0.823000801384E+03    0.10596E-05   -0.28747E-06  4220   0.361E-03    0.727E-03
DAV:   4    -0.823000800605E+03    0.77829E-06   -0.20780E-06  3100   0.324E-03
   5 F= -.83054270E+03 E0= -.83054270E+03  d E =-.303374E-04  mag=    -0.0000
       N       E                     dE             d eps       ncg     rms          rms(c)
DAV:   1    -0.823000819938E+03   -0.18554E-04   -0.17942E-03  4440   0.861E-02    0.970E-03
DAV:   2    -0.823000823067E+03   -0.31292E-05   -0.44354E-05  4960   0.127E-02    0.820E-03
DAV:   3    -0.823000822458E+03    0.60898E-06   -0.17698E-06  3530   0.290E-03
   6 F= -.83054273E+03 E0= -.83054272E+03  d E =-.223493E-04  mag=    -0.0000
       N       E                     dE             d eps       ncg     rms          rms(c)
DAV:   1    -0.823000826509E+03   -0.34418E-05   -0.33542E-03  4440   0.120E-01    0.137E-02
DAV:   2    -0.823000832601E+03   -0.60926E-05   -0.85312E-05  4970   0.178E-02    0.114E-02
DAV:   3    -0.823000831541E+03    0.10600E-05   -0.36830E-06  4670   0.403E-03    0.841E-03
DAV:   4    -0.823000831211E+03    0.33077E-06   -0.24062E-06  3360   0.344E-03
   7 F= -.83054274E+03 E0= -.83054274E+03  d E =-.184694E-04  mag=    -0.0000
       N       E                     dE             d eps       ncg     rms          rms(c)
DAV:   1    -0.823000846666E+03   -0.15125E-04   -0.37876E-03  4460   0.130E-01    0.145E-02
DAV:   2    -0.823000853285E+03   -0.66186E-05   -0.10025E-04  5110   0.197E-02    0.123E-02
DAV:   3    -0.823000851641E+03    0.16440E-05   -0.52517E-06  5140   0.466E-03    0.898E-03
DAV:   4    -0.823000850704E+03    0.93607E-06   -0.21021E-06  3220   0.338E-03
   8 F= -.83054276E+03 E0= -.83054276E+03  d E =-.180994E-04  mag=    -0.0000
       N       E                     dE             d eps       ncg     rms          rms(c)
DAV:   1    -0.823000868515E+03   -0.16875E-04   -0.23506E-03  4460   0.102E-01    0.113E-02
DAV:   2    -0.823000872813E+03   -0.42973E-05   -0.64706E-05  5120   0.157E-02    0.953E-03
DAV:   3    -0.823000871748E+03    0.10649E-05   -0.30628E-06  4280   0.363E-03    0.704E-03
DAV:   4    -0.823000871071E+03    0.67682E-06   -0.18781E-06  3000   0.306E-03
   9 F= -.83054279E+03 E0= -.83054279E+03  d E =-.271331E-04  mag=    -0.0000
       N       E                     dE             d eps       ncg     rms          rms(c)
DAV:   1    -0.823000885351E+03   -0.13603E-04   -0.15963E-03  4440   0.831E-02    0.934E-03
DAV:   2    -0.823000888293E+03   -0.29417E-05   -0.41130E-05  5100   0.125E-02    0.784E-03
DAV:   3    -0.823000887720E+03    0.57219E-06   -0.16454E-06  3420   0.280E-03
  10 F= -.83054281E+03 E0= -.83054281E+03  d E =-.173339E-04  mag=    -0.0000
       N       E                     dE             d eps       ncg     rms          rms(c)
DAV:   1    -0.823000890880E+03   -0.25873E-05   -0.27161E-03  4420   0.108E-01    0.124E-02
DAV:   2    -0.823000895882E+03   -0.50018E-05   -0.69263E-05  5060   0.161E-02    0.104E-02
DAV:   3    -0.823000894984E+03    0.89794E-06   -0.29125E-06  4080   0.359E-03
  11 F= -.83054282E+03 E0= -.83054282E+03  d E =-.159672E-04  mag=    -0.0000
       N       E                     dE             d eps       ncg     rms          rms(c)
DAV:   1    -0.823000906614E+03   -0.10732E-04   -0.35766E-03  4440   0.126E-01    0.143E-02
DAV:   2    -0.823000913693E+03   -0.70788E-05   -0.97795E-05  5140   0.194E-02    0.118E-02
DAV:   3    -0.823000912389E+03    0.13033E-05   -0.44774E-06  4820   0.432E-03    0.876E-03
DAV:   4    -0.823000911747E+03    0.64215E-06   -0.26015E-06  3470   0.357E-03
  12 F= -.83054284E+03 E0= -.83054284E+03  d E =-.142757E-04  mag=    -0.0000
       N       E                     dE             d eps       ncg     rms          rms(c)
DAV:   1    -0.823000922629E+03   -0.10239E-04   -0.25975E-03  4460   0.108E-01    0.121E-02
DAV:   2    -0.823000927651E+03   -0.50219E-05   -0.72741E-05  5140   0.167E-02    0.101E-02
DAV:   3    -0.823000926530E+03    0.11206E-05   -0.33159E-06  4380   0.376E-03    0.757E-03
DAV:   4    -0.823000925800E+03    0.73026E-06   -0.22262E-06  3400   0.329E-03
  13 F= -.83054286E+03 E0= -.83054286E+03  d E =-.229706E-04  mag=    -0.0000
       N       E                     dE             d eps       ncg     rms          rms(c)
DAV:   1    -0.823000939502E+03   -0.12972E-04   -0.17583E-03  4460   0.876E-02    0.966E-03
DAV:   2    -0.823000942775E+03   -0.32726E-05   -0.46602E-05  5020   0.133E-02    0.813E-03
DAV:   3    -0.823000942131E+03    0.64365E-06   -0.19207E-06  3560   0.303E-03
  14 F= -.83054288E+03 E0= -.83054287E+03  d E =-.160107E-04  mag=    -0.0000
       N       E                     dE             d eps       ncg     rms          rms(c)
DAV:   1    -0.823000944395E+03   -0.16204E-05   -0.23563E-03  4440   0.101E-01    0.113E-02
DAV:   2    -0.823000948696E+03   -0.43008E-05   -0.59978E-05  5020   0.150E-02    0.936E-03
DAV:   3    -0.823000947914E+03    0.78213E-06   -0.25266E-06  4040   0.342E-03
  15 F= -.83054289E+03 E0= -.83054289E+03  d E =-.129400E-04  mag=    -0.0000
       N       E                     dE             d eps       ncg     rms          rms(c)
DAV:   1    -0.823000955762E+03   -0.70661E-05   -0.30741E-03  4460   0.117E-01    0.133E-02
DAV:   2    -0.823000961771E+03   -0.60090E-05   -0.83255E-05  5140   0.179E-02    0.109E-02
DAV:   3    -0.823000960676E+03    0.10948E-05   -0.38297E-06  4640   0.407E-03    0.809E-03
DAV:   4    -0.823000960203E+03    0.47280E-06   -0.23513E-06  3260   0.339E-03
  16 F= -.83054290E+03 E0= -.83054290E+03  d E =-.113180E-04  mag=    -0.0000
       N       E                     dE             d eps       ncg     rms          rms(c)
DAV:   1    -0.823000965564E+03   -0.48877E-05   -0.26555E-03  4440   0.109E-01    0.122E-02
DAV:   2    -0.823000970510E+03   -0.49466E-05   -0.72226E-05  5120   0.166E-02    0.103E-02
DAV:   3    -0.823000969334E+03    0.11764E-05   -0.34529E-06  4440   0.384E-03    0.761E-03
DAV:   4    -0.823000968615E+03    0.71918E-06   -0.22849E-06  3360   0.333E-03
  17 F= -.83054292E+03 E0= -.83054292E+03  d E =-.178730E-04  mag=    -0.0000
       N       E                     dE             d eps       ncg     rms          rms(c)
DAV:   1    -0.823000981754E+03   -0.12420E-04   -0.19120E-03  4450   0.922E-02    0.102E-02
DAV:   2    -0.823000985553E+03   -0.37987E-05   -0.52504E-05  5140   0.142E-02    0.853E-03
DAV:   3    -0.823000984800E+03    0.75265E-06   -0.21516E-06  3640   0.315E-03
  18 F= -.83054293E+03 E0= -.83054293E+03  d E =-.143227E-04  mag=    -0.0000
       N       E                     dE             d eps       ncg     rms          rms(c)
DAV:   1    -0.823000985320E+03    0.23255E-06   -0.21223E-03  4390   0.965E-02    0.109E-02
DAV:   2    -0.823000989719E+03   -0.43990E-05   -0.58172E-05  5060   0.148E-02    0.885E-03
DAV:   3    -0.823000989023E+03    0.69583E-06   -0.22878E-06  3820   0.324E-03
  19 F= -.83054294E+03 E0= -.83054294E+03  d E =-.120998E-04  mag=    -0.0000
       N       E                     dE             d eps       ncg     rms          rms(c)
DAV:   1    -0.823000994259E+03   -0.45401E-05   -0.27782E-03  4400   0.111E-01    0.128E-02
DAV:   2    -0.823001000094E+03   -0.58353E-05   -0.77544E-05  5100   0.173E-02    0.104E-02
DAV:   3    -0.823000999176E+03    0.91858E-06   -0.32473E-06  4220   0.380E-03
  20 F= -.83054295E+03 E0= -.83054295E+03  d E =-.970050E-05  mag=    -0.0000
       N       E                     dE             d eps       ncg     rms          rms(c)
DAV:   1    -0.823001000137E+03   -0.43095E-07   -0.27831E-03  4400   0.112E-01    0.126E-02
DAV:   2    -0.823001006127E+03   -0.59900E-05   -0.79254E-05  5140   0.174E-02    0.103E-02
DAV:   3    -0.823001005169E+03    0.95805E-06   -0.33717E-06  4220   0.382E-03
  21 F= -.83054297E+03 E0= -.83054297E+03  d E =-.150205E-04  mag=    -0.0000
       N       E                     dE             d eps       ncg     rms          rms(c)
DAV:   1    -0.823001015330E+03   -0.92024E-05   -0.22712E-03  4380   0.101E-01    0.114E-02
DAV:   2    -0.823001020462E+03   -0.51322E-05   -0.65633E-05  5160   0.158E-02    0.923E-03
DAV:   3    -0.823001019773E+03    0.68881E-06   -0.24981E-06  3760   0.338E-03
  22 F= -.83054298E+03 E0= -.83054298E+03  d E =-.128199E-04  mag=    -0.0000
       N       E                     dE             d eps       ncg     rms          rms(c)
DAV:   1    -0.823001017111E+03    0.33514E-05   -0.21850E-03  4370   0.987E-02    0.115E-02
DAV:   2    -0.823001021734E+03   -0.46233E-05   -0.61017E-05  5080   0.153E-02    0.939E-03
DAV:   3    -0.823001021006E+03    0.72756E-06   -0.23912E-06  3720   0.331E-03
  23 F= -.83054299E+03 E0= -.83054299E+03  d E =-.110986E-04  mag=    -0.0000
       N       E                     dE             d eps       ncg     rms          rms(c)
DAV:   1    -0.823001028769E+03   -0.70356E-05   -0.26473E-03  4380   0.109E-01    0.126E-02
DAV:   2    -0.823001034433E+03   -0.56638E-05   -0.74945E-05  5120   0.169E-02    0.103E-02
DAV:   3    -0.823001033525E+03    0.90841E-06   -0.30836E-06  4040   0.369E-03
  24 F= -.83054300E+03 E0= -.83054300E+03  d E =-.894718E-05  mag=    -0.0000
       N       E                     dE             d eps       ncg     rms          rms(c)
DAV:   1    -0.823001029768E+03    0.46653E-05   -0.26952E-03  4380   0.110E-01    0.124E-02
DAV:   2    -0.823001035604E+03   -0.58360E-05   -0.76847E-05  5160   0.171E-02    0.102E-02
DAV:   3    -0.823001034689E+03    0.91497E-06   -0.31598E-06  4040   0.370E-03
  25 F= -.83054301E+03 E0= -.83054301E+03  d E =-.123976E-04  mag=    -0.0000
       N       E                     dE             d eps       ncg     rms          rms(c)
DAV:   1    -0.823001044623E+03   -0.90192E-05   -0.23797E-03  4370   0.103E-01    0.117E-02
DAV:   2    -0.823001049945E+03   -0.53215E-05   -0.68449E-05  5200   0.161E-02    0.953E-03
DAV:   3    -0.823001049192E+03    0.75265E-06   -0.26266E-06  3780   0.343E-03
  26 F= -.83054303E+03 E0= -.83054302E+03  d E =-.113340E-04  mag=    -0.0000
       N       E                     dE             d eps       ncg     rms          rms(c)
DAV:   1    -0.823001046045E+03    0.38993E-05   -0.22719E-03  4350   0.101E-01    0.114E-02
DAV:   2    -0.823001050753E+03   -0.47076E-05   -0.62700E-05  5100   0.154E-02    0.944E-03
DAV:   3    -0.823001050006E+03    0.74739E-06   -0.24629E-06  3800   0.335E-03
  27 F= -.83054304E+03 E0= -.83054304E+03  d E =-.102935E-04  mag=    -0.0000
       N       E                     dE             d eps       ncg     rms          rms(c)
DAV:   1    -0.823001053276E+03   -0.25229E-05   -0.26477E-03  4340   0.109E-01    0.122E-02
DAV:   2    -0.823001058780E+03   -0.55042E-05   -0.73330E-05  5140   0.167E-02    0.101E-02
DAV:   3    -0.823001057897E+03    0.88326E-06   -0.29659E-06  4060   0.361E-03
  28 F= -.83054304E+03 E0= -.83054304E+03  d E =-.672812E-05  mag=    -0.0000
       N       E                     dE             d eps       ncg     rms          rms(c)
DAV:   1    -0.823001054954E+03    0.38257E-05   -0.26080E-03  4370   0.108E-01    0.120E-02
DAV:   2    -0.823001060473E+03   -0.55191E-05   -0.73308E-05  5160   0.167E-02    0.993E-03
DAV:   3    -0.823001059591E+03    0.88294E-06   -0.29518E-06  3940   0.361E-03
  29 F= -.83054305E+03 E0= -.83054305E+03  d E =-.106087E-04  mag=    -0.0000
       N       E                     dE             d eps       ncg     rms          rms(c)
DAV:   1    -0.823001063686E+03   -0.32125E-05   -0.23958E-03  4360   0.103E-01    0.114E-02
DAV:   2    -0.823001068568E+03   -0.48819E-05   -0.65345E-05  5160   0.157E-02    0.955E-03
DAV:   3    -0.823001067774E+03    0.79417E-06   -0.26738E-06  3840   0.344E-03
  30 F= -.83054306E+03 E0= -.83054306E+03  d E =-.833310E-05  mag=    -0.0000
       N       E                     dE             d eps       ncg     rms          rms(c)
DAV:   1    -0.823001062904E+03    0.56642E-05   -0.22640E-03  4370   0.101E-01    0.112E-02
DAV:   2    -0.823001067388E+03   -0.44849E-05   -0.61705E-05  5120   0.154E-02    0.935E-03
DAV:   3    -0.823001066577E+03    0.81169E-06   -0.26486E-06  3940   0.344E-03
  31 F= -.83054307E+03 E0= -.83054307E+03  d E =-.774229E-05  mag=    -0.0000
       N       E                     dE             d eps       ncg     rms          rms(c)
DAV:   1    -0.823001068873E+03   -0.14843E-05   -0.24190E-03  4390   0.104E-01    0.114E-02
DAV:   2    -0.823001073791E+03   -0.49184E-05   -0.66030E-05  5140   0.159E-02    0.954E-03
DAV:   3    -0.823001073017E+03    0.77392E-06   -0.26960E-06  3940   0.346E-03
  32 F= -.83054308E+03 E0= -.83054307E+03  d E =-.621105E-05  mag=    -0.0000
       N       E                     dE             d eps       ncg     rms          rms(c)
DAV:   1    -0.823001066545E+03    0.72462E-05   -0.25353E-03  4400   0.107E-01    0.116E-02
DAV:   2    -0.823001071809E+03   -0.52645E-05   -0.70565E-05  5060   0.164E-02    0.961E-03
DAV:   3    -0.823001070995E+03    0.81475E-06   -0.27543E-06  3960   0.352E-03
  33 F= -.83054308E+03 E0= -.83054308E+03  d E =-.597592E-05  mag=    -0.0000
       N       E                     dE             d eps       ncg     rms          rms(c)
DAV:   1    -0.823001074206E+03   -0.23962E-05   -0.24871E-03  4440   0.106E-01    0.116E-02
DAV:   2    -0.823001079527E+03   -0.53215E-05   -0.70785E-05  5060   0.165E-02    0.957E-03
DAV:   3    -0.823001078778E+03    0.74908E-06   -0.27075E-06  3960   0.351E-03
  34 F= -.83054309E+03 E0= -.83054309E+03  d E =-.688327E-05  mag=    -0.0000
       N       E                     dE             d eps       ncg     rms          rms(c)
DAV:   1    -0.823001071850E+03    0.76769E-05   -0.22929E-03  4380   0.102E-01    0.112E-02
DAV:   2    -0.823001076646E+03   -0.47955E-05   -0.64414E-05  5070   0.157E-02    0.925E-03
DAV:   3    -0.823001075885E+03    0.76027E-06   -0.25625E-06  3890   0.341E-03
  35 F= -.83054309E+03 E0= -.83054309E+03  d E =-.608791E-05  mag=    -0.0000
       N       E                     dE             d eps       ncg     rms          rms(c)
DAV:   1    -0.823001078388E+03   -0.17426E-05   -0.23537E-03  4400   0.103E-01    0.113E-02
DAV:   2    -0.823001083411E+03   -0.50232E-05   -0.66453E-05  5040   0.160E-02    0.930E-03
DAV:   3    -0.823001082702E+03    0.70989E-06   -0.25145E-06  3880   0.339E-03
  36 F= -.83054310E+03 E0= -.83054310E+03  d E =-.541255E-05  mag=    -0.0000
       N       E                     dE             d eps       ncg     rms          rms(c)
DAV:   1    -0.823001073914E+03    0.94973E-05   -0.24379E-03  4380   0.105E-01    0.115E-02
DAV:   2    -0.823001079121E+03   -0.52071E-05   -0.68934E-05  5000   0.163E-02    0.946E-03
DAV:   3    -0.823001078349E+03    0.77225E-06   -0.26135E-06  3980   0.345E-03
  37 F= -.83054311E+03 E0= -.83054310E+03  d E =-.536287E-05  mag=    -0.0000
       N       E                     dE             d eps       ncg     rms          rms(c)
DAV:   1    -0.823001079993E+03   -0.87218E-06   -0.25532E-03  4380   0.107E-01    0.117E-02
DAV:   2    -0.823001085538E+03   -0.55449E-05   -0.72818E-05  5000   0.167E-02    0.958E-03
DAV:   3    -0.823001084802E+03    0.73650E-06   -0.27102E-06  4040   0.350E-03
  38 F= -.83054311E+03 E0= -.83054311E+03  d E =-.477539E-05  mag=    -0.0000
       N       E                     dE             d eps       ncg     rms          rms(c)
DAV:   1    -0.823001076939E+03    0.85996E-05   -0.24537E-03  4380   0.105E-01    0.114E-02
DAV:   2    -0.823001082304E+03   -0.53651E-05   -0.70170E-05  5000   0.164E-02    0.936E-03
DAV:   3    -0.823001081557E+03    0.74723E-06   -0.25734E-06  3960   0.342E-03
  39 F= -.83054312E+03 E0= -.83054312E+03  d E =-.591704E-05  mag=    -0.0000
       N       E                     dE             d eps       ncg     rms          rms(c)
DAV:   1    -0.823001082006E+03    0.29828E-06   -0.24222E-03  4380   0.104E-01    0.114E-02
DAV:   2    -0.823001087388E+03   -0.53820E-05   -0.70079E-05  4960   0.164E-02    0.937E-03
DAV:   3    -0.823001086712E+03    0.67541E-06   -0.24926E-06  3940   0.339E-03
  40 F= -.83054312E+03 E0= -.83054312E+03  d E =-.452848E-05  mag=    -0.0000
       N       E                     dE             d eps       ncg     rms          rms(c)
DAV:   1    -0.823001078297E+03    0.90906E-05   -0.24137E-03  4370   0.104E-01    0.114E-02
DAV:   2    -0.823001083648E+03   -0.53512E-05   -0.69374E-05  4980   0.162E-02    0.936E-03
DAV:   3    -0.823001082939E+03    0.70895E-06   -0.24060E-06  3820   0.333E-03
  41 F= -.83054312E+03 E0= -.83054312E+03  d E =-.423098E-05  mag=    -0.0000
       N       E                     dE             d eps       ncg     rms          rms(c)
DAV:   1    -0.823001079824E+03    0.38241E-05   -0.24326E-03  4370   0.105E-01    0.115E-02
DAV:   2    -0.823001085071E+03   -0.52469E-05   -0.68997E-05  4980   0.163E-02    0.952E-03
DAV:   3    -0.823001084324E+03    0.74751E-06   -0.26040E-06  3880   0.341E-03
  42 F= -.83054313E+03 E0= -.83054313E+03  d E =-.136179E-05  mag=    -0.0000
       N       E                     dE             d eps       ncg     rms          rms(c)
DAV:   1    -0.823001075331E+03    0.97403E-05   -0.23394E-03  4360   0.103E-01    0.112E-02
DAV:   2    -0.823001080533E+03   -0.52020E-05   -0.67285E-05  5040   0.160E-02    0.925E-03
DAV:   3    -0.823001079791E+03    0.74173E-06   -0.24039E-06  3680   0.330E-03
  43 F= -.83054313E+03 E0= -.83054313E+03  d E =-.454873E-05  mag=    -0.0000
       N       E                     dE             d eps       ncg     rms          rms(c)
DAV:   1    -0.823001078978E+03    0.15548E-05   -0.22150E-03  4250   0.999E-02    0.109E-02
DAV:   2    -0.823001083875E+03   -0.48971E-05   -0.63183E-05  5100   0.155E-02    0.904E-03
DAV:   3    -0.823001083201E+03    0.67406E-06   -0.22259E-06  3500   0.317E-03
  44 F= -.83054313E+03 E0= -.83054313E+03  d E =-.249783E-05  mag=    -0.0000
       N       E                     dE             d eps       ncg     rms          rms(c)
DAV:   1    -0.823001071307E+03    0.12568E-04   -0.21898E-03  4290   0.988E-02    0.110E-02
DAV:   2    -0.823001076006E+03   -0.46990E-05   -0.61079E-05  5100   0.152E-02    0.912E-03
DAV:   3    -0.823001075300E+03    0.70601E-06   -0.21960E-06  3480   0.313E-03
  45 F= -.83054313E+03 E0= -.83054313E+03  d E =-.101572E-05  mag=    -0.0000
       N       E                     dE             d eps       ncg     rms          rms(c)
DAV:   1    -0.823001073324E+03    0.26823E-05   -0.22515E-03  4290   0.100E-01    0.112E-02
DAV:   2    -0.823001078211E+03   -0.48874E-05   -0.63899E-05  5140   0.155E-02    0.926E-03
DAV:   3    -0.823001077451E+03    0.76006E-06   -0.23413E-06  3560   0.322E-03
  46 F= -.83054314E+03 E0= -.83054313E+03  d E =-.833410E-06  mag=    -0.0000
       N       E                     dE             d eps       ncg     rms          rms(c)
DAV:   1    -0.823001067288E+03    0.10924E-04   -0.21694E-03  4290   0.984E-02    0.108E-02
DAV:   2    -0.823001072044E+03   -0.47560E-05   -0.61749E-05  5080   0.152E-02    0.898E-03
DAV:   3    -0.823001071328E+03    0.71614E-06   -0.21954E-06  3560   0.311E-03
  47 F= -.83054314E+03 E0= -.83054314E+03  d E =-.147085E-05  mag=    -0.0000
       N       E                     dE             d eps       ncg     rms          rms(c)
DAV:   1    -0.823001068429E+03    0.36144E-05   -0.20249E-03  4290   0.952E-02    0.105E-02
DAV:   2    -0.823001072888E+03   -0.44585E-05   -0.57661E-05  5100   0.147E-02    0.871E-03
DAV:   3    -0.823001072226E+03    0.66150E-06   -0.19943E-06  3420   0.301E-03
  48 F= -.83054314E+03 E0= -.83054314E+03  d E =-.525754E-06  mag=    -0.0000
       N       E                     dE             d eps       ncg     rms          rms(c)
DAV:   1    -0.823001060192E+03    0.12696E-04   -0.21711E-03  4240   0.985E-02    0.107E-02
DAV:   2    -0.823001064908E+03   -0.47154E-05   -0.60674E-05  5060   0.151E-02    0.886E-03
DAV:   3    -0.823001064228E+03    0.67946E-06   -0.20185E-06  3500   0.302E-03
  49 F= -.83054314E+03 E0= -.83054314E+03  d E =0.266100E-06  mag=    -0.0000
       N       E                     dE             d eps       ncg     rms          rms(c)
DAV:   1    -0.823001058693E+03    0.62146E-05   -0.23607E-03  4240   0.103E-01    0.112E-02
DAV:   2    -0.823001063661E+03   -0.49676E-05   -0.65145E-05  5120   0.157E-02    0.928E-03
DAV:   3    -0.823001062904E+03    0.75690E-06   -0.23342E-06  3620   0.320E-03
  50 F= -.83054313E+03 E0= -.83054313E+03  d E =0.183161E-05  mag=    -0.0000
       N       E                     dE             d eps       ncg     rms          rms(c)
DAV:   1    -0.823001051951E+03    0.11710E-04   -0.21208E-03  4240   0.973E-02    0.106E-02
DAV:   2    -0.823001056277E+03   -0.43263E-05   -0.57396E-05  5160   0.147E-02    0.891E-03
DAV:   3    -0.823001055529E+03    0.74852E-06   -0.22197E-06  3540   0.309E-03
  51 F= -.83054314E+03 E0= -.83054313E+03  d E =-.292748E-06  mag=    -0.0000
       N       E                     dE             d eps       ncg     rms          rms(c)
DAV:   1    -0.823001052666E+03    0.36117E-05   -0.18986E-03  4240   0.918E-02    0.994E-03
DAV:   2    -0.823001056539E+03   -0.38740E-05   -0.51262E-05  5180   0.139E-02    0.836E-03
DAV:   3    -0.823001055905E+03    0.63439E-06   -0.19260E-06  3240   0.291E-03
  52 F= -.83054314E+03 E0= -.83054313E+03  d E =-.172392E-06  mag=    -0.0000
       N       E                     dE             d eps       ncg     rms          rms(c)
DAV:   1    -0.823001043145E+03    0.13395E-04   -0.19472E-03  4240   0.929E-02    0.101E-02
DAV:   2    -0.823001047106E+03   -0.39612E-05   -0.51980E-05  5120   0.139E-02    0.847E-03
DAV:   3    -0.823001046471E+03    0.63485E-06   -0.18366E-06  3240   0.285E-03
  53 F= -.83054313E+03 E0= -.83054313E+03  d E =0.220139E-05  mag=    -0.0000
       N       E                     dE             d eps       ncg     rms          rms(c)
DAV:   1    -0.823001038771E+03    0.83356E-05   -0.23417E-03  4240   0.102E-01    0.112E-02
DAV:   2    -0.823001043537E+03   -0.47667E-05   -0.63274E-05  5160   0.154E-02    0.930E-03
DAV:   3    -0.823001042752E+03    0.78478E-06   -0.23857E-06  3580   0.322E-03
  54 F= -.83054313E+03 E0= -.83054313E+03  d E =0.380163E-05  mag=    -0.0000
       N       E                     dE             d eps       ncg     rms          rms(c)
DAV:   1    -0.823001031422E+03    0.12115E-04   -0.22663E-03  4240   0.101E-01    0.108E-02
DAV:   2    -0.823001036226E+03   -0.48040E-05   -0.62416E-05  5180   0.153E-02    0.900E-03
DAV:   3    -0.823001035489E+03    0.73737E-06   -0.22300E-06  3500   0.309E-03
  55 F= -.83054313E+03 E0= -.83054313E+03  d E =-.103783E-06  mag=    -0.0000
       N       E                     dE             d eps       ncg     rms          rms(c)
DAV:   1    -0.823001031879E+03    0.43475E-05   -0.18582E-03  4240   0.907E-02    0.992E-03
DAV:   2    -0.823001035675E+03   -0.37956E-05   -0.50388E-05  5220   0.138E-02    0.834E-03
DAV:   3    -0.823001035049E+03    0.62508E-06   -0.18939E-06  3200   0.289E-03
  56 F= -.83054313E+03 E0= -.83054313E+03  d E =0.517864E-06  mag=    -0.0000
       N       E                     dE             d eps       ncg     rms          rms(c)
DAV:   1    -0.823001021141E+03    0.14534E-04   -0.19205E-03  4240   0.923E-02    0.101E-02
DAV:   2    -0.823001025112E+03   -0.39708E-05   -0.51801E-05  5140   0.139E-02    0.846E-03
DAV:   3    -0.823001024492E+03    0.61965E-06   -0.18158E-06  3220   0.284E-03
  57 F= -.83054313E+03 E0= -.83054312E+03  d E =0.364848E-05  mag=    -0.0000
       N       E                     dE             d eps       ncg     rms          rms(c)
DAV:   1    -0.823001015893E+03    0.92189E-05   -0.22919E-03  4240   0.101E-01    0.110E-02
DAV:   2    -0.823001020560E+03   -0.46669E-05   -0.61850E-05  5180   0.152E-02    0.919E-03
DAV:   3    -0.823001019821E+03    0.73851E-06   -0.22935E-06  3500   0.315E-03
  58 F= -.83054312E+03 E0= -.83054312E+03  d E =0.484375E-05  mag=    -0.0000
       N       E                     dE             d eps       ncg     rms          rms(c)
DAV:   1    -0.823001004672E+03    0.15888E-04   -0.22348E-03  4240   0.100E-01    0.107E-02
DAV:   2    -0.823001009379E+03   -0.47074E-05   -0.61336E-05  5180   0.151E-02    0.892E-03
DAV:   3    -0.823001008653E+03    0.72601E-06   -0.22134E-06  3480   0.308E-03
  59 F= -.83054312E+03 E0= -.83054312E+03  d E =0.188520E-05  mag=    -0.0000
       N       E                     dE             d eps       ncg     rms          rms(c)
DAV:   1    -0.823001006675E+03    0.27041E-05   -0.19262E-03  4240   0.926E-02    0.991E-03
DAV:   2    -0.823001010662E+03   -0.39865E-05   -0.52292E-05  5180   0.140E-02    0.826E-03
DAV:   3    -0.823001010061E+03    0.60108E-06   -0.18538E-06  3260   0.287E-03
  60 F= -.83054312E+03 E0= -.83054312E+03  d E =0.306710E-06  mag=    -0.0000
       N       E                     dE             d eps       ncg     rms          rms(c)
DAV:   1    -0.823000992963E+03    0.17698E-04   -0.20229E-03  4240   0.946E-02    0.101E-02
DAV:   2    -0.823000997211E+03   -0.42477E-05   -0.54235E-05  5160   0.141E-02    0.840E-03
DAV:   3    -0.823000996634E+03    0.57753E-06   -0.17017E-06  3160   0.275E-03
  61 F= -.83054311E+03 E0= -.83054311E+03  d E =0.485664E-05  mag=    -0.0000
       N       E                     dE             d eps       ncg     rms          rms(c)
DAV:   1    -0.823000987105E+03    0.10106E-04   -0.23278E-03  4240   0.102E-01    0.113E-02
DAV:   2    -0.823000991728E+03   -0.46235E-05   -0.61932E-05  5240   0.152E-02    0.936E-03
DAV:   3    -0.823000990938E+03    0.79002E-06   -0.23247E-06  3540   0.316E-03
  62 F= -.83054311E+03 E0= -.83054311E+03  d E =0.659906E-05  mag=    -0.0000
       N       E                     dE             d eps       ncg     rms          rms(c)
DAV:   1    -0.823000976616E+03    0.15112E-04   -0.21673E-03  4240   0.981E-02    0.105E-02
DAV:   2    -0.823000981059E+03   -0.44430E-05   -0.58595E-05  5240   0.148E-02    0.883E-03
DAV:   3    -0.823000980321E+03    0.73833E-06   -0.21423E-06  3430   0.300E-03
  63 F= -.83054311E+03 E0= -.83054310E+03  d E =0.151130E-05  mag=    -0.0000
       N       E                     dE             d eps       ncg     rms          rms(c)
DAV:   1    -0.823000975940E+03    0.51187E-05   -0.18288E-03  4240   0.900E-02    0.967E-03
DAV:   2    -0.823000979744E+03   -0.38035E-05   -0.49429E-05  5160   0.135E-02    0.808E-03
DAV:   3    -0.823000979181E+03    0.56274E-06   -0.16637E-06  3120   0.271E-03
  64 F= -.83054310E+03 E0= -.83054310E+03  d E =0.211526E-05  mag=    -0.0000
       N       E                     dE             d eps       ncg     rms          rms(c)
DAV:   1    -0.823000960244E+03    0.19500E-04   -0.19109E-03  4240   0.920E-02    0.998E-03
DAV:   2    -0.823000964043E+03   -0.37985E-05   -0.49974E-05  5120   0.136E-02    0.838E-03
DAV:   3    -0.823000963436E+03    0.60700E-06   -0.17152E-06  3220   0.275E-03
  65 F= -.83054310E+03 E0= -.83054310E+03  d E =0.707577E-05  mag=    -0.0000
       N       E                     dE             d eps       ncg     rms          rms(c)
DAV:   1    -0.823000955876E+03    0.81668E-05   -0.22813E-03  4240   0.100E-01    0.109E-02
DAV:   2    -0.823000960424E+03   -0.45487E-05   -0.60392E-05  5180   0.150E-02    0.912E-03
DAV:   3    -0.823000959657E+03    0.76707E-06   -0.21925E-06  3560   0.305E-03
  66 F= -.83054309E+03 E0= -.83054309E+03  d E =0.562689E-05  mag=    -0.0000
       N       E                     dE             d eps       ncg     rms          rms(c)
DAV:   1    -0.823000942986E+03    0.17439E-04   -0.20651E-03  4240   0.959E-02    0.103E-02
DAV:   2    -0.823000947281E+03   -0.42951E-05   -0.56125E-05  5220   0.144E-02    0.860E-03
DAV:   3    -0.823000946599E+03    0.68200E-06   -0.19858E-06  3380   0.291E-03
  67 F= -.83054309E+03 E0= -.83054309E+03  d E =0.342141E-05  mag=    -0.0000
       N       E                     dE             d eps       ncg     rms          rms(c)
DAV:   1    -0.823000942590E+03    0.46907E-05   -0.18142E-03  4240   0.898E-02    0.965E-03
DAV:   2    -0.823000946372E+03   -0.37816E-05   -0.49245E-05  5180   0.135E-02    0.802E-03
DAV:   3    -0.823000945823E+03    0.54899E-06   -0.16458E-06  3160   0.271E-03
  68 F= -.83054308E+03 E0= -.83054308E+03  d E =0.254204E-05  mag=    -0.0000
       N       E                     dE             d eps       ncg     rms          rms(c)
DAV:   1    -0.823000924923E+03    0.21448E-04   -0.20447E-03  4240   0.951E-02    0.102E-02
DAV:   2    -0.823000929174E+03   -0.42503E-05   -0.54901E-05  5080   0.142E-02    0.838E-03
DAV:   3    -0.823000928608E+03    0.56544E-06   -0.17072E-06  3260   0.275E-03
  69 F= -.83054308E+03 E0= -.83054308E+03  d E =0.739694E-05  mag=    -0.0000
       N       E                     dE             d eps       ncg     rms          rms(c)
DAV:   1    -0.823000920765E+03    0.84084E-05   -0.23717E-03  4240   0.103E-01    0.111E-02
DAV:   2    -0.823000925752E+03   -0.49866E-05   -0.64795E-05  5120   0.155E-02    0.908E-03
DAV:   3    -0.823000925044E+03    0.70732E-06   -0.21233E-06  3540   0.305E-03
  70 F= -.83054307E+03 E0= -.83054307E+03  d E =0.632899E-05  mag=    -0.0000
       N       E                     dE             d eps       ncg     rms          rms(c)
DAV:   1    -0.823000906638E+03    0.19113E-04   -0.21778E-03  4240   0.987E-02    0.104E-02
DAV:   2    -0.823000911264E+03   -0.46254E-05   -0.59974E-05  5180   0.149E-02    0.863E-03
DAV:   3    -0.823000910590E+03    0.67413E-06   -0.19942E-06  3360   0.292E-03
  71 F= -.83054307E+03 E0= -.83054307E+03  d E =0.368746E-05  mag=    -0.0000
       N       E                     dE             d eps       ncg     rms          rms(c)
DAV:   1    -0.823000906466E+03    0.47975E-05   -0.19714E-03  4240   0.936E-02    0.986E-03
DAV:   2    -0.823000910783E+03   -0.43168E-05   -0.54685E-05  5120   0.141E-02    0.809E-03
DAV:   3    -0.823000910254E+03    0.52961E-06   -0.16145E-06  3140   0.270E-03
  72 F= -.83054306E+03 E0= -.83054306E+03  d E =0.297555E-05  mag=    -0.0000
       N       E                     dE             d eps       ncg     rms          rms(c)
DAV:   1    -0.823000888623E+03    0.22160E-04   -0.17450E-03  4240   0.876E-02    0.957E-03
DAV:   2    -0.823000892022E+03   -0.33989E-05   -0.45520E-05  5080   0.130E-02    0.807E-03
DAV:   3    -0.823000891461E+03    0.56049E-06   -0.15652E-06  3140   0.265E-03
  73 F= -.83054306E+03 E0= -.83054305E+03  d E =0.853171E-05  mag=    -0.0000
       N       E                     dE             d eps       ncg     rms          rms(c)
DAV:   1    -0.823000883417E+03    0.86049E-05   -0.19001E-03  4240   0.918E-02    0.991E-03
DAV:   2    -0.823000887075E+03   -0.36585E-05   -0.49487E-05  5160   0.136E-02    0.842E-03
DAV:   3    -0.823000886407E+03    0.66840E-06   -0.17864E-06  3200   0.282E-03
  74 F= -.83054305E+03 E0= -.83054305E+03  d E =0.826188E-05  mag=    -0.0000
       N       E                     dE             d eps       ncg     rms          rms(c)
DAV:   1    -0.823000867385E+03    0.19690E-04   -0.18140E-03  4240   0.898E-02    0.951E-03
DAV:   2    -0.823000870961E+03   -0.35757E-05   -0.48051E-05  5180   0.133E-02    0.807E-03
DAV:   3    -0.823000870331E+03    0.62949E-06   -0.16766E-06  3160   0.273E-03
  75 F= -.83054304E+03 E0= -.83054304E+03  d E =0.636361E-05  mag=    -0.0000
       N       E                     dE             d eps       ncg     rms          rms(c)
DAV:   1    -0.823000865039E+03    0.59222E-05   -0.15970E-03  4240   0.841E-02    0.906E-03
DAV:   2    -0.823000868147E+03   -0.31085E-05   -0.41734E-05  5160   0.124E-02    0.772E-03
DAV:   3    -0.823000867602E+03    0.54477E-06   -0.14186E-06  2980   0.258E-03
  76 F= -.83054303E+03 E0= -.83054303E+03  d E =0.602094E-05  mag=    -0.0000
       N       E                     dE             d eps       ncg     rms          rms(c)
DAV:   1    -0.823000848433E+03    0.19715E-04   -0.16517E-03  4240   0.854E-02    0.924E-03
DAV:   2    -0.823000851542E+03   -0.31097E-05   -0.42239E-05  5080   0.125E-02    0.788E-03
DAV:   3    -0.823000850968E+03    0.57465E-06   -0.14685E-06  3020   0.259E-03
  77 F= -.83054303E+03 E0= -.83054302E+03  d E =0.910220E-05  mag=    -0.0000
       N       E                     dE             d eps       ncg     rms          rms(c)
DAV:   1    -0.823000840854E+03    0.10689E-04   -0.18871E-03  4240   0.914E-02    0.981E-03
DAV:   2    -0.823000844457E+03   -0.36033E-05   -0.48854E-05  5140   0.135E-02    0.837E-03
DAV:   3    -0.823000843796E+03    0.66078E-06   -0.17617E-06  3190   0.281E-03
  78 F= -.83054302E+03 E0= -.83054302E+03  d E =0.945599E-05  mag=    -0.0000
       N       E                     dE             d eps       ncg     rms          rms(c)
DAV:   1    -0.823000826600E+03    0.17857E-04   -0.18278E-03  4240   0.902E-02    0.956E-03
DAV:   2    -0.823000830149E+03   -0.35492E-05   -0.47858E-05  5160   0.133E-02    0.816E-03
DAV:   3    -0.823000829503E+03    0.64584E-06   -0.16771E-06  3050   0.274E-03
  79 F= -.83054301E+03 E0= -.83054301E+03  d E =0.735257E-05  mag=    -0.0000
       N       E                     dE             d eps       ncg     rms          rms(c)
DAV:   1    -0.823000821901E+03    0.82483E-05   -0.15084E-03  4240   0.814E-02    0.880E-03
DAV:   2    -0.823000824730E+03   -0.28290E-05   -0.38894E-05  5180   0.120E-02    0.760E-03
DAV:   3    -0.823000824152E+03    0.57785E-06   -0.14255E-06  2990   0.255E-03
  80 F= -.83054300E+03 E0= -.83054300E+03  d E =0.666148E-05  mag=    -0.0000
       N       E                     dE             d eps       ncg     rms          rms(c)
DAV:   1    -0.823000806493E+03    0.18237E-04   -0.14525E-03  4240   0.800E-02    0.866E-03
DAV:   2    -0.823000809168E+03   -0.26754E-05   -0.36869E-05  5120   0.117E-02    0.748E-03
DAV:   3    -0.823000808625E+03    0.54346E-06   -0.13633E-06  2960   0.250E-03
  81 F= -.83054299E+03 E0= -.83054299E+03  d E =0.951806E-05  mag=    -0.0000
       N       E                     dE             d eps       ncg     rms          rms(c)
DAV:   1    -0.823000796146E+03    0.13022E-04   -0.17040E-03  4240   0.862E-02    0.933E-03
DAV:   2    -0.823000799235E+03   -0.30884E-05   -0.42763E-05  5140   0.125E-02    0.807E-03
DAV:   3    -0.823000798590E+03    0.64466E-06   -0.16043E-06  3200   0.269E-03
  82 F= -.83054298E+03 E0= -.83054298E+03  d E =0.108932E-04  mag=    -0.0000
       N       E                     dE             d eps       ncg     rms          rms(c)
DAV:   1    -0.823000782186E+03    0.17049E-04   -0.15842E-03  4240   0.838E-02    0.895E-03
DAV:   2    -0.823000785133E+03   -0.29471E-05   -0.40810E-05  5180   0.123E-02    0.776E-03
DAV:   3    -0.823000784508E+03    0.62503E-06   -0.16006E-06  3070   0.266E-03
  83 F= -.83054297E+03 E0= -.83054297E+03  d E =0.811212E-05  mag=    -0.0000
       N       E                     dE             d eps       ncg     rms          rms(c)
DAV:   1    -0.823000774783E+03    0.10351E-04   -0.14638E-03  4240   0.806E-02    0.848E-03
DAV:   2    -0.823000777653E+03   -0.28703E-05   -0.38312E-05  5120   0.119E-02    0.731E-03
DAV:   3    -0.823000777130E+03    0.52284E-06   -0.13054E-06  2900   0.246E-03
  84 F= -.83054297E+03 E0= -.83054296E+03  d E =0.805642E-05  mag=    -0.0000
       N       E                     dE             d eps       ncg     rms          rms(c)
DAV:   1    -0.823000757640E+03    0.20013E-04   -0.14846E-03  4240   0.811E-02    0.869E-03
DAV:   2    -0.823000760418E+03   -0.27777E-05   -0.37846E-05  5080   0.119E-02    0.748E-03
DAV:   3    -0.823000759881E+03    0.53697E-06   -0.13199E-06  2970   0.248E-03
  85 F= -.83054295E+03 E0= -.83054295E+03  d E =0.110904E-04  mag=    -0.0000
       N       E                     dE             d eps       ncg     rms          rms(c)
DAV:   1    -0.823000746656E+03    0.13762E-04   -0.16635E-03  4240   0.860E-02    0.908E-03
DAV:   2    -0.823000749803E+03   -0.31479E-05   -0.42727E-05  5080   0.126E-02    0.788E-03
DAV:   3    -0.823000749186E+03    0.61728E-06   -0.16098E-06  3250   0.267E-03
  86 F= -.83054294E+03 E0= -.83054294E+03  d E =0.113250E-04  mag=    -0.0000
       N       E                     dE             d eps       ncg     rms          rms(c)
DAV:   1    -0.823000732986E+03    0.16818E-04   -0.15688E-03  4240   0.836E-02    0.873E-03
DAV:   2    -0.823000735992E+03   -0.30065E-05   -0.40742E-05  5140   0.123E-02    0.757E-03
DAV:   3    -0.823000735420E+03    0.57249E-06   -0.14656E-06  3000   0.257E-03
  87 F= -.83054294E+03 E0= -.83054293E+03  d E =0.825622E-05  mag=    -0.0000
       N       E                     dE             d eps       ncg     rms          rms(c)
DAV:   1    -0.823000724172E+03    0.11820E-04   -0.13873E-03  4240   0.787E-02    0.825E-03
DAV:   2    -0.823000726877E+03   -0.27058E-05   -0.36118E-05  5100   0.116E-02    0.710E-03
DAV:   3    -0.823000726394E+03    0.48388E-06   -0.12465E-06  2940   0.241E-03
  88 F= -.83054293E+03 E0= -.83054293E+03  d E =0.884417E-05  mag=    -0.0000
       N       E                     dE             d eps       ncg     rms          rms(c)
DAV:   1    -0.823000706764E+03    0.20113E-04   -0.15005E-03  4240   0.818E-02    0.860E-03
DAV:   2    -0.823000709653E+03   -0.28888E-05   -0.38833E-05  5080   0.120E-02    0.740E-03
DAV:   3    -0.823000709149E+03    0.50371E-06   -0.13416E-06  2960   0.250E-03
  89 F= -.83054291E+03 E0= -.83054291E+03  d E =0.119854E-04  mag=    -0.0000
       N       E                     dE             d eps       ncg     rms          rms(c)
DAV:   1    -0.823000694861E+03    0.14792E-04   -0.16589E-03  4240   0.861E-02    0.899E-03
DAV:   2    -0.823000698100E+03   -0.32389E-05   -0.43279E-05  5060   0.127E-02    0.772E-03
DAV:   3    -0.823000697551E+03    0.54937E-06   -0.15227E-06  3060   0.264E-03
  90 F= -.83054290E+03 E0= -.83054290E+03  d E =0.108170E-04  mag=    -0.0000
       N       E                     dE             d eps       ncg     rms          rms(c)
DAV:   1    -0.823000679800E+03    0.18300E-04   -0.15784E-03  4240   0.841E-02    0.875E-03
DAV:   2    -0.823000682909E+03   -0.31096E-05   -0.41566E-05  5100   0.125E-02    0.750E-03
DAV:   3    -0.823000682379E+03    0.52978E-06   -0.14144E-06  2920   0.255E-03
  91 F= -.83054289E+03 E0= -.83054289E+03  d E =0.944284E-05  mag=    -0.0000
       N       E                     dE             d eps       ncg     rms          rms(c)
DAV:   1    -0.823000670250E+03    0.12660E-04   -0.14689E-03  4240   0.812E-02    0.842E-03
DAV:   2    -0.823000673200E+03   -0.29502E-05   -0.38919E-05  5040   0.121E-02    0.718E-03
DAV:   3    -0.823000672736E+03    0.46392E-06   -0.12787E-06  2900   0.245E-03
  92 F= -.83054288E+03 E0= -.83054288E+03  d E =0.950962E-05  mag=    -0.0000
       N       E                     dE             d eps       ncg     rms          rms(c)
DAV:   1    -0.823000651419E+03    0.21781E-04   -0.15462E-03  4240   0.833E-02    0.860E-03
DAV:   2    -0.823000654533E+03   -0.31145E-05   -0.40831E-05  4970   0.123E-02    0.732E-03
DAV:   3    -0.823000654078E+03    0.45577E-06   -0.12755E-06  2990   0.245E-03
  93 F= -.83054287E+03 E0= -.83054287E+03  d E =0.124733E-04  mag=    -0.0000
       N       E                     dE             d eps       ncg     rms          rms(c)
DAV:   1    -0.823000639272E+03    0.15261E-04   -0.17768E-03  4240   0.893E-02    0.915E-03
DAV:   2    -0.823000642858E+03   -0.35860E-05   -0.46986E-05  5060   0.132E-02    0.781E-03
DAV:   3    -0.823000642308E+03    0.55008E-06   -0.15395E-06  3100   0.265E-03
  94 F= -.83054286E+03 E0= -.83054286E+03  d E =0.121168E-04  mag=    -0.0000
       N       E                     dE             d eps       ncg     rms          rms(c)
DAV:   1    -0.823000624435E+03    0.18424E-04   -0.16705E-03  4240   0.867E-02    0.887E-03
DAV:   2    -0.823000627877E+03   -0.34423E-05   -0.44984E-05  5080   0.129E-02    0.754E-03
DAV:   3    -0.823000627349E+03    0.52746E-06   -0.14139E-06  2950   0.257E-03
  95 F= -.83054285E+03 E0= -.83054285E+03  d E =0.893318E-05  mag=    -0.0000
       N       E                     dE             d eps       ncg     rms          rms(c)
DAV:   1    -0.823000614413E+03    0.13464E-04   -0.15256E-03  4240   0.828E-02    0.844E-03
DAV:   2    -0.823000617577E+03   -0.31637E-05   -0.40858E-05  5020   0.123E-02    0.715E-03
DAV:   3    -0.823000617123E+03    0.45413E-06   -0.12544E-06  2900   0.243E-03
  96 F= -.83054284E+03 E0= -.83054284E+03  d E =0.105646E-04  mag=    -0.0000
       N       E                     dE             d eps       ncg     rms          rms(c)
DAV:   1    -0.823000596060E+03    0.21517E-04   -0.14990E-03  4240   0.821E-02    0.853E-03
DAV:   2    -0.823000599126E+03   -0.30659E-05   -0.39966E-05  5020   0.122E-02    0.725E-03
DAV:   3    -0.823000598679E+03    0.44635E-06   -0.12911E-06  2960   0.245E-03
  97 F= -.83054283E+03 E0= -.83054283E+03  d E =0.124367E-04  mag=    -0.0000
       N       E                     dE             d eps       ncg     rms          rms(c)
DAV:   1    -0.823000584341E+03    0.14785E-04   -0.16196E-03  4240   0.853E-02    0.884E-03
DAV:   2    -0.823000587586E+03   -0.32452E-05   -0.42705E-05  5060   0.126E-02    0.756E-03
DAV:   3    -0.823000587072E+03    0.51421E-06   -0.14543E-06  3060   0.255E-03
  98 F= -.83054282E+03 E0= -.83054281E+03  d E =0.126670E-04  mag=    -0.0000
       N       E                     dE             d eps       ncg     rms          rms(c)
DAV:   1    -0.823000569314E+03    0.18271E-04   -0.15383E-03  4240   0.832E-02    0.862E-03
DAV:   2    -0.823000572433E+03   -0.31183E-05   -0.41049E-05  5160   0.124E-02    0.737E-03
DAV:   3    -0.823000571935E+03    0.49727E-06   -0.13306E-06  2840   0.249E-03
  99 F= -.83054281E+03 E0= -.83054280E+03  d E =0.100903E-04  mag=    -0.0000
