<?xml version="1.0" encoding="ISO-8859-1"?>
<modeling>
 <generator>
  <i name="program" type="string">vasp </i>
  <i name="version" type="string">6.4.2  </i>
  <i name="subversion" type="string">20Jul23 (build Jan 24 2024 13:44:02) complex                          parallel </i>
  <i name="platform" type="string">LinuxNV </i>
  <i name="date" type="string">2025 11 16 </i>
  <i name="time" type="string">23:47:19 </i>
 </generator>
 <incar>
  <i type="int" name="ISTART">     0</i>
  <i type="string" name="ALGO">Normal</i>
  <i type="logical" name="ADDGRID"> T  </i>
  <i type="int" name="ISPIN">     2</i>
  <i type="int" name="IMIX">     4</i>
  <i name="AMIX">      0.20000000</i>
  <i name="BMIX">      0.00010000</i>
  <i name="AMIX_MAG">      0.80000000</i>
  <i name="BMIX_MAG">      0.00010000</i>
  <i type="int" name="ICHARG">     2</i>
  <i type="int" name="NELM">   200</i>
  <i type="int" name="IBRION">     3</i>
  <i name="EDIFF">      0.00000100</i>
  <i name="EDIFFG">     -0.03000000</i>
  <i type="int" name="NSW">   300</i>
  <i type="int" name="ISIF">     2</i>
  <i type="int" name="ISYM">     0</i>
  <i name="ENCUT">    520.00000000</i>
  <i name="POTIM">      0.10000000</i>
  <v name="MAGMOM">      0.60000000      0.60000000      0.60000000      0.60000000      0.60000000      0.60000000      0.60000000      0.60000000      0.60000000      0.60000000      0.60000000      0.60000000      0.60000000      0.60000000      0.60000000      0.60000000      0.60000000      0.60000000      0.60000000      0.60000000
      0.60000000      0.60000000      0.60000000      0.60000000      0.60000000      0.60000000      0.60000000      0.60000000      0.60000000      0.60000000      0.60000000      0.60000000      0.60000000      0.60000000      0.60000000      0.60000000      0.60000000      0.60000000      0.60000000      0.60000000
      0.60000000      0.60000000      0.60000000      0.60000000      0.60000000      0.60000000      0.60000000      0.60000000      0.60000000      0.60000000      0.60000000      0.60000000      0.60000000      0.60000000      0.60000000      0.60000000      0.60000000      0.60000000      0.60000000      0.60000000
      0.60000000      0.60000000      0.60000000      0.60000000      0.60000000      0.60000000      0.60000000      0.60000000      0.60000000      0.60000000      0.60000000      0.60000000      0.60000000      0.60000000      0.60000000      0.60000000      0.60000000      0.60000000      0.60000000      0.60000000
      0.60000000      0.60000000      0.60000000      0.60000000      0.60000000      0.60000000      0.60000000      0.60000000      0.60000000      0.60000000      0.60000000      0.60000000      0.60000000</v>
  <i type="string" name="LREAL">Auto</i>
  <i type="int" name="ISMEAR">     0</i>
  <i name="SIGMA">      0.05000000</i>
  <i type="logical" name="LWAVE"> F  </i>
  <i type="logical" name="LCHARG"> F  </i>
  <i type="logical" name="LASPH"> T  </i>
  <i type="int" name="IVDW">    12</i>
  <i name="SPRING">     -5.00000000</i>
 </incar>
 <primitive_cell>
  <structure name="primitive_cell" >
   <crystal>
    <varray name="basis" >
     <v>      17.27103806       0.00000000       0.00000000 </v>
     <v>      -8.63551903      14.95715771       0.00000000 </v>
     <v>       0.00000000       0.00000000      15.00000000 </v>
    </varray>
    <i name="volume">   3874.88459904 </i>
    <varray name="rec_basis" >
     <v>       0.05790040       0.03342881      -0.00000000 </v>
     <v>       0.00000000       0.06685762       0.00000000 </v>
     <v>       0.00000000      -0.00000000       0.06666667 </v>
    </varray>
   </crystal>
   <varray name="positions" >
    <v>       0.99879134       0.00155880       0.49622060 </v>
    <v>       0.99902407       0.14460590       0.49626016 </v>
    <v>       0.99990638       0.28828909       0.49637428 </v>
    <v>       0.00048698       0.43139626       0.49581916 </v>
    <v>       0.00092708       0.57419419       0.49523001 </v>
    <v>       0.00124614       0.71712488       0.49542449 </v>
    <v>       0.99974048       0.85963019       0.49593759 </v>
    <v>       0.14305670       0.00316502       0.49692579 </v>
    <v>       0.14262361       0.14538537       0.49666652 </v>
    <v>       0.14210152       0.28723146       0.49658470 </v>
    <v>       0.14385378       0.43143692       0.49620001 </v>
    <v>       0.14485294       0.57417422       0.49563907 </v>
    <v>       0.14426634       0.71711638       0.49556072 </v>
    <v>       0.14340001       0.86024480       0.49637113 </v>
    <v>       0.28615210       0.00347868       0.49652035 </v>
    <v>       0.28654105       0.14690481       0.49667149 </v>
    <v>       0.28727807       0.29211364       0.49571691 </v>
    <v>       0.28501585       0.42637210       0.49552485 </v>
    <v>       0.29016468       0.57437974       0.49482228 </v>
    <v>       0.28761839       0.71777769       0.49511734 </v>
    <v>       0.28641836       0.86064323       0.49575921 </v>
    <v>       0.42915394       0.00395815       0.49578773 </v>
    <v>       0.42916312       0.14779289       0.49577298 </v>
    <v>       0.42942338       0.86032243       0.49505947 </v>
    <v>       0.57138115       0.00339651       0.49548788 </v>
    <v>       0.57138626       0.14692770       0.49538999 </v>
    <v>       0.57360335       0.29381986       0.49404464 </v>
    <v>       0.57339900       0.85895306       0.49415640 </v>
    <v>       0.71353934       0.00245220       0.49504201 </v>
    <v>       0.71413130       0.14614567       0.49566660 </v>
    <v>       0.71387777       0.28932207       0.49480684 </v>
    <v>       0.71020819       0.42939408       0.49293444 </v>
    <v>       0.70852841       0.85784157       0.49263637 </v>
    <v>       0.85566463       0.00141094       0.49507962 </v>
    <v>       0.85653945       0.14528172       0.49584571 </v>
    <v>       0.85688551       0.28854840       0.49558925 </v>
    <v>       0.85705844       0.43152899       0.49467489 </v>
    <v>       0.85736666       0.57404553       0.49382666 </v>
    <v>       0.85817810       0.71639248       0.49331589 </v>
    <v>       0.85447847       0.85749078       0.49414027 </v>
    <v>       0.04696036       0.09718678       0.49645913 </v>
    <v>       0.04663452       0.23976414       0.49658892 </v>
    <v>       0.04807586       0.38380179       0.49627021 </v>
    <v>       0.04904943       0.52671822       0.49563821 </v>
    <v>       0.04881152       0.66955925       0.49546003 </v>
    <v>       0.04794344       0.81235161       0.49603405 </v>
    <v>       0.04735217       0.95480384       0.49651510 </v>
    <v>       0.19079533       0.09834510       0.49694723 </v>
    <v>       0.19066165       0.24068109       0.49638622 </v>
    <v>       0.18965368       0.38212674       0.49629658 </v>
    <v>       0.19327424       0.52695150       0.49571651 </v>
    <v>       0.19217128       0.66972391       0.49543256 </v>
    <v>       0.19132761       0.81270130       0.49591697 </v>
    <v>       0.19097356       0.95559876       0.49673207 </v>
    <v>       0.33395498       0.09927834       0.49644913 </v>
    <v>       0.33767618       0.24293310       0.49547192 </v>
    <v>       0.33930568       0.67331537       0.49463724 </v>
    <v>       0.33434627       0.81288361       0.49517832 </v>
    <v>       0.33374007       0.95592404       0.49603369 </v>
    <v>       0.47647078       0.09942592       0.49568883 </v>
    <v>       0.47408975       0.24400465       0.49461657 </v>
    <v>       0.47449163       0.80951946       0.49450986 </v>
    <v>       0.47653300       0.95595777       0.49543954 </v>
    <v>       0.61873423       0.09878684       0.49562825 </v>
    <v>       0.61866926       0.24266011       0.49480491 </v>
    <v>       0.61847365       0.95483519       0.49497383 </v>
    <v>       0.76143825       0.09815651       0.49565858 </v>
    <v>       0.76168385       0.24129151       0.49536629 </v>
    <v>       0.76124936       0.38438034       0.49416627 </v>
    <v>       0.76075988       0.52904167       0.49173290 </v>
    <v>       0.76285084       0.66505144       0.48961823 </v>
    <v>       0.75757979       0.80796678       0.49136687 </v>
    <v>       0.76020744       0.95401002       0.49430045 </v>
    <v>       0.90357458       0.09673882       0.49580100 </v>
    <v>       0.90444292       0.24074270       0.49600142 </v>
    <v>       0.90476826       0.38404006       0.49536686 </v>
    <v>       0.90530618       0.52675311       0.49468687 </v>
    <v>       0.90576306       0.66910865       0.49432970 </v>
    <v>       0.90399700       0.81148381       0.49456949 </v>
    <v>       0.90295919       0.95317290       0.49536774 </v>
    <v>       0.71536550       0.71387458       0.48695361 </v>
    <v>       0.33227781       0.52247781       0.49424077 </v>
    <v>       0.62726345       0.66540186       0.47948634 </v>
    <v>       0.42093056       0.56215892       0.49214107 </v>
    <v>       0.42766872       0.28789441       0.49375687 </v>
    <v>       0.42919107       0.71937872       0.49425082 </v>
    <v>       0.71688591       0.57431099       0.48832089 </v>
    <v>       0.33123294       0.38158706       0.49535214 </v>
    <v>       0.62007474       0.38429222       0.49305169 </v>
    <v>       0.61862881       0.81406108       0.49284371 </v>
    <v>       0.46207275       0.44428924       0.51844679 </v>
    <v>       0.55734965       0.45747182       0.51563402 </v>
    <v>       0.52402475       0.48656801       0.53488797 </v>
   </varray>
  </structure>
  <varray name="primitive_index" >
   <v type="int" >        1 </v>
   <v type="int" >        2 </v>
   <v type="int" >        3 </v>
   <v type="int" >        4 </v>
   <v type="int" >        5 </v>
   <v type="int" >        6 </v>
   <v type="int" >        7 </v>
   <v type="int" >        8 </v>
   <v type="int" >        9 </v>
   <v type="int" >       10 </v>
   <v type="int" >       11 </v>
   <v type="int" >       12 </v>
   <v type="int" >       13 </v>
   <v type="int" >       14 </v>
   <v type="int" >       15 </v>
   <v type="int" >       16 </v>
   <v type="int" >       17 </v>
   <v type="int" >       18 </v>
   <v type="int" >       19 </v>
   <v type="int" >       20 </v>
   <v type="int" >       21 </v>
   <v type="int" >       22 </v>
   <v type="int" >       23 </v>
   <v type="int" >       24 </v>
   <v type="int" >       25 </v>
   <v type="int" >       26 </v>
   <v type="int" >       27 </v>
   <v type="int" >       28 </v>
   <v type="int" >       29 </v>
   <v type="int" >       30 </v>
   <v type="int" >       31 </v>
   <v type="int" >       32 </v>
   <v type="int" >       33 </v>
   <v type="int" >       34 </v>
   <v type="int" >       35 </v>
   <v type="int" >       36 </v>
   <v type="int" >       37 </v>
   <v type="int" >       38 </v>
   <v type="int" >       39 </v>
   <v type="int" >       40 </v>
   <v type="int" >       41 </v>
   <v type="int" >       42 </v>
   <v type="int" >       43 </v>
   <v type="int" >       44 </v>
   <v type="int" >       45 </v>
   <v type="int" >       46 </v>
   <v type="int" >       47 </v>
   <v type="int" >       48 </v>
   <v type="int" >       49 </v>
   <v type="int" >       50 </v>
   <v type="int" >       51 </v>
   <v type="int" >       52 </v>
   <v type="int" >       53 </v>
   <v type="int" >       54 </v>
   <v type="int" >       55 </v>
   <v type="int" >       56 </v>
   <v type="int" >       57 </v>
   <v type="int" >       58 </v>
   <v type="int" >       59 </v>
   <v type="int" >       60 </v>
   <v type="int" >       61 </v>
   <v type="int" >       62 </v>
   <v type="int" >       63 </v>
   <v type="int" >       64 </v>
   <v type="int" >       65 </v>
   <v type="int" >       66 </v>
   <v type="int" >       67 </v>
   <v type="int" >       68 </v>
   <v type="int" >       69 </v>
   <v type="int" >       70 </v>
   <v type="int" >       71 </v>
   <v type="int" >       72 </v>
   <v type="int" >       73 </v>
   <v type="int" >       74 </v>
   <v type="int" >       75 </v>
   <v type="int" >       76 </v>
   <v type="int" >       77 </v>
   <v type="int" >       78 </v>
   <v type="int" >       79 </v>
   <v type="int" >       80 </v>
   <v type="int" >       81 </v>
   <v type="int" >       82 </v>
   <v type="int" >       83 </v>
   <v type="int" >       84 </v>
   <v type="int" >       85 </v>
   <v type="int" >       86 </v>
   <v type="int" >       87 </v>
   <v type="int" >       88 </v>
   <v type="int" >       89 </v>
   <v type="int" >       90 </v>
   <v type="int" >       91 </v>
   <v type="int" >       92 </v>
   <v type="int" >       93 </v>
  </varray>
 </primitive_cell>
 <kpoints>
  <generation param="Gamma">
   <v type="int" name="divisions">       2        2        1 </v>
   <v name="usershift">      0.00000000       0.00000000       0.00000000 </v>
   <v name="genvec1">      0.50000000       0.00000000       0.00000000 </v>
   <v name="genvec2">      0.00000000       0.50000000       0.00000000 </v>
   <v name="genvec3">      0.00000000       0.00000000       1.00000000 </v>
   <v name="shift">      0.00000000       0.00000000       0.00000000 </v>
  </generation>
  <varray name="kpointlist" >
   <v>       0.00000000       0.00000000       0.00000000 </v>
   <v>       0.50000000       0.00000000       0.00000000 </v>
   <v>       0.00000000       0.50000000       0.00000000 </v>
   <v>       0.50000000       0.50000000       0.00000000 </v>
  </varray>
  <varray name="weights" >
   <v>       0.25000000 </v>
   <v>       0.25000000 </v>
   <v>       0.25000000 </v>
   <v>       0.25000000 </v>
  </varray>
 </kpoints>
 <parameters>
  <separator name="general" >
   <i type="string" name="SYSTEM">unknown system</i>
   <i type="logical" name="LCOMPAT"> F  </i>
  </separator>
  <separator name="electronic" >
   <i type="string" name="PREC">normal</i>
   <i name="ENMAX">    520.00000000</i>
   <i name="ENAUG">    644.87300000</i>
   <i name="EDIFF">      0.00000100</i>
   <i type="int" name="IALGO">    38</i>
   <i type="int" name="IWAVPR">    11</i>
   <i type="int" name="NBANDS">   265</i>
   <i type="int" name="NBANDSLOW">    -1</i>
   <i type="int" name="NBANDSHIGH">    -1</i>
   <i name="NELECT">    380.00000000</i>
   <i type="int" name="TURBO">     0</i>
   <i type="int" name="IRESTART">     0</i>
   <i type="int" name="NREBOOT">     0</i>
   <i type="int" name="NMIN">     0</i>
   <i name="EREF">      0.00000000</i>
   <separator name="electronic smearing" >
    <i type="int" name="ISMEAR">     0</i>
    <i name="SIGMA">      0.05000000</i>
    <i name="KSPACING">      0.50000000</i>
    <i type="logical" name="KGAMMA"> T  </i>
    <i type="logical" name="KBLOWUP"> T  </i>
   </separator>
   <separator name="electronic projectors" >
    <i type="logical" name="LREAL"> T  </i>
    <v name="ROPT">     -0.00050000     -0.00050000     -0.00050000     -0.00050000     -0.00050000</v>
    <i type="int" name="LMAXPAW">  -100</i>
    <i type="int" name="LMAXMIX">     2</i>
    <i type="logical" name="NLSPLINE"> F  </i>
   </separator>
   <separator name="electronic startup" >
    <i type="int" name="ISTART">     0</i>
    <i type="int" name="ICHARG">     2</i>
    <i type="int" name="INIWAV">     1</i>
   </separator>
   <separator name="electronic spin" >
    <i type="int" name="ISPIN">     2</i>
    <i type="logical" name="LNONCOLLINEAR"> F  </i>
    <v name="MAGMOM">      0.60000000      0.60000000      0.60000000      0.60000000      0.60000000      0.60000000      0.60000000      0.60000000      0.60000000      0.60000000      0.60000000      0.60000000      0.60000000      0.60000000      0.60000000      0.60000000      0.60000000      0.60000000      0.60000000      0.60000000
      0.60000000      0.60000000      0.60000000      0.60000000      0.60000000      0.60000000      0.60000000      0.60000000      0.60000000      0.60000000      0.60000000      0.60000000      0.60000000      0.60000000      0.60000000      0.60000000      0.60000000      0.60000000      0.60000000      0.60000000
      0.60000000      0.60000000      0.60000000      0.60000000      0.60000000      0.60000000      0.60000000      0.60000000      0.60000000      0.60000000      0.60000000      0.60000000      0.60000000      0.60000000      0.60000000      0.60000000      0.60000000      0.60000000      0.60000000      0.60000000
      0.60000000      0.60000000      0.60000000      0.60000000      0.60000000      0.60000000      0.60000000      0.60000000      0.60000000      0.60000000      0.60000000      0.60000000      0.60000000      0.60000000      0.60000000      0.60000000      0.60000000      0.60000000      0.60000000      0.60000000
      0.60000000      0.60000000      0.60000000      0.60000000      0.60000000      0.60000000      0.60000000      0.60000000      0.60000000      0.60000000      0.60000000      0.60000000      0.60000000</v>
    <i name="NUPDOWN">     -1.00000000</i>
    <i type="logical" name="LSORBIT"> F  </i>
    <v name="SAXIS">      0.00000000      0.00000000      1.00000000</v>
    <i type="logical" name="LSPIRAL"> F  </i>
    <v name="QSPIRAL">      0.00000000      0.00000000      0.00000000</v>
    <i type="logical" name="LZEROZ"> F  </i>
   </separator>
   <separator name="electronic exchange-correlation" >
    <i type="logical" name="LASPH"> T  </i>
    <i type="logical" name="LMETAGGA"> F  </i>
   </separator>
   <separator name="electronic convergence" >
    <i type="int" name="NELM">   200</i>
    <i type="int" name="NELMDL">    -5</i>
    <i type="int" name="NELMIN">     2</i>
    <i name="ENINI">    520.00000000</i>
    <separator name="electronic convergence detail" >
     <i type="logical" name="LDIAG"> T  </i>
     <i type="logical" name="LSUBROT"> F  </i>
     <i name="WEIMIN">      0.00100000</i>
     <i name="EBREAK">      0.00000000</i>
     <i name="DEPER">      0.30000000</i>
     <i type="int" name="NRMM">     4</i>
     <i name="TIME">      0.40000000</i>
    </separator>
   </separator>
   <separator name="electronic mixer" >
    <i name="AMIX">      0.20000000</i>
    <i name="BMIX">      0.00010000</i>
    <i name="AMIN">      0.10000000</i>
    <i name="AMIX_MAG">      0.80000000</i>
    <i name="BMIX_MAG">      0.00010000</i>
    <separator name="electronic mixer details" >
     <i type="int" name="IMIX">     4</i>
     <i type="logical" name="MIXFIRST"> F  </i>
     <i type="int" name="MAXMIX">   -45</i>
     <i name="WC">    100.00000000</i>
     <i type="int" name="INIMIX">     1</i>
     <i type="int" name="MIXPRE">     1</i>
     <i type="int" name="MREMOVE">     5</i>
    </separator>
   </separator>
   <separator name="electronic dipolcorrection" >
    <i type="logical" name="LDIPOL"> F  </i>
    <i type="logical" name="LMONO"> F  </i>
    <i type="int" name="IDIPOL">     0</i>
    <i name="EPSILON">      1.00000000</i>
    <v name="DIPOL">   -100.00000000   -100.00000000   -100.00000000</v>
    <i name="EFIELD">      0.00000000</i>
   </separator>
  </separator>
  <separator name="grids" >
   <i type="int" name="NGX">    96</i>
   <i type="int" name="NGY">    96</i>
   <i type="int" name="NGZ">    84</i>
   <i type="int" name="NGXF">   192</i>
   <i type="int" name="NGYF">   192</i>
   <i type="int" name="NGZF">   168</i>
   <i type="logical" name="ADDGRID"> T  </i>
  </separator>
  <separator name="ionic" >
   <i type="int" name="NSW">   300</i>
   <i type="int" name="IBRION">     3</i>
   <i type="int" name="MDALGO">     0</i>
   <i type="int" name="ISIF">     2</i>
   <i name="PSTRESS">      0.00000000</i>
   <i name="EDIFFG">     -0.03000000</i>
   <i type="int" name="NFREE">     0</i>
   <i name="POTIM">      0.10000000</i>
   <i name="SMASS">     -3.00000000</i>
   <i name="SCALEE">      1.00000000</i>
  </separator>
  <separator name="ionic md" >
   <i name="TEBEG">      0.00010000</i>
   <i name="TEEND">      0.00010000</i>
   <i type="int" name="NBLOCK">     1</i>
   <i type="int" name="KBLOCK">   300</i>
   <i type="int" name="NPACO">   256</i>
   <i name="APACO">     10.00000000</i>
  </separator>
  <separator name="symmetry" >
   <i type="int" name="ISYM">     0</i>
   <i name="SYMPREC">      0.00001000</i>
  </separator>
  <separator name="dos" >
   <i type="int" name="LORBIT">     0</i>
   <v name="RWIGS">     -1.00000000     -1.00000000     -1.00000000     -1.00000000     -1.00000000</v>
   <i type="int" name="NEDOS">   301</i>
   <i name="EMIN">     10.00000000</i>
   <i name="EMAX">    -10.00000000</i>
   <i name="EFERMI">      0.00000000</i>
  </separator>
  <separator name="writing" >
   <i type="int" name="NWRITE">     2</i>
   <i type="logical" name="LWAVE"> F  </i>
   <i type="logical" name="LDOWNSAMPLE"> F  </i>
   <i type="logical" name="LCHARG"> F  </i>
   <i type="logical" name="LPARD"> F  </i>
   <i type="logical" name="LVTOT"> F  </i>
   <i type="logical" name="LVHAR"> F  </i>
   <i type="logical" name="LELF"> F  </i>
   <i type="logical" name="LOPTICS"> F  </i>
   <v name="STM">      0.00000000      0.00000000      0.00000000      0.00000000      0.00000000      0.00000000      0.00000000</v>
  </separator>
  <separator name="performance" >
   <i type="int" name="NPAR">     5</i>
   <i type="int" name="NSIM">     4</i>
   <i type="int" name="NBLK">    -1</i>
   <i type="logical" name="LPLANE"> T  </i>
   <i type="logical" name="LSCALAPACK"> T  </i>
   <i type="logical" name="LSCAAWARE"> F  </i>
   <i type="logical" name="LSCALU"> F  </i>
   <i type="logical" name="LASYNC"> F  </i>
   <i type="logical" name="LORBITALREAL"> F  </i>
  </separator>
  <separator name="miscellaneous" >
   <i type="int" name="IDIOT">     3</i>
   <i type="int" name="PHON_NSTRUCT">    -1</i>
   <i type="logical" name="LMUSIC"> F  </i>
   <v name="POMASS">     12.01100000     18.99800000     14.00100000      1.00000000     16.00000000</v>
   <v name="DARWINR">      0.00000000      0.00000000      0.00000000      0.00000000      0.00000000</v>
   <v name="DARWINV">      1.00000000      1.00000000      1.00000000      1.00000000      1.00000000</v>
   <i type="logical" name="LCORR"> T  </i>
  </separator>
  <i type="logical" name="GGA_COMPAT"> T  </i>
  <i type="logical" name="LBERRY"> F  </i>
  <i type="int" name="ICORELEVEL">     0</i>
  <i type="logical" name="LDAU"> F  </i>
  <i type="int" name="I_CONSTRAINED_M">     0</i>
  <separator name="electronic exchange-correlation" >
   <i type="string" name="GGA">--</i>
   <i type="int" name="VOSKOWN">     0</i>
   <i type="logical" name="LHFCALC"> F  </i>
   <i type="string" name="PRECFOCK"></i>
   <i type="logical" name="LSYMGRAD"> F  </i>
   <i type="logical" name="LHFONE"> F  </i>
   <i type="logical" name="LRHFCALC"> F  </i>
   <i type="logical" name="LTHOMAS"> F  </i>
   <i type="logical" name="LMODELHF"> F  </i>
   <i type="logical" name="LFOCKACE"> F  </i>
   <i name="ENCUT4O">     -1.00000000</i>
   <i type="int" name="EXXOEP">     0</i>
   <i type="int" name="FOURORBIT">     0</i>
   <i name="AEXX">      0.00000000</i>
   <i name="HFALPHA">      0.00000000</i>
   <i name="MCALPHA">      0.00000000</i>
   <i name="ALDAX">      1.00000000</i>
   <i name="AGGAX">      1.00000000</i>
   <i name="ALDAC">      1.00000000</i>
   <i name="AGGAC">      1.00000000</i>
   <i type="int" name="NKREDX">     1</i>
   <i type="int" name="NKREDY">     1</i>
   <i type="int" name="NKREDZ">     1</i>
   <i type="logical" name="SHIFTRED"> F  </i>
   <i type="logical" name="ODDONLY"> F  </i>
   <i type="logical" name="EVENONLY"> F  </i>
   <i type="int" name="LMAXFOCK">     0</i>
   <i type="int" name="NMAXFOCKAE">     0</i>
   <i type="logical" name="LFOCKAEDFT"> F  </i>
   <i name="HFSCREEN">      0.00000000</i>
   <i name="HFSCREENC">      0.00000000</i>
   <i type="int" name="NBANDSGWLOW">     0</i>
  </separator>
  <separator name="vdW DFT" >
   <i type="logical" name="LUSE_VDW"> F  </i>
   <i type="int" name="IVDW_NL">     1</i>
   <i type="logical" name="LSPIN_VDW"> F  </i>
   <i name="Zab_VDW">     -0.84910000</i>
   <i name="PARAM1">      0.12340000</i>
   <i name="PARAM2">      1.00000000</i>
   <i name="PARAM3">      0.00000000</i>
  </separator>
  <separator name="model GW" >
   <i type="int" name="MODEL_GW">     0</i>
   <i name="MODEL_EPS0">     24.99925548</i>
   <i name="MODEL_ALPHA">      1.00000000</i>
  </separator>
  <separator name="linear response parameters" >
   <i type="logical" name="LEPSILON"> F  </i>
   <i type="logical" name="LRPA"> F  </i>
   <i type="logical" name="LNABLA"> F  </i>
   <i type="logical" name="LVEL"> F  </i>
   <i name="CSHIFT">      0.10000000</i>
   <i name="OMEGAMAX">     -1.00000000</i>
   <i name="DEG_THRESHOLD">      0.00200000</i>
   <i name="RTIME">     -0.10000000</i>
   <i name="WPLASMAI">      0.00000000</i>
   <v name="DFIELD">      0.00000000      0.00000000      0.00000000</v>
   <v name="WPLASMA">      0.00000000      0.00000000      0.00000000      0.00000000      0.00000000      0.00000000      0.00000000      0.00000000      0.00000000</v>
  </separator>
  <separator name="orbital magnetization" >
   <i type="logical" name="NUCIND"> F  </i>
   <v name="MAGPOS">      0.00000000      0.00000000      0.00000000</v>
   <i type="logical" name="LNICSALL"> T  </i>
   <i type="logical" name="ORBITALMAG"> F  </i>
   <i type="logical" name="LMAGBLOCH"> F  </i>
   <i type="logical" name="LCHIMAG"> F  </i>
   <i type="logical" name="LGAUGE"> T  </i>
   <i type="int" name="MAGATOM">     0</i>
   <v name="MAGDIPOL">      0.00000000      0.00000000      0.00000000</v>
   <v name="AVECCONST">      0.00000000      0.00000000      0.00000000</v>
  </separator>
  <separator name="response functions" >
   <i type="logical" name="LALL_IN_ONE"> F  </i>
   <i type="int" name="IALL_IN_ONE">    -1</i>
   <i type="int" name="NBANDS_WAVE">    -1</i>
   <i type="logical" name="LFINITE_TEMPERATURE"> F  </i>
   <i type="logical" name="LADDER"> F  </i>
   <i type="logical" name="LRPAFORCE"> F  </i>
   <i type="logical" name="LFXC"> F  </i>
   <i type="logical" name="LHARTREE"> T  </i>
   <i type="int" name="IBSE">     0</i>
   <v type="int" name="KPOINT">    -1     0     0     0</v>
   <i type="logical" name="LTCTC"> F  </i>
   <i type="logical" name="LTCTE"> F  </i>
   <i type="logical" name="LTETE"> F  </i>
   <i type="logical" name="LTRIPLET"> F  </i>
   <i type="logical" name="LFXCEPS"> F  </i>
   <i type="logical" name="LFXHEG"> F  </i>
   <i type="int" name="NATURALO">     2</i>
   <i type="logical" name="LHOLEGF"> F  </i>
   <i type="logical" name="L2ORDER"> F  </i>
   <i type="logical" name="LDMP1"> F  </i>
   <i type="logical" name="LMP2LT"> F  </i>
   <i type="logical" name="LSMP2LT"> F  </i>
   <i type="logical" name="LGWLF"> F  </i>
   <i name="ENCUTGW">     -1.60000002</i>
   <i name="ENCUTGWSOFT">     -1.60000002</i>
   <i name="ENCUTLF">     -1.00000000</i>
   <i type="logical" name="LESF_SPLINES"> F  </i>
   <i type="int" name="LMAXMP2">    -1</i>
   <i name="SCISSOR">      0.00000000</i>
   <i type="int" name="NOMEGA">     0</i>
   <i type="int" name="NOMEGAR">     0</i>
   <i type="int" name="NBANDSGW">    -1</i>
   <i type="int" name="NBANDSO">    -1</i>
   <i type="int" name="NBANDSV">    -1</i>
   <i type="int" name="NELMGW">     1</i>
   <i type="int" name="NELMHF">     1</i>
   <i type="int" name="DIM">     3</i>
   <i type="int" name="IESPILON">     4</i>
   <i type="int" name="ANTIRES">     0</i>
   <i name="OMEGAMAX">    -30.00000000</i>
   <i name="OMEGAMIN">    -30.00000000</i>
   <i name="OMEGATL">   -200.00000000</i>
   <i type="int" name="OMEGAGRID">     0</i>
   <i name="CSHIFT">     -0.10000000</i>
   <i type="logical" name="LSELFENERGY"> F  </i>
   <i type="logical" name="LSPECTRAL"> F  </i>
   <i type="logical" name="LSPECTRALGW"> F  </i>
   <i type="logical" name="LSINGLES"> F  </i>
   <i type="logical" name="LFERMIGW"> F  </i>
   <i type="logical" name="ODDONLYGW"> F  </i>
   <i type="logical" name="EVENONLYGW"> F  </i>
   <i type="int" name="NKREDLFX">     1</i>
   <i type="int" name="NKREDLFY">     1</i>
   <i type="int" name="NKREDLFZ">     1</i>
   <i type="int" name="MAXMEM">  2800</i>
   <i type="int" name="TELESCOPE">     0</i>
   <i type="int" name="NTAUPAR">    -1</i>
   <i type="int" name="NOMEGAPAR">    -1</i>
   <i name="DAMP_NEWTON">      0.80000001</i>
   <i name="LAMBDA">      1.00000000</i>
  </separator>
  <separator name="External order field" >
   <i name="OFIELD_KAPPA">      0.00000000</i>
   <v name="OFIELD_K">      0.00000000      0.00000000      0.00000000</v>
   <i name="OFIELD_Q6_NEAR">      0.00000000</i>
   <i name="OFIELD_Q6_FAR">      0.00000000</i>
   <i name="OFIELD_A">      0.00000000</i>
  </separator>
  <separator name="optional k-points parameters" >
   <i type="int" name="KPOINTS_OPT_MODE">     1</i>
   <i type="logical" name="LKPOINTS_OPT"> F  </i>
  </separator>
 </parameters>
 <atominfo>
  <atoms>      93 </atoms>
  <types>       5 </types>
  <array name="atoms" >
   <dimension dim="1">ion</dimension>
   <field type="string">element</field>
   <field type="int">atomtype</field>
   <set>
    <rc><c>C </c><c>   1</c></rc>
    <rc><c>C </c><c>   1</c></rc>
    <rc><c>C </c><c>   1</c></rc>
    <rc><c>C </c><c>   1</c></rc>
    <rc><c>C </c><c>   1</c></rc>
    <rc><c>C </c><c>   1</c></rc>
    <rc><c>C </c><c>   1</c></rc>
    <rc><c>C </c><c>   1</c></rc>
    <rc><c>C </c><c>   1</c></rc>
    <rc><c>C </c><c>   1</c></rc>
    <rc><c>C </c><c>   1</c></rc>
    <rc><c>C </c><c>   1</c></rc>
    <rc><c>C </c><c>   1</c></rc>
    <rc><c>C </c><c>   1</c></rc>
    <rc><c>C </c><c>   1</c></rc>
    <rc><c>C </c><c>   1</c></rc>
    <rc><c>C </c><c>   1</c></rc>
    <rc><c>C </c><c>   1</c></rc>
    <rc><c>C </c><c>   1</c></rc>
    <rc><c>C </c><c>   1</c></rc>
    <rc><c>C </c><c>   1</c></rc>
    <rc><c>C </c><c>   1</c></rc>
    <rc><c>C </c><c>   1</c></rc>
    <rc><c>C </c><c>   1</c></rc>
    <rc><c>C </c><c>   1</c></rc>
    <rc><c>C </c><c>   1</c></rc>
    <rc><c>C </c><c>   1</c></rc>
    <rc><c>C </c><c>   1</c></rc>
    <rc><c>C </c><c>   1</c></rc>
    <rc><c>C </c><c>   1</c></rc>
    <rc><c>C </c><c>   1</c></rc>
    <rc><c>C </c><c>   1</c></rc>
    <rc><c>C </c><c>   1</c></rc>
    <rc><c>C </c><c>   1</c></rc>
    <rc><c>C </c><c>   1</c></rc>
    <rc><c>C </c><c>   1</c></rc>
    <rc><c>C </c><c>   1</c></rc>
    <rc><c>C </c><c>   1</c></rc>
    <rc><c>C </c><c>   1</c></rc>
    <rc><c>C </c><c>   1</c></rc>
    <rc><c>C </c><c>   1</c></rc>
    <rc><c>C </c><c>   1</c></rc>
    <rc><c>C </c><c>   1</c></rc>
    <rc><c>C </c><c>   1</c></rc>
    <rc><c>C </c><c>   1</c></rc>
    <rc><c>C </c><c>   1</c></rc>
    <rc><c>C </c><c>   1</c></rc>
    <rc><c>C </c><c>   1</c></rc>
    <rc><c>C </c><c>   1</c></rc>
    <rc><c>C </c><c>   1</c></rc>
    <rc><c>C </c><c>   1</c></rc>
    <rc><c>C </c><c>   1</c></rc>
    <rc><c>C </c><c>   1</c></rc>
    <rc><c>C </c><c>   1</c></rc>
    <rc><c>C </c><c>   1</c></rc>
    <rc><c>C </c><c>   1</c></rc>
    <rc><c>C </c><c>   1</c></rc>
    <rc><c>C </c><c>   1</c></rc>
    <rc><c>C </c><c>   1</c></rc>
    <rc><c>C </c><c>   1</c></rc>
    <rc><c>C </c><c>   1</c></rc>
    <rc><c>C </c><c>   1</c></rc>
    <rc><c>C </c><c>   1</c></rc>
    <rc><c>C </c><c>   1</c></rc>
    <rc><c>C </c><c>   1</c></rc>
    <rc><c>C </c><c>   1</c></rc>
    <rc><c>C </c><c>   1</c></rc>
    <rc><c>C </c><c>   1</c></rc>
    <rc><c>C </c><c>   1</c></rc>
    <rc><c>C </c><c>   1</c></rc>
    <rc><c>C </c><c>   1</c></rc>
    <rc><c>C </c><c>   1</c></rc>
    <rc><c>C </c><c>   1</c></rc>
    <rc><c>C </c><c>   1</c></rc>
    <rc><c>C </c><c>   1</c></rc>
    <rc><c>C </c><c>   1</c></rc>
    <rc><c>C </c><c>   1</c></rc>
    <rc><c>C </c><c>   1</c></rc>
    <rc><c>C </c><c>   1</c></rc>
    <rc><c>C </c><c>   1</c></rc>
    <rc><c>C </c><c>   1</c></rc>
    <rc><c>C </c><c>   1</c></rc>
    <rc><c>F </c><c>   2</c></rc>
    <rc><c>F </c><c>   2</c></rc>
    <rc><c>N </c><c>   3</c></rc>
    <rc><c>N </c><c>   3</c></rc>
    <rc><c>N </c><c>   3</c></rc>
    <rc><c>N </c><c>   3</c></rc>
    <rc><c>N </c><c>   3</c></rc>
    <rc><c>N </c><c>   3</c></rc>
    <rc><c>H </c><c>   4</c></rc>
    <rc><c>H </c><c>   4</c></rc>
    <rc><c>O </c><c>   5</c></rc>
   </set>
  </array>
  <array name="atomtypes" >
   <dimension dim="1">type</dimension>
   <field type="int">atomspertype</field>
   <field type="string">element</field>
   <field>mass</field>
   <field>valence</field>
   <field type="string">pseudopotential</field>
   <set>
    <rc><c>  82</c><c>C </c><c>     12.01100000</c><c>      4.00000000</c><c>  PAW_PBE C 08Apr2002                   </c></rc>
    <rc><c>   2</c><c>F </c><c>     18.99800000</c><c>      7.00000000</c><c>  PAW_PBE F 08Apr2002                   </c></rc>
    <rc><c>   6</c><c>N </c><c>     14.00100000</c><c>      5.00000000</c><c>  PAW_PBE N 08Apr2002                   </c></rc>
    <rc><c>   2</c><c>H </c><c>      1.00000000</c><c>      1.00000000</c><c>  PAW_PBE H 15Jun2001                   </c></rc>
    <rc><c>   1</c><c>O </c><c>     16.00000000</c><c>      6.00000000</c><c>  PAW_PBE O 08Apr2002                   </c></rc>
   </set>
  </array>
 </atominfo>
 <structure name="initialpos" >
  <crystal>
   <varray name="basis" >
    <v>      17.27103806       0.00000000       0.00000000 </v>
    <v>      -8.63551903      14.95715771       0.00000000 </v>
    <v>       0.00000000       0.00000000      15.00000000 </v>
   </varray>
   <i name="volume">   3874.88459904 </i>
   <varray name="rec_basis" >
    <v>       0.05790040       0.03342881      -0.00000000 </v>
    <v>       0.00000000       0.06685762       0.00000000 </v>
    <v>       0.00000000      -0.00000000       0.06666667 </v>
   </varray>
  </crystal>
  <varray name="positions" >
   <v>       0.99879134       0.00155880       0.49622060 </v>
   <v>       0.99902407       0.14460590       0.49626016 </v>
   <v>       0.99990638       0.28828909       0.49637428 </v>
   <v>       0.00048698       0.43139626       0.49581916 </v>
   <v>       0.00092708       0.57419419       0.49523001 </v>
   <v>       0.00124614       0.71712488       0.49542449 </v>
   <v>       0.99974048       0.85963019       0.49593759 </v>
   <v>       0.14305670       0.00316502       0.49692579 </v>
   <v>       0.14262361       0.14538537       0.49666652 </v>
   <v>       0.14210152       0.28723146       0.49658470 </v>
   <v>       0.14385378       0.43143692       0.49620001 </v>
   <v>       0.14485294       0.57417422       0.49563907 </v>
   <v>       0.14426634       0.71711638       0.49556072 </v>
   <v>       0.14340001       0.86024480       0.49637113 </v>
   <v>       0.28615210       0.00347868       0.49652035 </v>
   <v>       0.28654105       0.14690481       0.49667149 </v>
   <v>       0.28727807       0.29211364       0.49571691 </v>
   <v>       0.28501585       0.42637210       0.49552485 </v>
   <v>       0.29016468       0.57437974       0.49482228 </v>
   <v>       0.28761839       0.71777769       0.49511734 </v>
   <v>       0.28641836       0.86064323       0.49575921 </v>
   <v>       0.42915394       0.00395815       0.49578773 </v>
   <v>       0.42916312       0.14779289       0.49577298 </v>
   <v>       0.42942338       0.86032243       0.49505947 </v>
   <v>       0.57138115       0.00339651       0.49548788 </v>
   <v>       0.57138626       0.14692770       0.49538999 </v>
   <v>       0.57360335       0.29381986       0.49404464 </v>
   <v>       0.57339900       0.85895306       0.49415640 </v>
   <v>       0.71353934       0.00245220       0.49504201 </v>
   <v>       0.71413130       0.14614567       0.49566660 </v>
   <v>       0.71387777       0.28932207       0.49480684 </v>
   <v>       0.71020819       0.42939408       0.49293444 </v>
   <v>       0.70852841       0.85784157       0.49263637 </v>
   <v>       0.85566463       0.00141094       0.49507962 </v>
   <v>       0.85653945       0.14528172       0.49584571 </v>
   <v>       0.85688551       0.28854840       0.49558925 </v>
   <v>       0.85705844       0.43152899       0.49467489 </v>
   <v>       0.85736666       0.57404553       0.49382666 </v>
   <v>       0.85817810       0.71639248       0.49331589 </v>
   <v>       0.85447847       0.85749078       0.49414027 </v>
   <v>       0.04696036       0.09718678       0.49645913 </v>
   <v>       0.04663452       0.23976414       0.49658892 </v>
   <v>       0.04807586       0.38380179       0.49627021 </v>
   <v>       0.04904943       0.52671822       0.49563821 </v>
   <v>       0.04881152       0.66955925       0.49546003 </v>
   <v>       0.04794344       0.81235161       0.49603405 </v>
   <v>       0.04735217       0.95480384       0.49651510 </v>
   <v>       0.19079533       0.09834510       0.49694723 </v>
   <v>       0.19066165       0.24068109       0.49638622 </v>
   <v>       0.18965368       0.38212674       0.49629658 </v>
   <v>       0.19327424       0.52695150       0.49571651 </v>
   <v>       0.19217128       0.66972391       0.49543256 </v>
   <v>       0.19132761       0.81270130       0.49591697 </v>
   <v>       0.19097356       0.95559876       0.49673207 </v>
   <v>       0.33395498       0.09927834       0.49644913 </v>
   <v>       0.33767618       0.24293310       0.49547192 </v>
   <v>       0.33930568       0.67331537       0.49463724 </v>
   <v>       0.33434627       0.81288361       0.49517832 </v>
   <v>       0.33374007       0.95592404       0.49603369 </v>
   <v>       0.47647078       0.09942592       0.49568883 </v>
   <v>       0.47408975       0.24400465       0.49461657 </v>
   <v>       0.47449163       0.80951946       0.49450986 </v>
   <v>       0.47653300       0.95595777       0.49543954 </v>
   <v>       0.61873423       0.09878684       0.49562825 </v>
   <v>       0.61866926       0.24266011       0.49480491 </v>
   <v>       0.61847365       0.95483519       0.49497383 </v>
   <v>       0.76143825       0.09815651       0.49565858 </v>
   <v>       0.76168385       0.24129151       0.49536629 </v>
   <v>       0.76124936       0.38438034       0.49416627 </v>
   <v>       0.76075988       0.52904167       0.49173290 </v>
   <v>       0.76285084       0.66505144       0.48961823 </v>
   <v>       0.75757979       0.80796678       0.49136687 </v>
   <v>       0.76020744       0.95401002       0.49430045 </v>
   <v>       0.90357458       0.09673882       0.49580100 </v>
   <v>       0.90444292       0.24074270       0.49600142 </v>
   <v>       0.90476826       0.38404006       0.49536686 </v>
   <v>       0.90530618       0.52675311       0.49468687 </v>
   <v>       0.90576306       0.66910865       0.49432970 </v>
   <v>       0.90399700       0.81148381       0.49456949 </v>
   <v>       0.90295919       0.95317290       0.49536774 </v>
   <v>       0.71536550       0.71387458       0.48695361 </v>
   <v>       0.33227781       0.52247781       0.49424077 </v>
   <v>       0.62726345       0.66540186       0.47948634 </v>
   <v>       0.42093056       0.56215892       0.49214107 </v>
   <v>       0.42766872       0.28789441       0.49375687 </v>
   <v>       0.42919107       0.71937872       0.49425082 </v>
   <v>       0.71688591       0.57431099       0.48832089 </v>
   <v>       0.33123294       0.38158706       0.49535214 </v>
   <v>       0.62007474       0.38429222       0.49305169 </v>
   <v>       0.61862881       0.81406108       0.49284371 </v>
   <v>       0.46207275       0.44428924       0.51844679 </v>
   <v>       0.55734965       0.45747182       0.51563402 </v>
   <v>       0.52402475       0.48656801       0.53488797 </v>
  </varray>
  <varray name="selective"  type="logical" >
   <v type="logical" >  T  T  T </v>
   <v type="logical" >  T  T  T </v>
   <v type="logical" >  T  T  T </v>
   <v type="logical" >  T  T  T </v>
   <v type="logical" >  T  T  T </v>
   <v type="logical" >  T  T  T </v>
   <v type="logical" >  T  T  T </v>
   <v type="logical" >  T  T  T </v>
   <v type="logical" >  T  T  T </v>
   <v type="logical" >  T  T  T </v>
   <v type="logical" >  T  T  T </v>
   <v type="logical" >  T  T  T </v>
   <v type="logical" >  T  T  T </v>
   <v type="logical" >  T  T  T </v>
   <v type="logical" >  T  T  T </v>
   <v type="logical" >  T  T  T </v>
   <v type="logical" >  T  T  T </v>
   <v type="logical" >  T  T  T </v>
   <v type="logical" >  T  T  T </v>
   <v type="logical" >  T  T  T </v>
   <v type="logical" >  T  T  T </v>
   <v type="logical" >  T  T  T </v>
   <v type="logical" >  T  T  T </v>
   <v type="logical" >  T  T  T </v>
   <v type="logical" >  T  T  T </v>
   <v type="logical" >  T  T  T </v>
   <v type="logical" >  T  T  T </v>
   <v type="logical" >  T  T  T </v>
   <v type="logical" >  T  T  T </v>
   <v type="logical" >  T  T  T </v>
   <v type="logical" >  T  T  T </v>
   <v type="logical" >  T  T  T </v>
   <v type="logical" >  T  T  T </v>
   <v type="logical" >  T  T  T </v>
   <v type="logical" >  T  T  T </v>
   <v type="logical" >  T  T  T </v>
   <v type="logical" >  T  T  T </v>
   <v type="logical" >  T  T  T </v>
   <v type="logical" >  T  T  T </v>
   <v type="logical" >  T  T  T </v>
   <v type="logical" >  T  T  T </v>
   <v type="logical" >  T  T  T </v>
   <v type="logical" >  T  T  T </v>
   <v type="logical" >  T  T  T </v>
   <v type="logical" >  T  T  T </v>
   <v type="logical" >  T  T  T </v>
   <v type="logical" >  T  T  T </v>
   <v type="logical" >  T  T  T </v>
   <v type="logical" >  T  T  T </v>
   <v type="logical" >  T  T  T </v>
   <v type="logical" >  T  T  T </v>
   <v type="logical" >  T  T  T </v>
   <v type="logical" >  T  T  T </v>
   <v type="logical" >  T  T  T </v>
   <v type="logical" >  T  T  T </v>
   <v type="logical" >  T  T  T </v>
   <v type="logical" >  T  T  T </v>
   <v type="logical" >  T  T  T </v>
   <v type="logical" >  T  T  T </v>
   <v type="logical" >  T  T  T </v>
   <v type="logical" >  T  T  T </v>
   <v type="logical" >  T  T  T </v>
   <v type="logical" >  T  T  T </v>
   <v type="logical" >  T  T  T </v>
   <v type="logical" >  T  T  T </v>
   <v type="logical" >  T  T  T </v>
   <v type="logical" >  T  T  T </v>
   <v type="logical" >  T  T  T </v>
   <v type="logical" >  T  T  T </v>
   <v type="logical" >  T  T  T </v>
   <v type="logical" >  T  T  T </v>
   <v type="logical" >  T  T  T </v>
   <v type="logical" >  T  T  T </v>
   <v type="logical" >  T  T  T </v>
   <v type="logical" >  T  T  T </v>
   <v type="logical" >  T  T  T </v>
   <v type="logical" >  T  T  T </v>
   <v type="logical" >  T  T  T </v>
   <v type="logical" >  T  T  T </v>
   <v type="logical" >  T  T  T </v>
   <v type="logical" >  T  T  T </v>
   <v type="logical" >  T  T  T </v>
   <v type="logical" >  T  T  T </v>
   <v type="logical" >  T  T  T </v>
   <v type="logical" >  T  T  T </v>
   <v type="logical" >  T  T  T </v>
   <v type="logical" >  T  T  T </v>
   <v type="logical" >  T  T  T </v>
   <v type="logical" >  T  T  T </v>
   <v type="logical" >  T  T  T </v>
   <v type="logical" >  T  T  T </v>
   <v type="logical" >  T  T  T </v>
   <v type="logical" >  T  T  F </v>
  </varray>
  <nose>
   <v>      -3.00000000       0.00000000       0.00010000       0.00010000 </v>
  </nose>
 </structure>
 <calculation>
  <scstep>
   <time name="dav">   79.03   79.63</time>
   <time name="total">   86.55   87.19</time>
   <energy>
    <i name="alphaZ">    185.49599500 </i>
    <i name="ewald">  38102.50411225 </i>
    <i name="hartreedc"> -49879.08178041 </i>
    <i name="XCdc">   1308.93877080 </i>
    <i name="pawpsdc">  11553.19479004 </i>
    <i name="pawaedc"> -11618.78033184 </i>
    <i name="eentropy">     -0.04156300 </i>
    <i name="bandstr">  -1587.45265703 </i>
    <i name="atom">  15429.98794498 </i>
    <i name="e_fr_energy">   3494.76528078 </i>
    <i name="e_wo_entrp">   3494.80684378 </i>
    <i name="e_0_energy">   3494.78606228 </i>
   </energy>
  </scstep>
  <scstep>
   <time name="dav">  100.55  101.22</time>
   <time name="total">  100.55  101.22</time>
   <energy>
    <i name="e_fr_energy">   -184.60636989 </i>
    <i name="e_wo_entrp">   -184.60345589 </i>
    <i name="e_0_energy">   -184.60491289 </i>
   </energy>
  </scstep>
  <scstep>
   <time name="dav">   85.92   86.52</time>
   <time name="total">   85.92   86.52</time>
   <energy>
    <i name="e_fr_energy">   -840.97144118 </i>
    <i name="e_wo_entrp">   -840.96885327 </i>
    <i name="e_0_energy">   -840.97014723 </i>
   </energy>
  </scstep>
  <scstep>
   <time name="dav">   84.77   85.34</time>
   <time name="total">   84.77   85.34</time>
   <energy>
    <i name="e_fr_energy">   -863.49326988 </i>
    <i name="e_wo_entrp">   -863.49041171 </i>
    <i name="e_0_energy">   -863.49184079 </i>
   </energy>
  </scstep>
  <scstep>
   <time name="dav">   95.32   96.06</time>
   <time name="total">  101.59  102.38</time>
   <energy>
    <i name="e_fr_energy">   -864.21174034 </i>
    <i name="e_wo_entrp">   -864.20881304 </i>
    <i name="e_0_energy">   -864.21027669 </i>
   </energy>
  </scstep>
  <scstep>
   <time name="dav">   82.35   82.92</time>
   <time name="total">   96.03   96.69</time>
   <energy>
    <i name="e_fr_energy">   -847.77746778 </i>
    <i name="e_wo_entrp">   -847.77403086 </i>
    <i name="e_0_energy">   -847.77574932 </i>
   </energy>
  </scstep>
  <scstep>
   <time name="dav">   81.13   81.71</time>
   <time name="total">   95.26   95.93</time>
   <energy>
    <i name="e_fr_energy">   -827.79303523 </i>
    <i name="e_wo_entrp">   -827.79302424 </i>
    <i name="e_0_energy">   -827.79302973 </i>
   </energy>
  </scstep>
  <scstep>
   <time name="dav">   80.15   80.74</time>
   <time name="total">   94.38   95.05</time>
   <energy>
    <i name="e_fr_energy">   -823.10383442 </i>
    <i name="e_wo_entrp">   -823.10222859 </i>
    <i name="e_0_energy">   -823.10303151 </i>
   </energy>
  </scstep>
  <scstep>
   <time name="dav">   80.64   81.18</time>
   <time name="total">   94.84   95.48</time>
   <energy>
    <i name="e_fr_energy">   -823.16787177 </i>
    <i name="e_wo_entrp">   -823.16787168 </i>
    <i name="e_0_energy">   -823.16787172 </i>
   </energy>
  </scstep>
  <scstep>
   <time name="dav">   79.57   80.20</time>
   <time name="total">   93.37   94.10</time>
   <energy>
    <i name="e_fr_energy">   -823.02116516 </i>
    <i name="e_wo_entrp">   -823.02116509 </i>
    <i name="e_0_energy">   -823.02116512 </i>
   </energy>
  </scstep>
  <scstep>
   <time name="dav">   76.81   77.33</time>
   <time name="total">   91.00   91.61</time>
   <energy>
    <i name="e_fr_energy">   -823.00249666 </i>
    <i name="e_wo_entrp">   -823.00170948 </i>
    <i name="e_0_energy">   -823.00210307 </i>
   </energy>
  </scstep>
  <scstep>
   <time name="dav">   87.29   87.88</time>
   <time name="total">  101.48  102.16</time>
   <energy>
    <i name="e_fr_energy">   -823.00064789 </i>
    <i name="e_wo_entrp">   -823.00064770 </i>
    <i name="e_0_energy">   -823.00064779 </i>
   </energy>
  </scstep>
  <scstep>
   <time name="dav">   81.01   81.57</time>
   <time name="total">   95.15   95.81</time>
   <energy>
    <i name="e_fr_energy">   -823.00063456 </i>
    <i name="e_wo_entrp">   -823.00063405 </i>
    <i name="e_0_energy">   -823.00063431 </i>
   </energy>
  </scstep>
  <scstep>
   <time name="dav">   82.93   83.49</time>
   <time name="total">   97.16   97.82</time>
   <energy>
    <i name="e_fr_energy">   -823.00061393 </i>
    <i name="e_wo_entrp">   -823.00061301 </i>
    <i name="e_0_energy">   -823.00061347 </i>
   </energy>
  </scstep>
  <scstep>
   <time name="dav">   79.35   79.91</time>
   <time name="total">   93.33   94.01</time>
   <energy>
    <i name="e_fr_energy">   -823.00067189 </i>
    <i name="e_wo_entrp">   -823.00067052 </i>
    <i name="e_0_energy">   -823.00067121 </i>
   </energy>
  </scstep>
  <scstep>
   <time name="dav">   75.84   76.37</time>
   <time name="total">   90.03   90.65</time>
   <energy>
    <i name="e_fr_energy">   -823.00072153 </i>
    <i name="e_wo_entrp">   -823.00071982 </i>
    <i name="e_0_energy">   -823.00072067 </i>
   </energy>
  </scstep>
  <scstep>
   <time name="dav">   82.19   82.82</time>
   <time name="total">   96.42   97.24</time>
   <energy>
    <i name="e_fr_energy">   -823.00071836 </i>
    <i name="e_wo_entrp">   -823.00071665 </i>
    <i name="e_0_energy">   -823.00071751 </i>
   </energy>
  </scstep>
  <scstep>
   <time name="dav">   80.22   80.79</time>
   <time name="total">   88.10   88.72</time>
   <energy>
    <i name="alphaZ">    185.49599500 </i>
    <i name="ewald">  38102.50411225 </i>
    <i name="hartreedc"> -51311.81711361 </i>
    <i name="XCdc">   1356.85776225 </i>
    <i name="pawpsdc">  38418.89494391 </i>
    <i name="pawaedc"> -38495.44735181 </i>
    <i name="eentropy">     -0.00000167 </i>
    <i name="bandstr">  -4509.47700866 </i>
    <i name="atom">  15429.98794498 </i>
    <i name="e_fr_energy">   -823.00071737 </i>
    <i name="e_wo_entrp">   -823.00071569 </i>
    <i name="e_0_energy">   -823.00071653 </i>
   </energy>
  </scstep>
  <structure>
   <crystal>
    <varray name="basis" >
     <v>      17.27103806       0.00000000       0.00000000 </v>
     <v>      -8.63551903      14.95715771       0.00000000 </v>
     <v>       0.00000000       0.00000000      15.00000000 </v>
    </varray>
    <i name="volume">   3874.88459904 </i>
    <varray name="rec_basis" >
     <v>       0.05790040       0.03342881      -0.00000000 </v>
     <v>       0.00000000       0.06685762       0.00000000 </v>
     <v>       0.00000000      -0.00000000       0.06666667 </v>
    </varray>
   </crystal>
   <varray name="positions" >
    <v>       0.99879134       0.00155880       0.49622060 </v>
    <v>       0.99902407       0.14460590       0.49626016 </v>
    <v>       0.99990638       0.28828909       0.49637428 </v>
    <v>       0.00048698       0.43139626       0.49581916 </v>
    <v>       0.00092708       0.57419419       0.49523001 </v>
    <v>       0.00124614       0.71712488       0.49542449 </v>
    <v>       0.99974048       0.85963019       0.49593759 </v>
    <v>       0.14305670       0.00316502       0.49692579 </v>
    <v>       0.14262361       0.14538537       0.49666652 </v>
    <v>       0.14210152       0.28723146       0.49658470 </v>
    <v>       0.14385378       0.43143692       0.49620001 </v>
    <v>       0.14485294       0.57417422       0.49563907 </v>
    <v>       0.14426634       0.71711638       0.49556072 </v>
    <v>       0.14340001       0.86024480       0.49637113 </v>
    <v>       0.28615210       0.00347868       0.49652035 </v>
    <v>       0.28654105       0.14690481       0.49667149 </v>
    <v>       0.28727807       0.29211364       0.49571691 </v>
    <v>       0.28501585       0.42637210       0.49552485 </v>
    <v>       0.29016468       0.57437974       0.49482228 </v>
    <v>       0.28761839       0.71777769       0.49511734 </v>
    <v>       0.28641836       0.86064323       0.49575921 </v>
    <v>       0.42915394       0.00395815       0.49578773 </v>
    <v>       0.42916312       0.14779289       0.49577298 </v>
    <v>       0.42942338       0.86032243       0.49505947 </v>
    <v>       0.57138115       0.00339651       0.49548788 </v>
    <v>       0.57138626       0.14692770       0.49538999 </v>
    <v>       0.57360335       0.29381986       0.49404464 </v>
    <v>       0.57339900       0.85895306       0.49415640 </v>
    <v>       0.71353934       0.00245220       0.49504201 </v>
    <v>       0.71413130       0.14614567       0.49566660 </v>
    <v>       0.71387777       0.28932207       0.49480684 </v>
    <v>       0.71020819       0.42939408       0.49293444 </v>
    <v>       0.70852841       0.85784157       0.49263637 </v>
    <v>       0.85566463       0.00141094       0.49507962 </v>
    <v>       0.85653945       0.14528172       0.49584571 </v>
    <v>       0.85688551       0.28854840       0.49558925 </v>
    <v>       0.85705844       0.43152899       0.49467489 </v>
    <v>       0.85736666       0.57404553       0.49382666 </v>
    <v>       0.85817810       0.71639248       0.49331589 </v>
    <v>       0.85447847       0.85749078       0.49414027 </v>
    <v>       0.04696036       0.09718678       0.49645913 </v>
    <v>       0.04663452       0.23976414       0.49658892 </v>
    <v>       0.04807586       0.38380179       0.49627021 </v>
    <v>       0.04904943       0.52671822       0.49563821 </v>
    <v>       0.04881152       0.66955925       0.49546003 </v>
    <v>       0.04794344       0.81235161       0.49603405 </v>
    <v>       0.04735217       0.95480384       0.49651510 </v>
    <v>       0.19079533       0.09834510       0.49694723 </v>
    <v>       0.19066165       0.24068109       0.49638622 </v>
    <v>       0.18965368       0.38212674       0.49629658 </v>
    <v>       0.19327424       0.52695150       0.49571651 </v>
    <v>       0.19217128       0.66972391       0.49543256 </v>
    <v>       0.19132761       0.81270130       0.49591697 </v>
    <v>       0.19097356       0.95559876       0.49673207 </v>
    <v>       0.33395498       0.09927834       0.49644913 </v>
    <v>       0.33767618       0.24293310       0.49547192 </v>
    <v>       0.33930568       0.67331537       0.49463724 </v>
    <v>       0.33434627       0.81288361       0.49517832 </v>
    <v>       0.33374007       0.95592404       0.49603369 </v>
    <v>       0.47647078       0.09942592       0.49568883 </v>
    <v>       0.47408975       0.24400465       0.49461657 </v>
    <v>       0.47449163       0.80951946       0.49450986 </v>
    <v>       0.47653300       0.95595777       0.49543954 </v>
    <v>       0.61873423       0.09878684       0.49562825 </v>
    <v>       0.61866926       0.24266011       0.49480491 </v>
    <v>       0.61847365       0.95483519       0.49497383 </v>
    <v>       0.76143825       0.09815651       0.49565858 </v>
    <v>       0.76168385       0.24129151       0.49536629 </v>
    <v>       0.76124936       0.38438034       0.49416627 </v>
    <v>       0.76075988       0.52904167       0.49173290 </v>
    <v>       0.76285084       0.66505144       0.48961823 </v>
    <v>       0.75757979       0.80796678       0.49136687 </v>
    <v>       0.76020744       0.95401002       0.49430045 </v>
    <v>       0.90357458       0.09673882       0.49580100 </v>
    <v>       0.90444292       0.24074270       0.49600142 </v>
    <v>       0.90476826       0.38404006       0.49536686 </v>
    <v>       0.90530618       0.52675311       0.49468687 </v>
    <v>       0.90576306       0.66910865       0.49432970 </v>
    <v>       0.90399700       0.81148381       0.49456949 </v>
    <v>       0.90295919       0.95317290       0.49536774 </v>
    <v>       0.71536550       0.71387458       0.48695361 </v>
    <v>       0.33227781       0.52247781       0.49424077 </v>
    <v>       0.62726345       0.66540186       0.47948634 </v>
    <v>       0.42093056       0.56215892       0.49214107 </v>
    <v>       0.42766872       0.28789441       0.49375687 </v>
    <v>       0.42919107       0.71937872       0.49425082 </v>
    <v>       0.71688591       0.57431099       0.48832089 </v>
    <v>       0.33123294       0.38158706       0.49535214 </v>
    <v>       0.62007474       0.38429222       0.49305169 </v>
    <v>       0.61862881       0.81406108       0.49284371 </v>
    <v>       0.46207275       0.44428924       0.51844679 </v>
    <v>       0.55734965       0.45747182       0.51563402 </v>
    <v>       0.52402475       0.48656801       0.53488797 </v>
   </varray>
  </structure>
  <varray name="forces" >
   <v>      -0.00169460       0.00055560      -0.00106008 </v>
   <v>       0.00069629      -0.00019440      -0.00217292 </v>
   <v>       0.00095935      -0.00070870      -0.00317654 </v>
   <v>       0.00018892      -0.00202850      -0.00219664 </v>
   <v>       0.00072138      -0.00132239      -0.00252748 </v>
   <v>      -0.00118566       0.00161552      -0.00251575 </v>
   <v>      -0.00620767       0.01006566      -0.00086573 </v>
   <v>      -0.00279512       0.00149937      -0.00039077 </v>
   <v>      -0.00498183       0.00290684      -0.00046072 </v>
   <v>       0.00111559      -0.00027213      -0.00232577 </v>
   <v>       0.00164007      -0.00142422      -0.00190435 </v>
   <v>       0.00120341      -0.00069751      -0.00076647 </v>
   <v>       0.00123197       0.00162423      -0.00045344 </v>
   <v>      -0.00135330       0.00289288      -0.00080882 </v>
   <v>       0.00053306       0.00193085       0.00035026 </v>
   <v>      -0.00076499      -0.00003657      -0.00139400 </v>
   <v>      -0.00119817      -0.00021905      -0.00512825 </v>
   <v>       0.00052231       0.00048018      -0.00215626 </v>
   <v>       0.00998090       0.00203570      -0.00185482 </v>
   <v>       0.00269108       0.00234439       0.00043288 </v>
   <v>       0.00142720       0.00340436       0.00030039 </v>
   <v>       0.00199273       0.00206000       0.00018950 </v>
   <v>       0.00088872       0.00007164      -0.00052206 </v>
   <v>       0.00606394      -0.00041930      -0.00085947 </v>
   <v>       0.00052943       0.00050381      -0.00060600 </v>
   <v>       0.00082080      -0.00009631      -0.00014049 </v>
   <v>       0.00070859      -0.00058460       0.00058239 </v>
   <v>      -0.00086691       0.00004625      -0.00090202 </v>
   <v>       0.00013761      -0.00068419      -0.00083874 </v>
   <v>      -0.00019224       0.00000766      -0.00152012 </v>
   <v>       0.00072349      -0.00144067      -0.00204251 </v>
   <v>       0.00072077      -0.00159965      -0.00504142 </v>
   <v>       0.00033425       0.00022585      -0.00315919 </v>
   <v>       0.00035761      -0.00080799      -0.00252057 </v>
   <v>      -0.00025628      -0.00038693      -0.00319152 </v>
   <v>      -0.00053062      -0.00103622      -0.00248382 </v>
   <v>       0.00101475      -0.00805487      -0.00265899 </v>
   <v>      -0.00041111      -0.00055969      -0.00313921 </v>
   <v>      -0.00325026       0.00374648      -0.00214859 </v>
   <v>      -0.00185746       0.00184221      -0.00215430 </v>
   <v>      -0.00011904       0.00002599      -0.00123614 </v>
   <v>      -0.00382079      -0.00019486      -0.00249851 </v>
   <v>      -0.00062562       0.00135412      -0.00246479 </v>
   <v>      -0.00062565       0.00235858      -0.00182468 </v>
   <v>      -0.00045041       0.00038048      -0.00241500 </v>
   <v>       0.00884142      -0.00534685      -0.00094897 </v>
   <v>       0.00267515      -0.00432064      -0.00212342 </v>
   <v>       0.00200763      -0.00119536      -0.00081355 </v>
   <v>       0.00000322      -0.00091382      -0.00230969 </v>
   <v>      -0.00175696       0.00117538      -0.00240825 </v>
   <v>      -0.00366811       0.00011029      -0.00098334 </v>
   <v>      -0.00148071       0.00048921      -0.00016833 </v>
   <v>      -0.00088530      -0.00182791      -0.00034354 </v>
   <v>       0.00064335      -0.00267679      -0.00019831 </v>
   <v>      -0.00102730      -0.00043512      -0.00008807 </v>
   <v>      -0.00021168      -0.00077636      -0.00519429 </v>
   <v>      -0.00391463      -0.00082443       0.00014773 </v>
   <v>      -0.00352234      -0.00405240       0.00096894 </v>
   <v>      -0.00288144      -0.00404303       0.00076156 </v>
   <v>      -0.00117220       0.00002997       0.00049550 </v>
   <v>      -0.00083885       0.00035058      -0.00526720 </v>
   <v>      -0.00214752       0.00102863      -0.00085259 </v>
   <v>      -0.00193266       0.00046099       0.00008969 </v>
   <v>      -0.00032769       0.00036890      -0.00057036 </v>
   <v>      -0.00082906       0.00115674      -0.00183565 </v>
   <v>      -0.00036025       0.00012323      -0.00165636 </v>
   <v>       0.00007299       0.00027277      -0.00252542 </v>
   <v>       0.00007710       0.00090554      -0.00157097 </v>
   <v>       0.00013340       0.00333093      -0.00349189 </v>
   <v>       0.00161557       0.00064864      -0.00372172 </v>
   <v>       0.00108825      -0.00311953      -0.00168709 </v>
   <v>       0.00042955      -0.00221106      -0.00166617 </v>
   <v>      -0.00091425      -0.00002166      -0.00265190 </v>
   <v>      -0.00118827       0.00066093      -0.00270710 </v>
   <v>       0.00015651       0.00061600      -0.00331854 </v>
   <v>      -0.00032326       0.00356449      -0.00242024 </v>
   <v>      -0.00009233       0.00441604      -0.00311843 </v>
   <v>       0.00269013      -0.00121768      -0.00255211 </v>
   <v>       0.00332862      -0.00599498      -0.00225167 </v>
   <v>      -0.00073066      -0.00074209      -0.00202610 </v>
   <v>       0.00254198       0.00386998      -0.00277091 </v>
   <v>      -0.00517199      -0.00054239      -0.00160567 </v>
   <v>      -0.00007299      -0.00266792      -0.00357120 </v>
   <v>       0.00154403       0.00257240      -0.00155253 </v>
   <v>      -0.00035400      -0.00051389      -0.00857135 </v>
   <v>       0.00119523       0.00093134      -0.00081873 </v>
   <v>      -0.00096327       0.00109703      -0.00336788 </v>
   <v>       0.00016891      -0.00069465      -0.00670420 </v>
   <v>       0.00057977       0.00078399      -0.00709924 </v>
   <v>      -0.00038327      -0.00017384      -0.00309641 </v>
   <v>       0.00563975      -0.00833198      -0.01435730 </v>
   <v>       0.00090851       0.01312871      -0.00640074 </v>
   <v>      -0.00320658      -0.01065819       0.19359550 </v>
  </varray>
  <varray name="stress" >
   <v>      -9.33956342       0.07530822      -0.00107751 </v>
   <v>       0.07530787      -9.40427421       0.00494796 </v>
   <v>      -0.00107735       0.00494792      -0.21278783 </v>
  </varray>
  <energy>
   <i name="e_fr_energy">   -830.54260475 </i>
   <i name="e_wo_entrp">   -830.54260308 </i>
   <i name="e_0_energy">   -830.54260392 </i>
  </energy>
  <time name="totalsc"> 1901.46 1914.83</time>
 </calculation>
 <calculation>
  <scstep>
   <time name="dav">   76.97   77.55</time>
   <time name="total">   90.41   91.07</time>
   <energy>
    <i name="alphaZ">    185.49599500 </i>
    <i name="ewald">  38102.47990958 </i>
    <i name="hartreedc"> -51311.77669597 </i>
    <i name="XCdc">   1356.85678681 </i>
    <i name="pawpsdc">  38417.87375815 </i>
    <i name="pawaedc"> -38494.42611090 </i>
    <i name="eentropy">     -0.00000171 </i>
    <i name="bandstr">  -4509.49232517 </i>
    <i name="atom">  15429.98794498 </i>
    <i name="e_fr_energy">   -823.00073923 </i>
    <i name="e_wo_entrp">   -823.00073752 </i>
    <i name="e_0_energy">   -823.00073837 </i>
   </energy>
  </scstep>
  <scstep>
   <time name="dav">   82.90   83.48</time>
   <time name="total">   96.49   97.16</time>
   <energy>
    <i name="e_fr_energy">   -823.00074216 </i>
    <i name="e_wo_entrp">   -823.00074049 </i>
    <i name="e_0_energy">   -823.00074133 </i>
   </energy>
  </scstep>
  <scstep>
   <time name="dav">   63.16   63.66</time>
   <time name="total">   70.21   70.74</time>
   <energy>
    <i name="alphaZ">    185.49599500 </i>
    <i name="ewald">  38102.47990958 </i>
    <i name="hartreedc"> -51311.77459797 </i>
    <i name="XCdc">   1356.85673299 </i>
    <i name="pawpsdc">  38417.79505982 </i>
    <i name="pawaedc"> -38494.34737933 </i>
    <i name="eentropy">     -0.00000164 </i>
    <i name="bandstr">  -4509.49440485 </i>
    <i name="atom">  15429.98794498 </i>
    <i name="e_fr_energy">   -823.00074142 </i>
    <i name="e_wo_entrp">   -823.00073978 </i>
    <i name="e_0_energy">   -823.00074060 </i>
   </energy>
  </scstep>
  <structure>
   <crystal>
    <varray name="basis" >
     <v>      17.27103806       0.00000000       0.00000000 </v>
     <v>      -8.63551903      14.95715771       0.00000000 </v>
     <v>       0.00000000       0.00000000      15.00000000 </v>
    </varray>
    <i name="volume">   3874.88459904 </i>
    <varray name="rec_basis" >
     <v>       0.05790040       0.03342881      -0.00000000 </v>
     <v>       0.00000000       0.06685762       0.00000000 </v>
     <v>       0.00000000      -0.00000000       0.06666667 </v>
    </varray>
   </crystal>
   <varray name="positions" >
    <v>       0.99878974       0.00155949       0.49622031 </v>
    <v>       0.99902463       0.14460562       0.49625831 </v>
    <v>       0.99990692       0.28828817       0.49637101 </v>
    <v>       0.00048586       0.43139365       0.49581728 </v>
    <v>       0.00092707       0.57419251       0.49522792 </v>
    <v>       0.00124588       0.71712700       0.49542253 </v>
    <v>       0.99974000       0.85964317       0.49593764 </v>
    <v>       0.14305446       0.00316690       0.49692616 </v>
    <v>       0.14261977       0.14538904       0.49666676 </v>
    <v>       0.14210248       0.28723108       0.49658248 </v>
    <v>       0.14385464       0.43143508       0.49619849 </v>
    <v>       0.14485381       0.57417333       0.49563924 </v>
    <v>       0.14426877       0.71711849       0.49556137 </v>
    <v>       0.14340035       0.86024854       0.49637114 </v>
    <v>       0.28615391       0.00348117       0.49652175 </v>
    <v>       0.28654001       0.14690466       0.49667050 </v>
    <v>       0.28727630       0.29211313       0.49571116 </v>
    <v>       0.28501669       0.42637270       0.49552311 </v>
    <v>       0.29017706       0.57438235       0.49482127 </v>
    <v>       0.28762289       0.71778074       0.49511930 </v>
    <v>       0.28642214       0.86064765       0.49576081 </v>
    <v>       0.42915747       0.00396086       0.49578915 </v>
    <v>       0.42916411       0.14779304       0.49577339 </v>
    <v>       0.42942986       0.86032192       0.49505980 </v>
    <v>       0.57138202       0.00339722       0.49548835 </v>
    <v>       0.57138707       0.14692766       0.49539105 </v>
    <v>       0.57360370       0.29381924       0.49404691 </v>
    <v>       0.57339803       0.85895317       0.49415687 </v>
    <v>       0.71353900       0.00245137       0.49504225 </v>
    <v>       0.71413103       0.14614573       0.49566574 </v>
    <v>       0.71387761       0.28932027       0.49480553 </v>
    <v>       0.71020808       0.42939212       0.49292996 </v>
    <v>       0.70852891       0.85784193       0.49263424 </v>
    <v>       0.85566446       0.00140994       0.49507770 </v>
    <v>       0.85653884       0.14528124       0.49584260 </v>
    <v>       0.85688419       0.28854709       0.49558705 </v>
    <v>       0.85705440       0.43151865       0.49467272 </v>
    <v>       0.85736593       0.57404488       0.49382421 </v>
    <v>       0.85817690       0.71639737       0.49331502 </v>
    <v>       0.85447757       0.85749322       0.49413913 </v>
    <v>       0.04696013       0.09718677       0.49645847 </v>
    <v>       0.04663003       0.23976387       0.49658650 </v>
    <v>       0.04807599       0.38380353       0.49626789 </v>
    <v>       0.04905024       0.52672127       0.49563693 </v>
    <v>       0.04881128       0.66955977       0.49545813 </v>
    <v>       0.04794986       0.81234473       0.49603398 </v>
    <v>       0.04735230       0.95479825       0.49651337 </v>
    <v>       0.19079667       0.09834348       0.49694698 </v>
    <v>       0.19066085       0.24067979       0.49638404 </v>
    <v>       0.18965242       0.38212824       0.49629434 </v>
    <v>       0.19327017       0.52695164       0.49571638 </v>
    <v>       0.19216994       0.66972455       0.49543361 </v>
    <v>       0.19132544       0.81269896       0.49591770 </v>
    <v>       0.19097252       0.95559530       0.49673274 </v>
    <v>       0.33395348       0.09927777       0.49644991 </v>
    <v>       0.33767520       0.24293193       0.49546616 </v>
    <v>       0.33930074       0.67331431       0.49463893 </v>
    <v>       0.33433971       0.81287840       0.49518098 </v>
    <v>       0.33373421       0.95591884       0.49603578 </v>
    <v>       0.47646945       0.09942602       0.49569064 </v>
    <v>       0.47408895       0.24400517       0.49461104 </v>
    <v>       0.47448986       0.80952081       0.49451034 </v>
    <v>       0.47653110       0.95595840       0.49544095 </v>
    <v>       0.61873404       0.09878738       0.49562868 </v>
    <v>       0.61866902       0.24266171       0.49480391 </v>
    <v>       0.61847328       0.95483541       0.49497308 </v>
    <v>       0.76143844       0.09815691       0.49565643 </v>
    <v>       0.76168446       0.24129272       0.49536538 </v>
    <v>       0.76125169       0.38438469       0.49416328 </v>
    <v>       0.76076221       0.52904258       0.49173058 </v>
    <v>       0.76285003       0.66504748       0.48961914 </v>
    <v>       0.75757887       0.80796402       0.49136701 </v>
    <v>       0.76020636       0.95401005       0.49429853 </v>
    <v>       0.90357361       0.09673968       0.49579860 </v>
    <v>       0.90444342       0.24074351       0.49599805 </v>
    <v>       0.90477018       0.38404468       0.49536477 </v>
    <v>       0.90530897       0.52675886       0.49468410 </v>
    <v>       0.90576532       0.66910714       0.49432798 </v>
    <v>       0.90399683       0.81147612       0.49456812 </v>
    <v>       0.90295785       0.95317197       0.49536644 </v>
    <v>       0.71537081       0.71387966       0.48695346 </v>
    <v>       0.33227170       0.52247716       0.49424010 </v>
    <v>       0.62726166       0.66539863       0.47948661 </v>
    <v>       0.42093377       0.56216236       0.49214085 </v>
    <v>       0.42766773       0.28789364       0.49374710 </v>
    <v>       0.42919298       0.71937995       0.49425139 </v>
    <v>       0.71688559       0.57431245       0.48832043 </v>
    <v>       0.33123239       0.38158591       0.49534444 </v>
    <v>       0.62007600       0.38429341       0.49304442 </v>
    <v>       0.61862825       0.81406093       0.49284167 </v>
    <v>       0.46206864       0.44426661       0.51841370 </v>
    <v>       0.55736434       0.45749289       0.51561576 </v>
    <v>       0.52401095       0.48655414       0.53488797 </v>
   </varray>
  </structure>
  <varray name="forces" >
   <v>       0.00085980      -0.00110974      -0.00124854 </v>
   <v>      -0.00194548       0.00000253      -0.00221752 </v>
   <v>      -0.00156080       0.00116247      -0.00323033 </v>
   <v>       0.00011405       0.00310496      -0.00226695 </v>
   <v>      -0.00058716       0.00222359      -0.00259396 </v>
   <v>       0.00236103      -0.00222325      -0.00244231 </v>
   <v>       0.00832742      -0.01171316      -0.00181061 </v>
   <v>       0.00270029      -0.00175964      -0.00047192 </v>
   <v>       0.00423928      -0.00352129      -0.00172305 </v>
   <v>      -0.00204126       0.00043441      -0.00242638 </v>
   <v>      -0.00215068       0.00188134      -0.00191245 </v>
   <v>      -0.00121135       0.00142021      -0.00074378 </v>
   <v>      -0.00132823      -0.00145166      -0.00190007 </v>
   <v>       0.00266146      -0.00313886      -0.00066893 </v>
   <v>      -0.00119424      -0.00190249       0.00055510 </v>
   <v>       0.00017335      -0.00081502      -0.00138768 </v>
   <v>       0.00032297      -0.00058817      -0.00532782 </v>
   <v>      -0.00046884      -0.00167461      -0.00121010 </v>
   <v>      -0.01135101      -0.00179658       0.00011668 </v>
   <v>      -0.00331670      -0.00218072       0.00070255 </v>
   <v>      -0.00214566      -0.00358060       0.00057948 </v>
   <v>      -0.00267396      -0.00154504       0.00054299 </v>
   <v>      -0.00128999       0.00000220      -0.00059033 </v>
   <v>      -0.00698639       0.00120981       0.00066640 </v>
   <v>      -0.00085600       0.00027578      -0.00052036 </v>
   <v>      -0.00081272       0.00050035      -0.00008659 </v>
   <v>       0.00034017       0.00144034      -0.00250436 </v>
   <v>      -0.00010451      -0.00006477      -0.00117236 </v>
   <v>      -0.00064934       0.00078807      -0.00274476 </v>
   <v>       0.00018637       0.00019540      -0.00150673 </v>
   <v>      -0.00058600       0.00187561      -0.00217475 </v>
   <v>       0.00034696       0.00182048      -0.00516024 </v>
   <v>      -0.00086644      -0.00091694      -0.00302932 </v>
   <v>      -0.00131240       0.00057724      -0.00254941 </v>
   <v>      -0.00039135       0.00059688      -0.00327333 </v>
   <v>       0.00067561       0.00162983      -0.00255012 </v>
   <v>      -0.00056384       0.00933225      -0.00325449 </v>
   <v>       0.00105012       0.00115419      -0.00319936 </v>
   <v>       0.00368426      -0.00485910      -0.00205192 </v>
   <v>       0.00164857      -0.00287405      -0.00208988 </v>
   <v>      -0.00133977      -0.00012092      -0.00111913 </v>
   <v>       0.00357045       0.00025831      -0.00270434 </v>
   <v>       0.00083896      -0.00141913      -0.00250012 </v>
   <v>       0.00091200      -0.00211536      -0.00179804 </v>
   <v>       0.00061293      -0.00006905      -0.00233335 </v>
   <v>      -0.00977905       0.00688079      -0.00223348 </v>
   <v>      -0.00404596       0.00481230      -0.00013000 </v>
   <v>      -0.00370689       0.00148159      -0.00063269 </v>
   <v>      -0.00144408       0.00080614      -0.00227072 </v>
   <v>       0.00209827      -0.00142399      -0.00229113 </v>
   <v>       0.00418742      -0.00014900      -0.00108445 </v>
   <v>       0.00206671       0.00058328      -0.00000464 </v>
   <v>       0.00118555       0.00294379      -0.00019622 </v>
   <v>      -0.00160815       0.00363928      -0.00006765 </v>
   <v>       0.00063506       0.00086956      -0.00009152 </v>
   <v>      -0.00161872       0.00207999      -0.00445547 </v>
   <v>       0.00471253       0.00164220      -0.00002646 </v>
   <v>       0.00415762       0.00596473      -0.00048687 </v>
   <v>       0.00287537       0.00499984      -0.00023635 </v>
   <v>       0.00116622       0.00069315       0.00060467 </v>
   <v>       0.00033237       0.00001554      -0.00461377 </v>
   <v>       0.00192026      -0.00020315      -0.00076746 </v>
   <v>       0.00199162       0.00045594       0.00006979 </v>
   <v>       0.00038351       0.00015879      -0.00051216 </v>
   <v>       0.00098339      -0.00069036      -0.00108759 </v>
   <v>      -0.00003519      -0.00003195      -0.00128056 </v>
   <v>      -0.00037966      -0.00043443      -0.00236608 </v>
   <v>      -0.00003316      -0.00054074      -0.00170885 </v>
   <v>       0.00053379      -0.00372109      -0.00336733 </v>
   <v>      -0.00133571      -0.00068899      -0.00405192 </v>
   <v>      -0.00067795       0.00349857      -0.00324689 </v>
   <v>      -0.00010174       0.00244223      -0.00179975 </v>
   <v>       0.00051592      -0.00055033      -0.00254141 </v>
   <v>       0.00051401      -0.00093388      -0.00278895 </v>
   <v>      -0.00036464      -0.00034932      -0.00339794 </v>
   <v>       0.00070184      -0.00365322      -0.00245844 </v>
   <v>       0.00050794      -0.00481635      -0.00313986 </v>
   <v>      -0.00307939       0.00199861      -0.00265830 </v>
   <v>      -0.00353990       0.00669917      -0.00089962 </v>
   <v>      -0.00003560       0.00029640      -0.00198301 </v>
   <v>      -0.00010870      -0.00366173      -0.00291764 </v>
   <v>       0.00926881       0.00107153      -0.00151790 </v>
   <v>       0.00257280      -0.00056518      -0.00314871 </v>
   <v>      -0.00224400      -0.00258845       0.00086733 </v>
   <v>      -0.00071937      -0.00047456      -0.00865553 </v>
   <v>      -0.00210972      -0.00087333      -0.00066314 </v>
   <v>       0.00133902      -0.00167848      -0.00308665 </v>
   <v>      -0.00077735      -0.00013610      -0.00661112 </v>
   <v>       0.00034847      -0.00058082      -0.00660503 </v>
   <v>      -0.00025808       0.00010406      -0.00290571 </v>
   <v>       0.00695087      -0.00674046      -0.01329500 </v>
   <v>       0.00013448       0.01339659      -0.00570345 </v>
   <v>      -0.00197280      -0.01249427       0.19177808 </v>
  </varray>
  <varray name="stress" >
   <v>      -9.34408366       0.07133757      -0.00225989 </v>
   <v>       0.07133720      -9.40261361       0.00418018 </v>
   <v>      -0.00225973       0.00418015      -0.20726883 </v>
  </varray>
  <energy>
   <i name="e_fr_energy">   -830.54262926 </i>
   <i name="e_wo_entrp">   -830.54262762 </i>
   <i name="e_0_energy">   -830.54262844 </i>
  </energy>
  <time name="totalsc">  513.34  516.92</time>
 </calculation>
 <calculation>
  <scstep>
   <time name="dav">   77.08   77.62</time>
   <time name="total">   90.94   91.56</time>
   <energy>
    <i name="alphaZ">    185.49599500 </i>
    <i name="ewald">  38102.56655013 </i>
    <i name="hartreedc"> -51311.83260896 </i>
    <i name="XCdc">   1356.85763884 </i>
    <i name="pawpsdc">  38417.69697441 </i>
    <i name="pawaedc"> -38494.24918955 </i>
    <i name="eentropy">     -0.00000160 </i>
    <i name="bandstr">  -4509.52405214 </i>
    <i name="atom">  15429.98794498 </i>
    <i name="e_fr_energy">   -823.00074889 </i>
    <i name="e_wo_entrp">   -823.00074729 </i>
    <i name="e_0_energy">   -823.00074809 </i>
   </energy>
  </scstep>
  <scstep>
   <time name="dav">   81.77   82.32</time>
   <time name="total">   95.00   95.64</time>
   <energy>
    <i name="e_fr_energy">   -823.00075526 </i>
    <i name="e_wo_entrp">   -823.00075364 </i>
    <i name="e_0_energy">   -823.00075445 </i>
   </energy>
  </scstep>
  <scstep>
   <time name="dav">   74.90   75.47</time>
   <time name="total">   85.91   86.55</time>
   <energy>
    <i name="e_fr_energy">   -823.00075399 </i>
    <i name="e_wo_entrp">   -823.00075237 </i>
    <i name="e_0_energy">   -823.00075318 </i>
   </energy>
  </scstep>
  <scstep>
   <time name="dav">   42.52   42.96</time>
   <time name="total">   48.68   49.15</time>
   <energy>
    <i name="alphaZ">    185.49599500 </i>
    <i name="ewald">  38102.56655013 </i>
    <i name="hartreedc"> -51311.84554488 </i>
    <i name="XCdc">   1356.85844693 </i>
    <i name="pawpsdc">  38417.80027860 </i>
    <i name="pawaedc"> -38494.35275852 </i>
    <i name="eentropy">     -0.00000161 </i>
    <i name="bandstr">  -4509.51166408 </i>
    <i name="atom">  15429.98794498 </i>
    <i name="e_fr_energy">   -823.00075346 </i>
    <i name="e_wo_entrp">   -823.00075184 </i>
    <i name="e_0_energy">   -823.00075265 </i>
   </energy>
  </scstep>
  <structure>
   <crystal>
    <varray name="basis" >
     <v>      17.27103806       0.00000000       0.00000000 </v>
     <v>      -8.63551903      14.95715771       0.00000000 </v>
     <v>       0.00000000       0.00000000      15.00000000 </v>
    </varray>
    <i name="volume">   3874.88459904 </i>
    <varray name="rec_basis" >
     <v>       0.05790040       0.03342881      -0.00000000 </v>
     <v>       0.00000000       0.06685762       0.00000000 </v>
     <v>       0.00000000      -0.00000000       0.06666667 </v>
    </varray>
   </crystal>
   <varray name="positions" >
    <v>       0.99878995       0.00155769       0.49621972 </v>
    <v>       0.99902182       0.14460560       0.49625602 </v>
    <v>       0.99990559       0.28829002       0.49636692 </v>
    <v>       0.00048847       0.43139863       0.49581490 </v>
    <v>       0.00092807       0.57419612       0.49522531 </v>
    <v>       0.00124740       0.71712348       0.49542031 </v>
    <v>       0.99974213       0.85962441       0.49593628 </v>
    <v>       0.14305669       0.00316402       0.49692656 </v>
    <v>       0.14262263       0.14538328       0.49666510 </v>
    <v>       0.14209986       0.28723174       0.49657962 </v>
    <v>       0.14385310       0.43143808       0.49619665 </v>
    <v>       0.14485324       0.57417562       0.49563959 </v>
[...]
       <r>   -18.4872     9.4233    30.8284 </r>
       <r>   -18.3654     4.3178    31.3542 </r>
       <r>   -18.2436     6.0537    32.0914 </r>
       <r>   -18.1219     6.3275    32.8619 </r>
       <r>   -18.0001     7.1494    33.7326 </r>
       <r>   -17.8783     3.4762    34.1559 </r>
       <r>   -17.7565    13.6640    35.8198 </r>
       <r>   -17.6348    12.6619    37.3618 </r>
       <r>   -17.5130     3.1378    37.7439 </r>
       <r>   -17.3912     5.9261    38.4655 </r>
       <r>   -17.2694    11.1150    39.8191 </r>
       <r>   -17.1476     8.2526    40.8240 </r>
       <r>   -17.0259     5.2221    41.4600 </r>
       <r>   -16.9041     6.0570    42.1976 </r>
       <r>   -16.7823     7.1201    43.0646 </r>
       <r>   -16.6605    15.9478    45.0067 </r>
       <r>   -16.5388     5.7106    45.7021 </r>
       <r>   -16.4170     4.1554    46.2082 </r>
       <r>   -16.2952     0.3435    46.2500 </r>
       <r>   -16.1734     0.0104    46.2513 </r>
       <r>   -16.0517     1.8557    46.4772 </r>
       <r>   -15.9299     7.0908    47.3407 </r>
       <r>   -15.8081     8.4210    48.3662 </r>
       <r>   -15.6863     4.7346    48.9428 </r>
       <r>   -15.5646     2.8601    49.2911 </r>
       <r>   -15.4428     9.7569    50.4792 </r>
       <r>   -15.3210    13.3212    52.1014 </r>
       <r>   -15.1992     7.6612    53.0344 </r>
       <r>   -15.0774     6.7018    53.8505 </r>
       <r>   -14.9557     8.4641    54.8813 </r>
       <r>   -14.8339     9.3665    56.0219 </r>
       <r>   -14.7121     8.0880    57.0068 </r>
       <r>   -14.5903    13.3163    58.6284 </r>
       <r>   -14.4686     8.9110    59.7136 </r>
       <r>   -14.3468     3.9313    60.1923 </r>
       <r>   -14.2250     4.7865    60.7752 </r>
       <r>   -14.1032     3.7079    61.2267 </r>
       <r>   -13.9815     7.5368    62.1445 </r>
       <r>   -13.8597     9.1889    63.2635 </r>
       <r>   -13.7379    11.4720    64.6606 </r>
       <r>   -13.6161     7.5691    65.5823 </r>
       <r>   -13.4943     5.7059    66.2771 </r>
       <r>   -13.3726     1.8275    66.4997 </r>
       <r>   -13.2508     4.1311    67.0028 </r>
       <r>   -13.1290     5.6158    67.6866 </r>
       <r>   -13.0072     7.2919    68.5746 </r>
       <r>   -12.8855     9.7542    69.7625 </r>
       <r>   -12.7637    17.3891    71.8800 </r>
       <r>   -12.6419     5.1180    72.5033 </r>
       <r>   -12.5201     9.6086    73.6734 </r>
       <r>   -12.3984     8.8605    74.7524 </r>
       <r>   -12.2766     5.7669    75.4547 </r>
       <r>   -12.1548     2.6193    75.7736 </r>
       <r>   -12.0330     9.2641    76.9018 </r>
       <r>   -11.9113     7.2931    77.7899 </r>
       <r>   -11.7895    11.7137    79.2164 </r>
       <r>   -11.6677    14.1123    80.9349 </r>
       <r>   -11.5459    11.7917    82.3709 </r>
       <r>   -11.4241     9.8842    83.5745 </r>
       <r>   -11.3024    13.3173    85.1963 </r>
       <r>   -11.1806     9.9727    86.4107 </r>
       <r>   -11.0588     6.6110    87.2158 </r>
       <r>   -10.9370     4.4638    87.7594 </r>
       <r>   -10.8153     4.4435    88.3005 </r>
       <r>   -10.6935    10.0356    89.5226 </r>
       <r>   -10.5717    15.5812    91.4200 </r>
       <r>   -10.4499    11.5642    92.8283 </r>
       <r>   -10.3282    14.0810    94.5430 </r>
       <r>   -10.2064    14.8641    96.3531 </r>
       <r>   -10.0846    16.9913    98.4222 </r>
       <r>    -9.9628    17.4548   100.5478 </r>
       <r>    -9.8410    18.3599   102.7836 </r>
       <r>    -9.7193    19.7498   105.1887 </r>
       <r>    -9.5975    18.3071   107.4181 </r>
       <r>    -9.4757    23.9038   110.3290 </r>
       <r>    -9.3539    16.1717   112.2983 </r>
       <r>    -9.2322    23.0053   115.0998 </r>
       <r>    -9.1104    26.5352   118.3312 </r>
       <r>    -8.9886    24.1861   121.2765 </r>
       <r>    -8.8668    17.2785   123.3806 </r>
       <r>    -8.7451    14.3330   125.1260 </r>
       <r>    -8.6233    18.3609   127.3620 </r>
       <r>    -8.5015    19.6690   129.7572 </r>
       <r>    -8.3797    27.8838   133.1528 </r>
       <r>    -8.2580    17.1478   135.2410 </r>
       <r>    -8.1362    13.0876   136.8348 </r>
       <r>    -8.0144     9.7917   138.0271 </r>
       <r>    -7.8926    12.0168   139.4905 </r>
       <r>    -7.7708     7.8910   140.4515 </r>
       <r>    -7.6491    10.9781   141.7883 </r>
       <r>    -7.5273    22.2611   144.4992 </r>
       <r>    -7.4055    23.7983   147.3973 </r>
       <r>    -7.2837    13.1333   148.9966 </r>
       <r>    -7.1620     8.7620   150.0636 </r>
       <r>    -7.0402    12.4566   151.5805 </r>
       <r>    -6.9184    15.8579   153.5117 </r>
       <r>    -6.7966    11.4646   154.9078 </r>
       <r>    -6.6749    12.4905   156.4288 </r>
       <r>    -6.5531     9.3943   157.5728 </r>
       <r>    -6.4313    24.8968   160.6047 </r>
       <r>    -6.3095     8.5183   161.6420 </r>
       <r>    -6.1878    10.4882   162.9192 </r>
       <r>    -6.0660    12.7697   164.4743 </r>
       <r>    -5.9442     5.2372   165.1121 </r>
       <r>    -5.8224     9.9685   166.3260 </r>
       <r>    -5.7006     3.3232   166.7307 </r>
       <r>    -5.5789     7.7447   167.6738 </r>
       <r>    -5.4571    12.7870   169.2310 </r>
       <r>    -5.3353    11.3697   170.6155 </r>
       <r>    -5.2135    20.2229   173.0782 </r>
       <r>    -5.0918    15.9187   175.0167 </r>
       <r>    -4.9700     8.3127   176.0290 </r>
       <r>    -4.8482     1.8094   176.2494 </r>
       <r>    -4.7264     1.2074   176.3964 </r>
       <r>    -4.6047     7.7438   177.3394 </r>
       <r>    -4.4829    15.7239   179.2542 </r>
       <r>    -4.3611    19.7593   181.6604 </r>
       <r>    -4.2393    21.3359   184.2587 </r>
       <r>    -4.1175    12.1957   185.7438 </r>
       <r>    -3.9958     9.7195   186.9274 </r>
       <r>    -3.8740     1.4846   187.1082 </r>
       <r>    -3.7522     1.6751   187.3122 </r>
       <r>    -3.6304     6.1435   188.0603 </r>
       <r>    -3.5087     1.5647   188.2509 </r>
       <r>    -3.3869     1.6603   188.4531 </r>
       <r>    -3.2651     0.3854   188.5000 </r>
       <r>    -3.1433     0.0041   188.5005 </r>
       <r>    -3.0216     3.4442   188.9199 </r>
       <r>    -2.8998     8.7406   189.9843 </r>
       <r>    -2.7780     0.1312   190.0003 </r>
       <r>    -2.6562     2.3258   190.2835 </r>
       <r>    -2.5345     1.7769   190.4999 </r>
       <r>    -2.4127     0.0008   190.5000 </r>
       <r>    -2.2909     0.6097   190.5743 </r>
       <r>    -2.1691     3.1717   190.9605 </r>
       <r>    -2.0473     1.8494   191.1857 </r>
       <r>    -1.9256     6.5918   191.9884 </r>
       <r>    -1.8038     0.3454   192.0305 </r>
       <r>    -1.6820     4.4934   192.5777 </r>
       <r>    -1.5602     5.3770   193.2325 </r>
       <r>    -1.4385     2.1951   193.4998 </r>
       <r>    -1.3167     0.9141   193.6111 </r>
       <r>    -1.1949    11.2883   194.9858 </r>
       <r>    -1.0731    14.9299   196.8039 </r>
       <r>    -0.9514     7.2587   197.6878 </r>
       <r>    -0.8296     9.1660   198.8040 </r>
       <r>    -0.7078     7.7435   199.7470 </r>
       <r>    -0.5860     4.4991   200.2949 </r>
       <r>    -0.4643     8.5943   201.3415 </r>
       <r>    -0.3425     7.7270   202.2824 </r>
       <r>    -0.2207    11.2404   203.6513 </r>
       <r>    -0.0989    12.6762   205.1949 </r>
       <r>     0.0229     5.0196   205.8062 </r>
       <r>     0.1446     2.0398   206.0546 </r>
       <r>     0.2664     4.3282   206.5817 </r>
       <r>     0.3882     5.8571   207.2949 </r>
       <r>     0.5100     8.8155   208.3684 </r>
       <r>     0.6317     4.1701   208.8763 </r>
       <r>     0.7535     4.4491   209.4181 </r>
       <r>     0.8753     9.9127   210.6252 </r>
       <r>     0.9971     8.2003   211.6238 </r>
       <r>     1.1188     7.5013   212.5373 </r>
       <r>     1.2406    14.1806   214.2641 </r>
       <r>     1.3624    16.7223   216.3005 </r>
       <r>     1.4842    11.7444   217.7307 </r>
       <r>     1.6060     6.0337   218.4655 </r>
       <r>     1.7277     6.2283   219.2240 </r>
       <r>     1.8495    10.0546   220.4484 </r>
       <r>     1.9713    29.2658   224.0123 </r>
       <r>     2.0931    11.5052   225.4133 </r>
       <r>     2.2148     8.3333   226.4281 </r>
       <r>     2.3366    18.9305   228.7334 </r>
       <r>     2.4584    21.4834   231.3496 </r>
       <r>     2.5802    14.8231   233.1547 </r>
       <r>     2.7019     7.5861   234.0785 </r>
       <r>     2.8237    35.5218   238.4042 </r>
       <r>     2.9455    45.5384   243.9497 </r>
       <r>     3.0673    13.1307   245.5488 </r>
       <r>     3.1890     9.2929   246.6804 </r>
       <r>     3.3108    15.1311   248.5230 </r>
       <r>     3.4326    29.5435   252.1207 </r>
       <r>     3.5544    13.6091   253.7780 </r>
       <r>     3.6762    10.3902   255.0433 </r>
       <r>     3.7979    30.7990   258.7939 </r>
       <r>     3.9197    28.1739   262.2248 </r>
       <r>     4.0415    19.2140   264.5646 </r>
       <r>     4.1633     3.5458   264.9964 </r>
       <r>     4.2850     0.0292   265.0000 </r>
       <r>     4.4068     0.0000   265.0000 </r>
       <r>     4.5286     0.0000   265.0000 </r>
       <r>     4.6504     0.0000   265.0000 </r>
       <r>     4.7721     0.0000   265.0000 </r>
       <r>     4.8939     0.0000   265.0000 </r>
       <r>     5.0157     0.0000   265.0000 </r>
       <r>     5.1375     0.0000   265.0000 </r>
       <r>     5.2593     0.0000   265.0000 </r>
       <r>     5.3810     0.0000   265.0000 </r>
       <r>     5.5028     0.0000   265.0000 </r>
       <r>     5.6246     0.0000   265.0000 </r>
       <r>     5.7464     0.0000   265.0000 </r>
      </set>
     </set>
    </array>
   </total>
  </dos>
 </calculation>
 <structure name="finalpos" >
  <crystal>
   <varray name="basis" >
    <v>      17.27103806       0.00000000       0.00000000 </v>
    <v>      -8.63551903      14.95715771       0.00000000 </v>
    <v>       0.00000000       0.00000000      15.00000000 </v>
   </varray>
   <i name="volume">   3874.88459904 </i>
   <varray name="rec_basis" >
    <v>       0.05790040       0.03342881      -0.00000000 </v>
    <v>       0.00000000       0.06685762       0.00000000 </v>
    <v>       0.00000000      -0.00000000       0.06666667 </v>
   </varray>
  </crystal>
  <varray name="positions" >
   <v>       0.99875429       0.00153622       0.49625028 </v>
   <v>       0.99899097       0.14459310       0.49622669 </v>
   <v>       0.99988029       0.28828093       0.49633577 </v>
   <v>       0.00047840       0.43139295       0.49581490 </v>
   <v>       0.00091529       0.57418950       0.49520251 </v>
   <v>       0.00122431       0.71711703       0.49543518 </v>
   <v>       0.99971442       0.85961474       0.49599154 </v>
   <v>       0.14302123       0.00313144       0.49707298 </v>
   <v>       0.14256508       0.14534393       0.49667414 </v>
   <v>       0.14206190       0.28720847       0.49645930 </v>
   <v>       0.14383839       0.43141970       0.49616555 </v>
   <v>       0.14484734       0.57416835       0.49568644 </v>
   <v>       0.14425300       0.71710684       0.49562244 </v>
   <v>       0.14339298       0.86023339       0.49650861 </v>
   <v>       0.28615279       0.00348504       0.49674367 </v>
   <v>       0.28649323       0.14687037       0.49664487 </v>
   <v>       0.28719538       0.29204021       0.49534133 </v>
   <v>       0.28499565       0.42633067       0.49527679 </v>
   <v>       0.29015654       0.57435784       0.49491156 </v>
   <v>       0.28760384       0.71777632       0.49527011 </v>
   <v>       0.28641325       0.86064617       0.49597513 </v>
   <v>       0.42914584       0.00397028       0.49604516 </v>
   <v>       0.42914962       0.14781774       0.49582265 </v>
   <v>       0.42940689       0.86032947       0.49525854 </v>
   <v>       0.57136164       0.00341028       0.49561631 </v>
   <v>       0.57136457       0.14694354       0.49553135 </v>
   <v>       0.57358973       0.29384853       0.49383412 </v>
   <v>       0.57337780       0.85896807       0.49432098 </v>
   <v>       0.71351677       0.00245924       0.49508355 </v>
   <v>       0.71410968       0.14615223       0.49570511 </v>
   <v>       0.71385810       0.28932298       0.49483449 </v>
   <v>       0.71022209       0.42938936       0.49281876 </v>
   <v>       0.70850954       0.85785740       0.49280167 </v>
   <v>       0.85563905       0.00140458       0.49509202 </v>
   <v>       0.85651642       0.14528195       0.49583130 </v>
   <v>       0.85686639       0.28854850       0.49559924 </v>
   <v>       0.85705207       0.43152177       0.49466300 </v>
   <v>       0.85735346       0.57404385       0.49379889 </v>
   <v>       0.85813548       0.71637910       0.49338268 </v>
   <v>       0.85445298       0.85748262       0.49423128 </v>
   <v>       0.04690767       0.09715650       0.49647667 </v>
   <v>       0.04659309       0.23974650       0.49651085 </v>
   <v>       0.04805932       0.38379249       0.49625186 </v>
   <v>       0.04903990       0.52671424       0.49564402 </v>
   <v>       0.04879337       0.66955187       0.49546247 </v>
   <v>       0.04793074       0.81233709       0.49610121 </v>
   <v>       0.04731518       0.95477546       0.49658679 </v>
   <v>       0.19074512       0.09830514       0.49701779 </v>
   <v>       0.19058774       0.24062819       0.49627666 </v>
   <v>       0.18963072       0.38210214       0.49616036 </v>
   <v>       0.19325863       0.52693566       0.49574876 </v>
   <v>       0.19215570       0.66971567       0.49551829 </v>
   <v>       0.19131743       0.81268924       0.49606227 </v>
   <v>       0.19096100       0.95558810       0.49693283 </v>
   <v>       0.33393465       0.09927989       0.49654115 </v>
   <v>       0.33761854       0.24288407       0.49508660 </v>
   <v>       0.33928533       0.67330282       0.49481555 </v>
   <v>       0.33433337       0.81288085       0.49536640 </v>
   <v>       0.33373027       0.95592486       0.49629387 </v>
   <v>       0.47645354       0.09944428       0.49589827 </v>
   <v>       0.47406949       0.24403031       0.49431263 </v>
   <v>       0.47446990       0.80952580       0.49471524 </v>
   <v>       0.47651496       0.95596092       0.49563163 </v>
   <v>       0.61872420       0.09880155       0.49572156 </v>
   <v>       0.61865177       0.24268096       0.49484485 </v>
   <v>       0.61846017       0.95484830       0.49507980 </v>
   <v>       0.76142078       0.09816095       0.49566983 </v>
   <v>       0.76167101       0.24129588       0.49539434 </v>
   <v>       0.76125543       0.38438031       0.49415314 </v>
   <v>       0.76075179       0.52903418       0.49176142 </v>
   <v>       0.76278962       0.66503877       0.48987232 </v>
   <v>       0.75755251       0.80797786       0.49159593 </v>
   <v>       0.76019070       0.95401875       0.49435469 </v>
   <v>       0.90354086       0.09672991       0.49577787 </v>
   <v>       0.90442031       0.24073739       0.49599498 </v>
   <v>       0.90476305       0.38403968       0.49536553 </v>
   <v>       0.90529583       0.52675088       0.49463646 </v>
   <v>       0.90573843       0.66910434       0.49433123 </v>
   <v>       0.90396405       0.81146531       0.49461644 </v>
   <v>       0.90292500       0.95316021       0.49539666 </v>
   <v>       0.71530702       0.71387809       0.48739271 </v>
   <v>       0.33226628       0.52245123       0.49425206 </v>
   <v>       0.62714005       0.66541933       0.48030137 </v>
   <v>       0.42091126       0.56216067       0.49236671 </v>
   <v>       0.42759863       0.28786702       0.49309067 </v>
   <v>       0.42917516       0.71938409       0.49446631 </v>
   <v>       0.71683660       0.57428514       0.48859733 </v>
   <v>       0.33115928       0.38149637       0.49478013 </v>
   <v>       0.62010244       0.38432171       0.49267042 </v>
   <v>       0.61861162       0.81407847       0.49303616 </v>
   <v>       0.46210238       0.44261779       0.51622824 </v>
   <v>       0.55870378       0.45929569       0.51439302 </v>
   <v>       0.52315498       0.48558443       0.53488797 </v>
  </varray>
  <varray name="selective"  type="logical" >
   <v type="logical" >  T  T  T </v>
   <v type="logical" >  T  T  T </v>
   <v type="logical" >  T  T  T </v>
   <v type="logical" >  T  T  T </v>
   <v type="logical" >  T  T  T </v>
   <v type="logical" >  T  T  T </v>
   <v type="logical" >  T  T  T </v>
   <v type="logical" >  T  T  T </v>
   <v type="logical" >  T  T  T </v>
   <v type="logical" >  T  T  T </v>
   <v type="logical" >  T  T  T </v>
   <v type="logical" >  T  T  T </v>
   <v type="logical" >  T  T  T </v>
   <v type="logical" >  T  T  T </v>
   <v type="logical" >  T  T  T </v>
   <v type="logical" >  T  T  T </v>
   <v type="logical" >  T  T  T </v>
   <v type="logical" >  T  T  T </v>
   <v type="logical" >  T  T  T </v>
   <v type="logical" >  T  T  T </v>
   <v type="logical" >  T  T  T </v>
   <v type="logical" >  T  T  T </v>
   <v type="logical" >  T  T  T </v>
   <v type="logical" >  T  T  T </v>
   <v type="logical" >  T  T  T </v>
   <v type="logical" >  T  T  T </v>
   <v type="logical" >  T  T  T </v>
   <v type="logical" >  T  T  T </v>
   <v type="logical" >  T  T  T </v>
   <v type="logical" >  T  T  T </v>
   <v type="logical" >  T  T  T </v>
   <v type="logical" >  T  T  T </v>
   <v type="logical" >  T  T  T </v>
   <v type="logical" >  T  T  T </v>
   <v type="logical" >  T  T  T </v>
   <v type="logical" >  T  T  T </v>
   <v type="logical" >  T  T  T </v>
   <v type="logical" >  T  T  T </v>
   <v type="logical" >  T  T  T </v>
   <v type="logical" >  T  T  T </v>
   <v type="logical" >  T  T  T </v>
   <v type="logical" >  T  T  T </v>
   <v type="logical" >  T  T  T </v>
   <v type="logical" >  T  T  T </v>
   <v type="logical" >  T  T  T </v>
   <v type="logical" >  T  T  T </v>
   <v type="logical" >  T  T  T </v>
   <v type="logical" >  T  T  T </v>
   <v type="logical" >  T  T  T </v>
   <v type="logical" >  T  T  T </v>
   <v type="logical" >  T  T  T </v>
   <v type="logical" >  T  T  T </v>
   <v type="logical" >  T  T  T </v>
   <v type="logical" >  T  T  T </v>
   <v type="logical" >  T  T  T </v>
   <v type="logical" >  T  T  T </v>
   <v type="logical" >  T  T  T </v>
   <v type="logical" >  T  T  T </v>
   <v type="logical" >  T  T  T </v>
   <v type="logical" >  T  T  T </v>
   <v type="logical" >  T  T  T </v>
   <v type="logical" >  T  T  T </v>
   <v type="logical" >  T  T  T </v>
   <v type="logical" >  T  T  T </v>
   <v type="logical" >  T  T  T </v>
   <v type="logical" >  T  T  T </v>
   <v type="logical" >  T  T  T </v>
   <v type="logical" >  T  T  T </v>
   <v type="logical" >  T  T  T </v>
   <v type="logical" >  T  T  T </v>
   <v type="logical" >  T  T  T </v>
   <v type="logical" >  T  T  T </v>
   <v type="logical" >  T  T  T </v>
   <v type="logical" >  T  T  T </v>
   <v type="logical" >  T  T  T </v>
   <v type="logical" >  T  T  T </v>
   <v type="logical" >  T  T  T </v>
   <v type="logical" >  T  T  T </v>
   <v type="logical" >  T  T  T </v>
   <v type="logical" >  T  T  T </v>
   <v type="logical" >  T  T  T </v>
   <v type="logical" >  T  T  T </v>
   <v type="logical" >  T  T  T </v>
   <v type="logical" >  T  T  T </v>
   <v type="logical" >  T  T  T </v>
   <v type="logical" >  T  T  T </v>
   <v type="logical" >  T  T  T </v>
   <v type="logical" >  T  T  T </v>
   <v type="logical" >  T  T  T </v>
   <v type="logical" >  T  T  T </v>
   <v type="logical" >  T  T  T </v>
   <v type="logical" >  T  T  T </v>
   <v type="logical" >  T  T  F </v>
  </varray>
  <nose>
   <v>      -3.00000000       0.00000000       0.00010000       0.00010000 </v>
  </nose>
 </structure>
</modeling>
