unknown system                          
            1
    17.271038    0.000000    0.000000
    -8.635519   14.957158    0.000000
     0.000000    0.000000   15.000000
   C    F    N    H    O 
    82     2     6     2     1
Direct configuration=     1
   0.99879134  0.00155880  0.49622060
   0.99902407  0.14460590  0.49626016
   0.99990638  0.28828909  0.49637428
   0.00048698  0.43139626  0.49581916
   0.00092708  0.57419419  0.49523001
   0.00124614  0.71712488  0.49542449
   0.99974048  0.85963019  0.49593759
   0.14305670  0.00316502  0.49692579
   0.14262361  0.14538537  0.49666652
   0.14210152  0.28723146  0.49658470
   0.14385378  0.43143692  0.49620001
   0.14485294  0.57417422  0.49563907
   0.14426634  0.71711638  0.49556072
   0.14340001  0.86024480  0.49637113
   0.28615210  0.00347868  0.49652035
   0.28654105  0.14690481  0.49667149
   0.28727807  0.29211364  0.49571691
   0.28501585  0.42637210  0.49552485
   0.29016468  0.57437974  0.49482228
   0.28761839  0.71777769  0.49511734
   0.28641836  0.86064323  0.49575921
   0.42915394  0.00395815  0.49578773
   0.42916312  0.14779289  0.49577298
   0.42942338  0.86032243  0.49505947
   0.57138115  0.00339651  0.49548788
   0.57138626  0.14692770  0.49538999
   0.57360335  0.29381986  0.49404464
   0.57339900  0.85895306  0.49415640
   0.71353934  0.00245220  0.49504201
   0.71413130  0.14614567  0.49566660
   0.71387777  0.28932207  0.49480684
   0.71020819  0.42939408  0.49293444
   0.70852841  0.85784157  0.49263637
   0.85566463  0.00141094  0.49507962
   0.85653945  0.14528172  0.49584571
   0.85688551  0.28854840  0.49558925
   0.85705844  0.43152899  0.49467489
   0.85736666  0.57404553  0.49382666
   0.85817810  0.71639248  0.49331589
   0.85447847  0.85749078  0.49414027
   0.04696036  0.09718678  0.49645913
   0.04663452  0.23976414  0.49658892
   0.04807586  0.38380179  0.49627021
   0.04904943  0.52671822  0.49563821
   0.04881152  0.66955925  0.49546003
   0.04794344  0.81235161  0.49603405
   0.04735217  0.95480384  0.49651510
   0.19079533  0.09834510  0.49694723
   0.19066165  0.24068109  0.49638622
   0.18965368  0.38212674  0.49629658
   0.19327424  0.52695150  0.49571651
   0.19217128  0.66972391  0.49543256
   0.19132761  0.81270130  0.49591697
   0.19097356  0.95559876  0.49673207
   0.33395498  0.09927834  0.49644913
   0.33767618  0.24293310  0.49547192
   0.33930568  0.67331537  0.49463724
   0.33434627  0.81288361  0.49517832
   0.33374007  0.95592404  0.49603369
   0.47647078  0.09942592  0.49568883
   0.47408975  0.24400465  0.49461657
   0.47449163  0.80951946  0.49450986
   0.47653300  0.95595777  0.49543954
   0.61873423  0.09878684  0.49562825
   0.61866926  0.24266011  0.49480491
   0.61847365  0.95483519  0.49497383
   0.76143825  0.09815651  0.49565858
   0.76168385  0.24129151  0.49536629
   0.76124936  0.38438034  0.49416627
   0.76075988  0.52904167  0.49173290
   0.76285084  0.66505144  0.48961823
   0.75757979  0.80796678  0.49136687
   0.76020744  0.95401002  0.49430045
   0.90357458  0.09673882  0.49580100
   0.90444292  0.24074270  0.49600142
   0.90476826  0.38404006  0.49536686
   0.90530618  0.52675311  0.49468687
   0.90576306  0.66910865  0.49432970
   0.90399700  0.81148381  0.49456949
   0.90295919  0.95317290  0.49536774
   0.71536550  0.71387458  0.48695361
   0.33227781  0.52247781  0.49424077
   0.62726345  0.66540186  0.47948634
   0.42093056  0.56215892  0.49214107
   0.42766872  0.28789441  0.49375687
   0.42919107  0.71937872  0.49425082
   0.71688591  0.57431099  0.48832089
   0.33123294  0.38158706  0.49535214
   0.62007474  0.38429222  0.49305169
   0.61862881  0.81406108  0.49284371
   0.46207275  0.44428924  0.51844679
   0.55734965  0.45747182  0.51563402
   0.52402475  0.48656801  0.53488797
Direct configuration=     2
   0.99878974  0.00155949  0.49622031
   0.99902463  0.14460562  0.49625831
   0.99990692  0.28828817  0.49637101
   0.00048586  0.43139365  0.49581728
   0.00092707  0.57419251  0.49522792
   0.00124588  0.71712700  0.49542253
   0.99974000  0.85964317  0.49593764
   0.14305446  0.00316690  0.49692616
   0.14261977  0.14538904  0.49666676
   0.14210248  0.28723108  0.49658248
   0.14385464  0.43143508  0.49619849
   0.14485381  0.57417333  0.49563924
   0.14426877  0.71711849  0.49556137
   0.14340035  0.86024854  0.49637114
   0.28615391  0.00348117  0.49652175
   0.28654001  0.14690466  0.49667050
   0.28727630  0.29211313  0.49571116
   0.28501669  0.42637270  0.49552311
   0.29017706  0.57438235  0.49482127
   0.28762289  0.71778074  0.49511930
   0.28642214  0.86064765  0.49576081
   0.42915747  0.00396086  0.49578915
   0.42916411  0.14779304  0.49577339
   0.42942986  0.86032192  0.49505980
   0.57138202  0.00339722  0.49548835
   0.57138707  0.14692766  0.49539105
   0.57360370  0.29381924  0.49404691
   0.57339803  0.85895317  0.49415687
   0.71353900  0.00245137  0.49504225
   0.71413103  0.14614573  0.49566574
   0.71387761  0.28932027  0.49480553
   0.71020808  0.42939212  0.49292996
   0.70852891  0.85784193  0.49263424
   0.85566446  0.00140994  0.49507770
   0.85653884  0.14528124  0.49584260
   0.85688419  0.28854709  0.49558705
   0.85705440  0.43151865  0.49467272
   0.85736593  0.57404488  0.49382421
   0.85817690  0.71639737  0.49331502
   0.85447757  0.85749322  0.49413913
   0.04696013  0.09718677  0.49645847
   0.04663003  0.23976387  0.49658650
   0.04807599  0.38380353  0.49626789
   0.04905024  0.52672127  0.49563693
   0.04881128  0.66955977  0.49545813
   0.04794986  0.81234473  0.49603398
   0.04735230  0.95479825  0.49651337
   0.19079667  0.09834348  0.49694698
   0.19066085  0.24067979  0.49638404
   0.18965242  0.38212824  0.49629434
   0.19327017  0.52695164  0.49571638
   0.19216994  0.66972455  0.49543361
   0.19132544  0.81269896  0.49591770
   0.19097252  0.95559530  0.49673274
   0.33395348  0.09927777  0.49644991
   0.33767520  0.24293193  0.49546616
   0.33930074  0.67331431  0.49463893
   0.33433971  0.81287840  0.49518098
   0.33373421  0.95591884  0.49603578
   0.47646945  0.09942602  0.49569064
   0.47408895  0.24400517  0.49461104
   0.47448986  0.80952081  0.49451034
   0.47653110  0.95595840  0.49544095
   0.61873404  0.09878738  0.49562868
   0.61866902  0.24266171  0.49480391
   0.61847328  0.95483541  0.49497308
   0.76143844  0.09815691  0.49565643
   0.76168446  0.24129272  0.49536538
   0.76125169  0.38438469  0.49416328
   0.76076221  0.52904258  0.49173058
   0.76285003  0.66504748  0.48961914
   0.75757887  0.80796402  0.49136701
   0.76020636  0.95401005  0.49429853
   0.90357361  0.09673968  0.49579860
   0.90444342  0.24074351  0.49599805
   0.90477018  0.38404468  0.49536477
   0.90530897  0.52675886  0.49468410
   0.90576532  0.66910714  0.49432798
   0.90399683  0.81147612  0.49456812
   0.90295785  0.95317197  0.49536644
   0.71537081  0.71387966  0.48695346
   0.33227170  0.52247716  0.49424010
   0.62726166  0.66539863  0.47948661
   0.42093377  0.56216236  0.49214085
   0.42766773  0.28789364  0.49374710
   0.42919298  0.71937995  0.49425139
   0.71688559  0.57431245  0.48832043
   0.33123239  0.38158591  0.49534444
   0.62007600  0.38429341  0.49304442
   0.61862825  0.81406093  0.49284167
   0.46206864  0.44426661  0.51841370
   0.55736434  0.45749289  0.51561576
   0.52401095  0.48655414  0.53488797
Direct configuration=     3
   0.99878995  0.00155769  0.49621972
   0.99902182  0.14460560  0.49625602
   0.99990559  0.28829002  0.49636692
   0.00048847  0.43139863  0.49581490
   0.00092807  0.57419612  0.49522531
   0.00124740  0.71712348  0.49542031
   0.99974213  0.85962441  0.49593628
   0.14305669  0.00316402  0.49692656
   0.14262263  0.14538328  0.49666510
   0.14209986  0.28723174  0.49657962
   0.14385310  0.43143808  0.49619665
   0.14485324  0.57417562  0.49563959
   0.14426577  0.71711619  0.49555997
   0.14340151  0.86024351  0.49637146
   0.28615067  0.00347813  0.49652390
   0.28653939  0.14690321  0.49666933
   0.28727590  0.29211188  0.49570377
   0.28501462  0.42636999  0.49552254
   0.29015976  0.57437946  0.49482328
   0.28761652  0.71777727  0.49512227
   0.28641629  0.86064195  0.49576336
   0.42915248  0.00395845  0.49579158
   0.42916226  0.14779312  0.49577388
   0.42942110  0.86032389  0.49506277
   0.57138100  0.00339775  0.49548918
   0.57138627  0.14692858  0.49539254
   0.57360525  0.29382172  0.49404491
   0.57339778  0.85895315  0.49415716
   0.71353866  0.00245270  0.49503960
   0.71413136  0.14614610  0.49566478
   0.71387824  0.28932335  0.49480379
   0.71021017  0.42939518  0.49292437
   0.70852695  0.85784055  0.49263196
   0.85566303  0.00141091  0.49507538
   0.85653869  0.14528223  0.49583871
   0.85688636  0.28854974  0.49558429
   0.85706113  0.43153367  0.49466917
   0.85736843  0.57404683  0.49382121
   0.85817813  0.71638965  0.49331425
   0.85447754  0.85748870  0.49413796
   0.04695802  0.09718652  0.49645791
   0.04663507  0.23976425  0.49658324
   0.04807595  0.38380124  0.49626501
   0.04904980  0.52671789  0.49563546
   0.04881210  0.66955969  0.49545601
   0.04794180  0.81235577  0.49603192
   0.04735046  0.95480592  0.49651448
   0.19079253  0.09834576  0.49694701
   0.19065922  0.24068092  0.49638145
   0.18965412  0.38212594  0.49629183
   0.19327580  0.52695140  0.49571614
   0.19217327  0.66972550  0.49543528
   0.19132944  0.81270369  0.49591893
   0.19097314  0.95560112  0.49673386
   0.33395497  0.09927914  0.49645095
   0.33767431  0.24293504  0.49546026
   0.33930854  0.67331694  0.49464088
   0.33435024  0.81288799  0.49518207
   0.33374217  0.95592688  0.49603687
   0.47647156  0.09942721  0.49569316
   0.47408931  0.24400528  0.49460533
   0.47449231  0.80952051  0.49451120
   0.47653417  0.95595918  0.49544278
   0.61873462  0.09878773  0.49562941
   0.61866975  0.24266075  0.49480398
   0.61847315  0.95483544  0.49497287
   0.76143748  0.09815627  0.49565410
   0.76168391  0.24129192  0.49536412
   0.76124949  0.38437880  0.49415988
   0.76075996  0.52904158  0.49172738
   0.76285188  0.66505317  0.48961802
   0.75758072  0.80796806  0.49136716
   0.76020658  0.95400924  0.49429646
   0.90357347  0.09673820  0.49579557
   0.90444254  0.24074298  0.49599382
   0.90476820  0.38403885  0.49536221
   0.90530588  0.52675120  0.49468073
   0.90576269  0.66911043  0.49432580
   0.90399726  0.81148690  0.49456870
   0.90295798  0.95317249  0.49536500
   0.71536769  0.71387391  0.48695333
   0.33228544  0.52247894  0.49423953
   0.62726480  0.66539801  0.47948801
   0.42092836  0.56215837  0.49214459
   0.42766600  0.28789272  0.49373494
   0.42918931  0.71937858  0.49425249
   0.71688616  0.57430983  0.48832062
   0.33123082  0.38158535  0.49533512
   0.62007616  0.38429271  0.49303634
   0.61862795  0.81406120  0.49283959
   0.46206622  0.44424008  0.51837312
   0.55738214  0.45751982  0.51559337
   0.52399378  0.48653398  0.53488797
Direct configuration=     4
   0.99878781  0.00155923  0.49621936
   0.99902376  0.14460560  0.49625428
   0.99990680  0.28828774  0.49636398
   0.00048572  0.43139303  0.49581312
   0.00092730  0.57419202  0.49522343
   0.00124606  0.71712894  0.49541862
   0.99973888  0.85964537  0.49593637
   0.14305207  0.00316749  0.49692691
   0.14261715  0.14538887  0.49666528
   0.14210166  0.28723073  0.49657746
   0.14385497  0.43143412  0.49619527
   0.14485461  0.57417363  0.49563974
   0.14426999  0.71711974  0.49556086
   0.14340045  0.86025073  0.49637157
   0.28615420  0.00348253  0.49652517
   0.28653860  0.14690538  0.49666854
   0.28727384  0.29211243  0.49569858
   0.28501795  0.42637174  0.49552109
   0.29018064  0.57437834  0.49482116
   0.28762581  0.71778357  0.49512401
   0.28642448  0.86065029  0.49576476
   0.42915879  0.00396257  0.49579312
   0.42916439  0.14779407  0.49577408
   0.42943192  0.86032425  0.49506310
   0.57138230  0.00339818  0.49548972
   0.57138747  0.14692855  0.49539358
   0.57360406  0.29382037  0.49404435
   0.57339728  0.85895318  0.49415705
   0.71353822  0.00245216  0.49504132
   0.71413115  0.14614646  0.49566403
   0.71387798  0.28932008  0.49480260
   0.71020895  0.42939175  0.49292050
   0.70852715  0.85784220  0.49263230
   0.85566355  0.00140917  0.49507365
   0.85653858  0.14528118  0.49583772
   0.85688380  0.28854719  0.49558221
   0.85705464  0.43151755  0.49466719
   0.85736638  0.57404526  0.49381888
   0.85817727  0.71639970  0.49331355
   0.85448018  0.85749655  0.49413861
   0.04695865  0.09718634  0.49645726
   0.04662856  0.23976407  0.49658092
   0.04807635  0.38380471  0.49626285
   0.04905140  0.52672338  0.49563428
   0.04881210  0.66956026  0.49545434
   0.04795164  0.81234219  0.49603191
   0.04735194  0.95479606  0.49651301
   0.19079606  0.09834230  0.49694682
   0.19065877  0.24067841  0.49637938
   0.18965143  0.38212900  0.49629024
   0.19326896  0.52695215  0.49571606
   0.19216946  0.66972507  0.49543621
   0.19132477  0.81269783  0.49591955
   0.19097218  0.95559401  0.49673456
   0.33395234  0.09927739  0.49645154
   0.33767331  0.24293269  0.49545547
   0.33929878  0.67331413  0.49464245
   0.33433700  0.81287679  0.49518305
   0.33373274  0.95591852  0.49603917
   0.47646917  0.09942666  0.49569481
   0.47408857  0.24400596  0.49460140
   0.47448885  0.80952110  0.49451199
   0.47653082  0.95595990  0.49544415
   0.61873408  0.09878836  0.49562979
   0.61866960  0.24266255  0.49480403
   0.61847270  0.95483600  0.49497261
   0.76143810  0.09815716  0.49565225
   0.76168483  0.24129341  0.49536303
   0.76125359  0.38438634  0.49415728
   0.76076377  0.52904310  0.49172517
   0.76285089  0.66504652  0.48961911
   0.75757782  0.80796268  0.49136659
   0.76020490  0.95400958  0.49429475
   0.90357196  0.09673971  0.49579333
   0.90444386  0.24074384  0.49599259
   0.90477147  0.38404686  0.49536016
   0.90531097  0.52676152  0.49467821
   0.90576727  0.66910665  0.49432434
   0.90399687  0.81147375  0.49456728
   0.90295612  0.95317104  0.49536385
   0.71537188  0.71387994  0.48695385
   0.33226941  0.52247683  0.49423963
   0.62725508  0.66539321  0.47948617
   0.42093687  0.56216403  0.49214417
   0.42766599  0.28789309  0.49372672
   0.42919456  0.71938143  0.49425304
   0.71688552  0.57431273  0.48832038
   0.33123026  0.38158328  0.49532898
   0.62007809  0.38429505  0.49303100
   0.61862728  0.81406039  0.49283825
   0.46206388  0.44421996  0.51834321
   0.55739633  0.45753848  0.51557616
   0.52398092  0.48652337  0.53488797
Direct configuration=     5
   0.99878886  0.00155774  0.49621906
   0.99902162  0.14460552  0.49625301
   0.99990601  0.28828993  0.49636194
   0.00048845  0.43139789  0.49581182
   0.00092874  0.57419575  0.49522208
   0.00124755  0.71712464  0.49541749
   0.99974152  0.85963045  0.49593569
   0.14305513  0.00316455  0.49692721
   0.14261986  0.14538458  0.49666438
   0.14209981  0.28723146  0.49657586
   0.14385361  0.43143757  0.49619433
   0.14485430  0.57417582  0.49563995
   0.14426725  0.71711738  0.49556027
   0.14340157  0.86024546  0.49637182
   0.28615145  0.00347961  0.49652638
   0.28653864  0.14690405  0.49666803
   0.28727329  0.29211091  0.49569597
   0.28501546  0.42637031  0.49551991
   0.29016510  0.57438009  0.49482177
   0.28761760  0.71777913  0.49512423
   0.28641821  0.86064437  0.49576601
   0.42915408  0.00396037  0.49579461
   0.42916261  0.14779373  0.49577436
   0.42942544  0.86032199  0.49506374
   0.57138140  0.00339848  0.49549030
   0.57138671  0.14692908  0.49539454
   0.57360397  0.29382177  0.49404342
   0.57339733  0.85895318  0.49415706
   0.71353803  0.00245209  0.49504081
   0.71413131  0.14614652  0.49566354
   0.71387866  0.28932292  0.49480176
   0.71021093  0.42939448  0.49291765
   0.70852646  0.85784066  0.49263098
   0.85566210  0.00141009  0.49507238
   0.85653851  0.14528201  0.49583684
   0.85688682  0.28855065  0.49558214
   0.85705978  0.43152912  0.49466527
   0.85736845  0.57404671  0.49381723
   0.85817823  0.71639180  0.49331323
   0.85447786  0.85749031  0.49413794
   0.04695700  0.09718576  0.49645691
   0.04663230  0.23976381  0.49657910
   0.04807603  0.38380208  0.49626129
   0.04905048  0.52671933  0.49563353
   0.04881225  0.66956024  0.49545326
   0.04794508  0.81235241  0.49603088
   0.04734994  0.95480306  0.49651373
   0.19079252  0.09834483  0.49694689
   0.19065795  0.24067963  0.49637790
   0.18965381  0.38212648  0.49628914
   0.19327437  0.52695107  0.49571591
   0.19217302  0.66972601  0.49543713
   0.19132881  0.81270315  0.49592026
   0.19097255  0.95559988  0.49673527
   0.33395405  0.09927958  0.49645206
   0.33767289  0.24293377  0.49545169
   0.33930637  0.67331563  0.49464347
   0.33434744  0.81288592  0.49518418
   0.33373970  0.95592512  0.49604001
   0.47647104  0.09942788  0.49569619
   0.47408886  0.24400618  0.49459866
   0.47449129  0.80952150  0.49451265
   0.47653258  0.95595791  0.49544408
   0.61873462  0.09878847  0.49563025
   0.61866987  0.24266197  0.49480434
   0.61847262  0.95483580  0.49497279
   0.76143754  0.09815699  0.49565130
   0.76168443  0.24129267  0.49536225
   0.76125131  0.38438129  0.49415552
   0.76076156  0.52904211  0.49172346
   0.76285133  0.66505091  0.48961868
   0.75757984  0.80796656  0.49136679
   0.76020542  0.95400959  0.49429398
   0.90357253  0.09673831  0.49579181
   0.90444327  0.24074336  0.49599153
   0.90476961  0.38404142  0.49535870
   0.90530753  0.52675423  0.49467640
   0.90576407  0.66910996  0.49432319
   0.90399586  0.81148432  0.49456649
   0.90295753  0.95317265  0.49536326
   0.71536655  0.71387402  0.48695371
   0.33228205  0.52247669  0.49423954
   0.62726081  0.66539495  0.47948770
   0.42093303  0.56216329  0.49214440
   0.42766495  0.28789279  0.49372054
   0.42918999  0.71937926  0.49425373
   0.71688606  0.57431026  0.48832063
   0.33122985  0.38158382  0.49532431
   0.62007750  0.38429401  0.49302714
   0.61862681  0.81406084  0.49283762
   0.46206228  0.44420497  0.51832075
   0.55740591  0.45755369  0.51556396
   0.52397193  0.48651332  0.53488797
Direct configuration=     6
   0.99878725  0.00155853  0.49621860
   0.99902208  0.14460501  0.49625104
   0.99990484  0.28828702  0.49636076
   0.00048692  0.43139473  0.49580980
   0.00092785  0.57419323  0.49522000
   0.00124663  0.71712806  0.49541571
   0.99973913  0.85964215  0.49593555
   0.14305223  0.00316679  0.49692763
   0.14261777  0.14538472  0.49666304
   0.14210017  0.28723058  0.49657340
   0.14385470  0.43143461  0.49619287
   0.14485486  0.57417425  0.49564016
   0.14426972  0.71712012  0.49556129
   0.14340104  0.86024983  0.49637209
   0.28615319  0.00348237  0.49652797
   0.28653751  0.14690490  0.49666713
   0.28727207  0.29211131  0.49569172
   0.28501766  0.42637074  0.49551785
   0.29017831  0.57438084  0.49482173
   0.28762434  0.71778277  0.49512657
   0.28642345  0.86064929  0.49576768
   0.42915728  0.00396164  0.49579647
   0.42916360  0.14779477  0.49577464
   0.42942972  0.86032346  0.49506451
   0.57138132  0.00339825  0.49549094
   0.57138743  0.14692953  0.49539585
   0.57360396  0.29382169  0.49404161
   0.57339681  0.85895343  0.49415697
   0.71353770  0.00245163  0.49503995
   0.71413130  0.14614696  0.49566273
   0.71387828  0.28932131  0.49480048
   0.71021014  0.42939265  0.49291354
   0.70852599  0.85784180  0.49263117
   0.85566255  0.00140934  0.49507048
   0.85653827  0.14528159  0.49583533
   0.85688477  0.28854800  0.49557971
   0.85705617  0.43152019  0.49466294
   0.85736728  0.57404598  0.49381463
   0.85817714  0.71639767  0.49331243
   0.85447941  0.85749566  0.49413834
   0.04695703  0.09718583  0.49645617
   0.04663122  0.23976470  0.49657632
   0.04807653  0.38380450  0.49625889
   0.04905206  0.52672297  0.49563228
   0.04881285  0.66956053  0.49545156
   0.04794770  0.81234750  0.49603125
   0.04735111  0.95479802  0.49651245
   0.19079393  0.09834292  0.49694681
   0.19065688  0.24067817  0.49637569
   0.18965167  0.38212829  0.49628745
   0.19327093  0.52695255  0.49571565
   0.19217018  0.66972555  0.49543814
   0.19132602  0.81269934  0.49592105
   0.19097216  0.95559593  0.49673617
   0.33395247  0.09927831  0.49645269
   0.33767190  0.24293267  0.49544616
   0.33930058  0.67331490  0.49464482
   0.33433945  0.81287792  0.49518544
   0.33373632  0.95592290  0.49604134
   0.47646972  0.09942762  0.49569811
   0.47408796  0.24400655  0.49459467
   0.47448995  0.80952025  0.49451345
   0.47653151  0.95595984  0.49544587
   0.61873412  0.09878889  0.49563079
   0.61866955  0.24266302  0.49480467
   0.61847235  0.95483607  0.49497293
   0.76143757  0.09815703  0.49564991
   0.76168534  0.24129393  0.49536109
   0.76125358  0.38438495  0.49415275
   0.76076376  0.52904275  0.49172099
   0.76285011  0.66504704  0.48961993
   0.75757706  0.80796276  0.49136641
   0.76020408  0.95400898  0.49429262
   0.90357128  0.09673895  0.49578956
   0.90444370  0.24074421  0.49598992
   0.90477185  0.38404603  0.49535651
   0.90531049  0.52675940  0.49467359
   0.90576684  0.66910776  0.49432154
   0.90399741  0.81147769  0.49456696
   0.90295567  0.95317131  0.49536216
   0.71536957  0.71387748  0.48695438
   0.33227360  0.52247779  0.49423924
   0.62726069  0.66539249  0.47948921
   0.42093695  0.56216633  0.49214441
   0.42766419  0.28789283  0.49371155
   0.42919296  0.71938082  0.49425463
   0.71688547  0.57431130  0.48832059
   0.33122882  0.38158160  0.49531766
   0.62007873  0.38429543  0.49302153
   0.61862662  0.81406035  0.49283654
   0.46206031  0.44418368  0.51828877
   0.55742042  0.45757482  0.51554604
   0.52395720  0.48649901  0.53488797
Direct configuration=     7
   0.99878825  0.00155721  0.49621798
   0.99902116  0.14460599  0.49624850
   0.99990715  0.28829143  0.49635655
   0.00049047  0.43140042  0.49580721
   0.00093022  0.57419738  0.49521738
   0.00124885  0.71712537  0.49541372
   0.99974124  0.85962607  0.49593444
   0.14305519  0.00316331  0.49692828
   0.14261895  0.14538325  0.49666157
   0.14209947  0.28723188  0.49657024
   0.14385370  0.43143922  0.49619106
   0.14485504  0.57417720  0.49564053
   0.14426687  0.71711664  0.49556031
   0.14340070  0.86024446  0.49637280
   0.28615114  0.00348002  0.49653026
   0.28653787  0.14690371  0.49666610
   0.28727034  0.29210838  0.49568570
   0.28501479  0.42637013  0.49551504
   0.29015742  0.57438021  0.49482307
   0.28761416  0.71777775  0.49512733
   0.28641751  0.86064402  0.49577005
   0.42915429  0.00396158  0.49579932
   0.42916210  0.14779447  0.49577527
   0.42942437  0.86032093  0.49506604
   0.57138147  0.00339950  0.49549219
   0.57138663  0.14693022  0.49539791
   0.57360392  0.29382333  0.49403878
   0.57339717  0.85895330  0.49415710
   0.71353728  0.00245347  0.49504132
   0.71413153  0.14614715  0.49566192
   0.71387924  0.28932419  0.49479897
   0.71021296  0.42939553  0.49290836
   0.70852565  0.85783930  0.49262872
   0.85566063  0.00140996  0.49506814
   0.85653800  0.14528232  0.49583332
   0.85688880  0.28855329  0.49557928
   0.85706015  0.43152726  0.49465979
   0.85737017  0.57404738  0.49381130
   0.85817897  0.71639060  0.49331200
   0.85447545  0.85748752  0.49413711
   0.04695565  0.09718461  0.49645517
   0.04663170  0.23976291  0.49657302
   0.04807555  0.38380057  0.49625614
   0.04905086  0.52671873  0.49563077
   0.04881298  0.66956142  0.49544966
   0.04794541  0.81235676  0.49603167
   0.04734884  0.95480587  0.49651393
   0.19079124  0.09834422  0.49694683
   0.19065591  0.24067773  0.49637289
   0.18965504  0.38212583  0.49628536
   0.19327695  0.52695115  0.49571543
   0.19217479  0.66972720  0.49543995
   0.19133091  0.81270606  0.49592254
   0.19097252  0.95560183  0.49673766
   0.33395387  0.09928098  0.49645370
   0.33767073  0.24293323  0.49543901
   0.33930928  0.67331708  0.49464680
   0.33435191  0.81289095  0.49518786
   0.33374173  0.95592739  0.49604358
   0.47647164  0.09943135  0.49569890
   0.47408851  0.24400748  0.49458965
   0.47449209  0.80952203  0.49451469
   0.47653227  0.95595579  0.49544615
   0.61873494  0.09878928  0.49563176
   0.61867022  0.24266298  0.49480532
   0.61847205  0.95483593  0.49497330
   0.76143732  0.09815707  0.49564828
   0.76168480  0.24129302  0.49535957
   0.76125157  0.38438007  0.49414934
   0.76076200  0.52904161  0.49171774
   0.76285234  0.66505300  0.48961927
   0.75757976  0.80796746  0.49136673
   0.76020501  0.95400941  0.49429122
   0.90357186  0.09673793  0.49578680
   0.90444250  0.24074264  0.49598790
   0.90476959  0.38403998  0.49535368
   0.90530718  0.52675254  0.49467000
   0.90576384  0.66911156  0.49431928
   0.90399683  0.81148670  0.49456766
   0.90295710  0.95317340  0.49536109
   0.71536826  0.71387343  0.48695534
   0.33228405  0.52247804  0.49423861
   0.62725237  0.66538908  0.47948832
   0.42093020  0.56216159  0.49214858
   0.42766298  0.28789247  0.49369988
   0.42918914  0.71937852  0.49425610
   0.71688606  0.57430907  0.48832109
   0.33122889  0.38158267  0.49530918
   0.62007880  0.38429499  0.49301437
   0.61862589  0.81406086  0.49283562
   0.46205688  0.44415620  0.51824844
   0.55743872  0.45760203  0.51552397
   0.52393943  0.48648060  0.53488797
Direct configuration=     8
   0.99878557  0.00155862  0.49621762
   0.99902107  0.14460408  0.49624659
   0.99990388  0.28828568  0.49635540
   0.00048682  0.43139382  0.49580528
   0.00092764  0.57419296  0.49521543
   0.00124703  0.71713034  0.49541238
   0.99973915  0.85964574  0.49593498
   0.14305066  0.00316731  0.49692887
   0.14261576  0.14538314  0.49666051
   0.14209942  0.28722960  0.49656793
   0.14385511  0.43143331  0.49618976
   0.14485553  0.57417413  0.49564076
   0.14427111  0.71712226  0.49556159
   0.14340213  0.86025251  0.49637345
   0.28615364  0.00348384  0.49653180
   0.28653609  0.14690491  0.49666524
   0.28726989  0.29211021  0.49568096
   0.28501860  0.42637131  0.49551260
   0.29018141  0.57437806  0.49482175
   0.28762778  0.71778655  0.49512997
   0.28642594  0.86065233  0.49577173
   0.42915878  0.00396307  0.49580090
   0.42916331  0.14779674  0.49577545
   0.42943157  0.86032398  0.49506705
   0.57138076  0.00339821  0.49549283
   0.57138792  0.14693116  0.49539915
   0.57360397  0.29382292  0.49403633
   0.57339638  0.85895373  0.49415713
   0.71353713  0.00245139  0.49503995
   0.71413147  0.14614769  0.49566129
   0.71387796  0.28932077  0.49479789
   0.71021096  0.42939222  0.49290468
   0.70852515  0.85784191  0.49262918
   0.85566189  0.00140922  0.49506646
   0.85653831  0.14528319  0.49583314
   0.85688549  0.28854858  0.49557854
   0.85705616  0.43151902  0.49465737
   0.85736795  0.57404604  0.49380870
   0.85817752  0.71639979  0.49331153
   0.85447959  0.85749704  0.49413792
   0.04695615  0.09718583  0.49645427
   0.04663114  0.23976549  0.49657044
   0.04807757  0.38380638  0.49625398
   0.04905373  0.52672500  0.49562956
   0.04881339  0.66956138  0.49544815
   0.04795113  0.81234343  0.49603119
   0.04735016  0.95479559  0.49651265
   0.19079332  0.09834207  0.49694673
   0.19065486  0.24067698  0.49637078
   0.18965080  0.38212897  0.49628370
   0.19326807  0.52695290  0.49571531
   0.19216899  0.66972532  0.49544082
   0.19132491  0.81269823  0.49592334
   0.19097180  0.95559485  0.49673864
   0.33395189  0.09927844  0.49645437
   0.33766991  0.24293167  0.49543373
   0.33929776  0.67331494  0.49464818
   0.33433706  0.81287639  0.49518922
   0.33373604  0.95592361  0.49604535
   0.47646964  0.09942857  0.49570134
   0.47408723  0.24400779  0.49458595
   0.47448971  0.80951971  0.49451548
   0.47653146  0.95596071  0.49544834
   0.61873380  0.09878982  0.49563246
   0.61866962  0.24266427  0.49480565
   0.61847198  0.95483688  0.49497373
   0.76143711  0.09815771  0.49564739
   0.76168616  0.24129519  0.49535860
   0.76125464  0.38438547  0.49414679
   0.76076527  0.52904323  0.49171550
   0.76284998  0.66504620  0.48962075
   0.75757524  0.80796070  0.49136626
   0.76020236  0.95400863  0.49429016
   0.90357054  0.09673930  0.49578481
   0.90444430  0.24074525  0.49598631
   0.90477398  0.38404754  0.49535172
   0.90531155  0.52675933  0.49466733
   0.90576865  0.66910786  0.49431777
   0.90399612  0.81147390  0.49456628
   0.90295364  0.95316987  0.49536003
   0.71536472  0.71387519  0.48695573
   0.33227001  0.52247843  0.49423874
   0.62725916  0.66539008  0.47949101
   0.42093601  0.56216616  0.49214852
   0.42766201  0.28789253  0.49369166
   0.42919434  0.71938158  0.49425709
   0.71688557  0.57431154  0.48832113
   0.33122676  0.38157924  0.49530322
   0.62008067  0.38429718  0.49300930
   0.61862604  0.81406003  0.49283492
   0.46205399  0.44413520  0.51821804
   0.55745244  0.45762235  0.51550714
   0.52393170  0.48647111  0.53488797
Direct configuration=     9
   0.99878853  0.00155728  0.49621750
   0.99902067  0.14460554  0.49624525
   0.99990533  0.28828928  0.49635438
   0.00049038  0.43139932  0.49580394
   0.00093009  0.57419638  0.49521411
   0.00124868  0.71712598  0.49541149
   0.99974079  0.85963069  0.49593455
   0.14305339  0.00316401  0.49692938
   0.14261716  0.14538269  0.49665987
   0.14209902  0.28723122  0.49656629
   0.14385384  0.43143783  0.49618889
   0.14485526  0.57417684  0.49564101
   0.14426801  0.71711823  0.49556122
   0.14340074  0.86024454  0.49637270
   0.28615173  0.00348140  0.49653315
   0.28653656  0.14690374  0.49666469
   0.28726842  0.29210774  0.49567742
   0.28501536  0.42636991  0.49551093
   0.29016465  0.57438047  0.49482292
   0.28761738  0.71777965  0.49513064
   0.28641970  0.86064673  0.49577315
   0.42915568  0.00396265  0.49580248
   0.42916229  0.14779568  0.49577583
   0.42942609  0.86032189  0.49506811
   0.57138122  0.00339967  0.49549365
   0.57138688  0.14693103  0.49540035
   0.57360396  0.29382417  0.49403451
   0.57339727  0.85895383  0.49415606
   0.71353678  0.00245295  0.49504059
   0.71413127  0.14614768  0.49566102
   0.71387895  0.28932334  0.49479722
   0.71021404  0.42939474  0.49290336