 vasp.6.4.2 20Jul23 (build Jan 24 2024 13:44:02) complex                         
 executed on              LinuxNV date 2025.11.08  10:37:51
 running   24 mpi-ranks, with    1 threads/rank, on    1 nodes
 distrk:  each k-point on   12 cores,    2 groups
 distr:  one band on NCORE=  12 cores,    1 groups
 OpenACC runtime initialized ...    0 GPUs detected


--------------------------------------------------------------------------------------------------------


 -----------------------------------------------------------------------------
|                                                                             |
|           W    W    AA    RRRRR   N    N  II  N    N   GGGG   !!!           |
|           W    W   A  A   R    R  NN   N  II  NN   N  G    G  !!!           |
|           W    W  A    A  R    R  N N  N  II  N N  N  G       !!!           |
|           W WW W  AAAAAA  RRRRR   N  N N  II  N  N N  G  GGG   !            |
|           WW  WW  A    A  R   R   N   NN  II  N   NN  G    G                |
|           W    W  A    A  R    R  N    N  II  N    N   GGGG   !!!           |
|                                                                             |
|     Found issues when parsing the INCAR file                                |
|     In line 12: Tagname ISPIN	 contains invalid characters.                 |
|     In line 13: Tagname MAGMOM	 contains invalid characters.                |
|     Please check if the interpretation in the OUTCAR file is correct.       |
|                                                                             |
 -----------------------------------------------------------------------------

 INCAR:
   ENCUT = 500
   EDIFF = 1E-6
   NELM = 200
   ALGO = Normal
   ISMEAR = 0
   SIGMA = 0.05
   LASPH = .TRUE.
   ADDGRID = .TRUE.
   LREAL = Auto
   ISYM = 0
   IMIX = 4
   AMIX = 0.20
   BMIX = 1E-4
   AMIX_MAG = 0.80
   BMIX_MAG = 1E-4
   IBRION = 2
   ISIF = 2
   EDIFFG = -0.02
   NSW = 300
   IVDW = 12
   ISTART = 0
   ICHARG = 2
   LWAVE = .FALSE.
   LCHARG = .FALSE.
   KPAR = 2
   NCORE = 26

 POTCAR:    PAW_PBE C 08Apr2002                   
 POTCAR:    PAW_PBE N 08Apr2002                   
 POTCAR:    PAW_PBE H 15Jun2001                   
 POTCAR:    PAW_PBE O 08Apr2002                   
 POTCAR:    PAW_PBE C 08Apr2002                   
   SHA256 =  253f7b50bb8d59471dbedb8285d89021f4a42ed1a2c5d38a03a736e69125dd95 C/POTCAR              
   COPYR  = (c) Copyright 08Apr2002 Georg Kresse                                                    
   COPYR  = This file is part of the software VASP. Any use, copying, and all other rights are regul
   COPYR  = If you do not have a valid VASP license, you may not use, copy or distribute this file. 
   VRHFIN =C: s2p2                                                                                  
   LEXCH  = PE                                                                                      
   EATOM  =   147.1560 eV,   10.8157 Ry                                                             
                                                                                                    
   TITEL  = PAW_PBE C 08Apr2002                                                                     
   LULTRA =        F    use ultrasoft PP ?                                                          
   IUNSCR =        1    unscreen: 0-lin 1-nonlin 2-no                                               
   RPACOR =    1.200    partial core radius                                                         
   POMASS =   12.011; ZVAL   =    4.000    mass and valenz                                          
   RCORE  =    1.500    outmost cutoff radius                                                       
   RWIGS  =    1.630; RWIGS  =    0.863    wigner-seitz radius (au A)                               
   ENMAX  =  400.000; ENMIN  =  300.000 eV                                                          
   ICORE  =        2    local potential                                                             
   LCOR   =        T    correct aug charges                                                         
   LPAW   =        T    paw PP                                                                      
   EAUG   =  644.873                                                                                
   DEXC   =    0.000                                                                                
   RMAX   =    1.529    core radius for proj-oper                                                   
   RAUG   =    1.300    factor for augmentation sphere                                              
   RDEP   =    1.501    radius for radial grids                                                     
   RDEPT  =    1.300    core radius for aug-charge                                                  
                                                                                                    
   Atomic configuration                                                                             
    4 entries                                                                                       
     n  l   j            E        occ.                                                              
     1  0  0.50      -273.3789   2.0000                                                             
     2  0  0.50       -13.7508   2.0000                                                             
     2  1  0.50        -5.2854   2.0000                                                             
     3  2  1.50        -5.4423   0.0000                                                             
   Description                                                                                      
     l       E           TYP  RCUT    TYP  RCUT                                                     
     0    -13.7508458     23  1.200                                                                 
     0     -8.2022199     23  1.200                                                                 
     1     -5.2854383     23  1.500                                                                 
     1     34.0145650     23  1.500                                                                 
     2     -5.4423304      7  1.500                                                                 
  local pseudopotential read in
  partial core-charges read in
  partial kinetic energy density read in
  atomic valenz-charges read in
  non local Contribution for L=            0  read in
    real space projection operators read in
  non local Contribution for L=            0  read in
    real space projection operators read in
  non local Contribution for L=            1  read in
    real space projection operators read in
  non local Contribution for L=            1  read in
    real space projection operators read in
    PAW grid and wavefunctions read in
 
   number of l-projection  operators is LMAX  =            4
   number of lm-projection operators is LMMAX =            8
 
 POTCAR:    PAW_PBE N 08Apr2002                   
   SHA256 =  e053789ff3a61a86a1b75d8a110fcc91f86041011e7b0817c7c99e4e8a6349d7 N/POTCAR              
   COPYR  = (c) Copyright 08Apr2002 Georg Kresse                                                    
   COPYR  = This file is part of the software VASP. Any use, copying, and all other rights are regul
   COPYR  = If you do not have a valid VASP license, you may not use, copy or distribute this file. 
   VRHFIN =N: s2p3                                                                                  
   LEXCH  = PE                                                                                      
   EATOM  =   264.5486 eV,   19.4438 Ry                                                             
                                                                                                    
   TITEL  = PAW_PBE N 08Apr2002                                                                     
   LULTRA =        F    use ultrasoft PP ?                                                          
   IUNSCR =        1    unscreen: 0-lin 1-nonlin 2-no                                               
   RPACOR =    1.200    partial core radius                                                         
   POMASS =   14.001; ZVAL   =    5.000    mass and valenz                                          
   RCORE  =    1.500    outmost cutoff radius                                                       
   RWIGS  =    1.400; RWIGS  =    0.741    wigner-seitz radius (au A)                               
   ENMAX  =  400.000; ENMIN  =  300.000 eV                                                          
   ICORE  =        2    local potential                                                             
   LCOR   =        T    correct aug charges                                                         
   LPAW   =        T    paw PP                                                                      
   EAUG   =  627.112                                                                                
   DEXC   =    0.000                                                                                
   RMAX   =    1.529    core radius for proj-oper                                                   
   RAUG   =    1.300    factor for augmentation sphere                                              
   RDEP   =    1.514    radius for radial grids                                                     
   RDEPT  =    1.338    core radius for aug-charge                                                  
                                                                                                    
   Atomic configuration                                                                             
    4 entries                                                                                       
     n  l   j            E        occ.                                                              
     1  0  0.50      -384.7179   2.0000                                                             
     2  0  0.50       -18.5828   2.0000                                                             
     2  1  0.50        -7.0898   3.0000                                                             
     3  2  1.50        -6.8029   0.0000                                                             
   Description                                                                                      
     l       E           TYP  RCUT    TYP  RCUT                                                     
     0    -18.5828119     23  1.200                                                                 
     0    -13.5018863     23  1.200                                                                 
     1     -7.0897853     23  1.500                                                                 
     1      9.5240782     23  1.500                                                                 
     2     -6.8029130      7  1.500                                                                 
  local pseudopotential read in
  partial core-charges read in
  partial kinetic energy density read in
  atomic valenz-charges read in
  non local Contribution for L=            0  read in
    real space projection operators read in
  non local Contribution for L=            0  read in
    real space projection operators read in
  non local Contribution for L=            1  read in
    real space projection operators read in
  non local Contribution for L=            1  read in
    real space projection operators read in
    PAW grid and wavefunctions read in
 
   number of l-projection  operators is LMAX  =            4
   number of lm-projection operators is LMMAX =            8
 
 POTCAR:    PAW_PBE H 15Jun2001                   
   SHA256 =  030f79b5d3ab3cf0e668861823c8fb652ff669f3e15e46930bd03bfd63a607b6 H/POTCAR              
   COPYR  = (c) Copyright 15Jun2001 Georg Kresse                                                    
   COPYR  = This file is part of the software VASP. Any use, copying, and all other rights are regul
   COPYR  = If you do not have a valid VASP license, you may not use, copy or distribute this file. 
   VRHFIN =H: ultrasoft test                                                                        
   LEXCH  = PE                                                                                      
   EATOM  =    12.4884 eV,    0.9179 Ry                                                             
                                                                                                    
   TITEL  = PAW_PBE H 15Jun2001                                                                     
   LULTRA =        F    use ultrasoft PP ?                                                          
   IUNSCR =        0    unscreen: 0-lin 1-nonlin 2-no                                               
   RPACOR =    0.000    partial core radius                                                         
   POMASS =    1.000; ZVAL   =    1.000    mass and valenz                                          
   RCORE  =    1.100    outmost cutoff radius                                                       
   RWIGS  =    0.700; RWIGS  =    0.370    wigner-seitz radius (au A)                               
   ENMAX  =  250.000; ENMIN  =  200.000 eV                                                          
   RCLOC  =    0.701    cutoff for local pot                                                        
   LCOR   =        T    correct aug charges                                                         
   LPAW   =        T    paw PP                                                                      
   EAUG   =  400.000                                                                                
   RMAX   =    1.123    core radius for proj-oper                                                   
   RAUG   =    1.200    factor for augmentation sphere                                              
   RDEP   =    1.112    radius for radial grids                                                     
   RDEPT  =    0.926    core radius for aug-charge                                                  
                                                                                                    
   Atomic configuration                                                                             
    2 entries                                                                                       
     n  l   j            E        occ.                                                              
     1  0  0.50        -6.4927   1.0000                                                             
     2  1  0.50        -3.4015   0.0000                                                             
   Description                                                                                      
     l       E           TYP  RCUT    TYP  RCUT                                                     
     0     -6.4927494     23  1.100                                                                 
     0      6.8029130     23  1.100                                                                 
     1     -4.0817478     23  1.100                                                                 
  local pseudopotential read in
  atomic valenz-charges read in
  non local Contribution for L=            0  read in
    real space projection operators read in
  non local Contribution for L=            0  read in
    real space projection operators read in
  non local Contribution for L=            1  read in
    real space projection operators read in
    PAW grid and wavefunctions read in
 
   number of l-projection  operators is LMAX  =            3
   number of lm-projection operators is LMMAX =            5
 
 POTCAR:    PAW_PBE O 08Apr2002                   
   SHA256 =  818f92134a0a090dccd8ba1447fa70422a3b330e708bb4f08108d8ae51209ddf O/POTCAR              
   COPYR  = (c) Copyright 08Apr2002 Georg Kresse                                                    
   COPYR  = This file is part of the software VASP. Any use, copying, and all other rights are regul
   COPYR  = If you do not have a valid VASP license, you may not use, copy or distribute this file. 
   VRHFIN =O: s2p4                                                                                  
   LEXCH  = PE                                                                                      
   EATOM  =   432.3788 eV,   31.7789 Ry                                                             
                                                                                                    
   TITEL  = PAW_PBE O 08Apr2002                                                                     
   LULTRA =        F    use ultrasoft PP ?                                                          
   IUNSCR =        1    unscreen: 0-lin 1-nonlin 2-no                                               
   RPACOR =    1.200    partial core radius                                                         
   POMASS =   16.000; ZVAL   =    6.000    mass and valenz                                          
   RCORE  =    1.520    outmost cutoff radius                                                       
   RWIGS  =    1.550; RWIGS  =    0.820    wigner-seitz radius (au A)                               
   ENMAX  =  400.000; ENMIN  =  300.000 eV                                                          
   ICORE  =        2    local potential                                                             
   LCOR   =        T    correct aug charges                                                         
   LPAW   =        T    paw PP                                                                      
   EAUG   =  605.392                                                                                
   DEXC   =    0.000                                                                                
   RMAX   =    1.553    core radius for proj-oper                                                   
   RAUG   =    1.300    factor for augmentation sphere                                              
   RDEP   =    1.550    radius for radial grids                                                     
   RDEPT  =    1.329    core radius for aug-charge                                                  
                                                                                                    
   Atomic configuration                                                                             
    4 entries                                                                                       
     n  l   j            E        occ.                                                              
     1  0  0.50      -514.6923   2.0000                                                             
     2  0  0.50       -23.9615   2.0000                                                             
     2  1  0.50        -9.0305   4.0000                                                             
     3  2  1.50        -9.5241   0.0000                                                             
   Description                                                                                      
     l       E           TYP  RCUT    TYP  RCUT                                                     
     0    -23.9615318     23  1.200                                                                 
     0     -9.5240782     23  1.200                                                                 
     1     -9.0304911     23  1.520                                                                 
     1      8.1634956     23  1.520                                                                 
     2     -9.5240782      7  1.500                                                                 
  local pseudopotential read in
  partial core-charges read in
  partial kinetic energy density read in
  kinetic energy density of atom read in
  atomic valenz-charges read in
  non local Contribution for L=            0  read in
    real space projection operators read in
  non local Contribution for L=            0  read in
    real space projection operators read in
  non local Contribution for L=            1  read in
    real space projection operators read in
  non local Contribution for L=            1  read in
    real space projection operators read in
    PAW grid and wavefunctions read in
 
   number of l-projection  operators is LMAX  =            4
   number of lm-projection operators is LMMAX =            8
 
 Optimization of the real space projectors (new method)

 maximal supplied QI-value         = 25.13
 optimisation between [QCUT,QGAM] = [ 11.31, 22.87] = [ 35.82,146.48] Ry 
 Optimized for a Real-space Cutoff    1.00 Angstroem

   l    n(q)    QCUT    max X(q) W(low)/X(q) W(high)/X(q)  e(spline) 
   0      7    11.310   115.676    0.43E-03    0.13E-02    0.19E-06
   0      7    11.310    87.132    0.43E-03    0.13E-02    0.18E-06
   1      6    11.310     4.429    0.42E-03    0.74E-03    0.11E-06
   1      6    11.310     2.733    0.34E-03    0.55E-03    0.92E-07
 Optimization of the real space projectors (new method)

 maximal supplied QI-value         = 25.13
 optimisation between [QCUT,QGAM] = [ 11.31, 22.87] = [ 35.82,146.48] Ry 
 Optimized for a Real-space Cutoff    1.27 Angstroem

   l    n(q)    QCUT    max X(q) W(low)/X(q) W(high)/X(q)  e(spline) 
   0      9    11.310    79.467    0.75E-04    0.16E-03    0.36E-06
   0      9    11.310    66.151    0.74E-04    0.16E-03    0.36E-06
   1      8    11.310    17.416    0.35E-03    0.12E-03    0.95E-06
   1      8    11.310    12.382    0.37E-03    0.13E-03    0.98E-06
 Optimization of the real space projectors (new method)

 maximal supplied QI-value         = 34.20
 optimisation between [QCUT,QGAM] = [ 11.29, 22.57] = [ 35.68,142.71] Ry 
 Optimized for a Real-space Cutoff    1.16 Angstroem

   l    n(q)    QCUT    max X(q) W(low)/X(q) W(high)/X(q)  e(spline) 
   0      8    11.287    19.460    0.40E-03    0.73E-03    0.16E-06
   0      8    11.287    12.209    0.38E-03    0.70E-03    0.15E-06
   1      7    11.287     4.655    0.22E-03    0.25E-04    0.22E-06
 Optimization of the real space projectors (new method)

 maximal supplied QI-value         = 24.76
 optimisation between [QCUT,QGAM] = [ 11.39, 22.77] = [ 36.31,145.25] Ry 
 Optimized for a Real-space Cutoff    1.00 Angstroem

   l    n(q)    QCUT    max X(q) W(low)/X(q) W(high)/X(q)  e(spline) 
   0      7    11.387    20.381    0.39E-03    0.13E-02    0.15E-06
   0      7    11.387    15.268    0.42E-03    0.14E-02    0.17E-06
   1      6    11.387     5.964    0.41E-03    0.11E-02    0.17E-06
   1      6    11.387     5.382    0.39E-03    0.87E-03    0.15E-06
  PAW_PBE C 08Apr2002                   :
 energy of atom  1       EATOM= -147.1560
 kinetic energy error for atom=    0.0076 (will be added to EATOM!!)
  PAW_PBE N 08Apr2002                   :
 energy of atom  2       EATOM= -264.5486
 kinetic energy error for atom=    0.0138 (will be added to EATOM!!)
  PAW_PBE H 15Jun2001                   :
 energy of atom  3       EATOM=  -12.4884
 kinetic energy error for atom=    0.0020 (will be added to EATOM!!)
  PAW_PBE O 08Apr2002                   :
 energy of atom  4       EATOM= -432.3788
 kinetic energy error for atom=    0.0224 (will be added to EATOM!!)
 
 
 POSCAR: C4
  positions in direct lattice
  No initial velocities read in
 exchange correlation table for  LEXCH =        8
   RHO(1)=    0.500       N(1)  =     2000
   RHO(2)=  100.500       N(2)  =     4000
 


--------------------------------------------------------------------------------------------------------


 ion  position               nearest neighbor table
   1  1.000  1.000  0.500-  47 1.43  41 1.43  80 1.43
   2  0.999  0.142  0.500-  42 1.42  41 1.43  74 1.43
   3  0.999  0.285  0.500-  43 1.43  42 1.43  75 1.43
   4  0.999  0.428  0.500-  43 1.42  44 1.43  76 1.43
   5  1.000  0.571  0.500-  45 1.43  44 1.43  77 1.43
   6  0.001  0.715  0.500-  45 1.42  46 1.43  78 1.43
   7  0.001  0.858  0.500-  47 1.42  46 1.43  79 1.43
   8  0.144  0.001  0.500-  48 1.43  54 1.43  47 1.43
   9  0.144  0.144  0.500-  48 1.43  49 1.43  41 1.43
  10  0.142  0.285  0.500-  50 1.42  49 1.42  42 1.43
  11  0.142  0.428  0.500-  50 1.42  51 1.42  43 1.43
  12  0.144  0.571  0.500-  52 1.43  51 1.43  44 1.43
  13  0.144  0.714  0.500-  52 1.43  45 1.43  53 1.43
  14  0.144  0.858  0.500-  46 1.43  54 1.43  53 1.43
  15  0.287  0.001  0.500-  54 1.42  59 1.43  55 1.44
  16  0.287  0.146  0.500-  55 1.43  48 1.43  56 1.45
  17  0.288  0.293  0.500-  85 1.34  49 1.45  56 1.51
  18  0.285  0.428  0.500-  85 1.38  86 1.38  50 1.43
  19  0.289  0.567  0.500-  86 1.34  51 1.45  57 1.51
  20  0.287  0.713  0.500-  58 1.43  52 1.43  57 1.45
  21  0.287  0.857  0.500-  53 1.42  59 1.43  58 1.44
  22  0.429  0.000  0.500-  59 1.43  63 1.43  60 1.43
  23  0.429  0.145  0.500-  55 1.42  60 1.44  61 1.44
  24  0.429  0.856  0.500-  58 1.42  63 1.44  62 1.44
  25  0.571  0.999  0.500-  63 1.42  64 1.43  66 1.44
  26  0.571  0.144  0.500-  60 1.42  64 1.43  65 1.44
  27  0.574  0.291  0.500-  87 1.35  65 1.44  61 1.49
  28  0.573  0.854  0.500-  88 1.35  66 1.44  62 1.49
  29  0.713  0.998  0.500-  66 1.42  73 1.43  67 1.44
  30  0.714  0.143  0.500-  64 1.43  68 1.43  67 1.43
  31  0.713  0.287  0.500-  65 1.42  69 1.43  68 1.44
  32  0.709  0.428  0.500-  87 1.34  69 1.45  70 1.51
  33  0.709  0.853  0.500-  88 1.34  73 1.45  72 1.51
  34  0.856  0.998  0.500-  74 1.43  80 1.43  73 1.43
  35  0.856  0.142  0.500-  67 1.42  75 1.43  74 1.43
  36  0.856  0.286  0.500-  68 1.42  75 1.43  76 1.43
  37  0.856  0.429  0.500-  77 1.43  76 1.43  69 1.43
  38  0.856  0.572  0.500-  78 1.42  77 1.43  70 1.45
  39  0.859  0.715  0.500-  79 1.42  78 1.42  71 1.43
  40  0.856  0.855  0.500-  79 1.42  80 1.43  72 1.46
  41  0.048  0.095  0.500-   2 1.43   1 1.43   9 1.43
  42  0.046  0.237  0.500-   2 1.42   3 1.43  10 1.43
  43  0.046  0.380  0.500-   4 1.42   3 1.43  11 1.43
  44  0.048  0.524  0.500-   4 1.43   5 1.43  12 1.43
  45  0.049  0.667  0.500-   6 1.42   5 1.43  13 1.43
  46  0.049  0.810  0.500-   6 1.43   7 1.43  14 1.43
  47  0.049  0.953  0.500-   7 1.42   1 1.43   8 1.43
  48  0.192  0.097  0.500-   8 1.43   9 1.43  16 1.43
  49  0.191  0.240  0.500-  10 1.42   9 1.43  17 1.45
  50  0.189  0.380  0.500-  10 1.42  11 1.42  18 1.43
  51  0.191  0.523  0.500-  11 1.42  12 1.43  19 1.45
  52  0.192  0.666  0.500-  13 1.43  12 1.43  20 1.43
  53  0.192  0.810  0.500-  21 1.42  14 1.43  13 1.43
  54  0.192  0.953  0.500-  15 1.42  14 1.43   8 1.43
  55  0.334  0.097  0.500-  23 1.42  16 1.43  15 1.44
  56  0.339  0.242  0.500-  81 1.34  16 1.45  17 1.51
  57  0.339  0.668  0.500-  82 1.34  20 1.45  19 1.51
  58  0.334  0.808  0.500-  24 1.42  20 1.43  21 1.44
  59  0.334  0.953  0.500-  22 1.43  15 1.43  21 1.43
  60  0.476  0.096  0.500-  26 1.42  22 1.43  23 1.44
  61  0.474  0.242  0.500-  81 1.35  23 1.44  27 1.49
  62  0.474  0.804  0.500-  82 1.35  24 1.44  28 1.49
  63  0.476  0.952  0.500-  25 1.42  22 1.43  24 1.44
  64  0.618  0.095  0.500-  30 1.43  26 1.43  25 1.43
  65  0.618  0.240  0.500-  31 1.42  26 1.44  27 1.44
  66  0.618  0.950  0.500-  29 1.42  25 1.44  28 1.44
  67  0.761  0.094  0.500-  35 1.42  30 1.43  29 1.44
  68  0.761  0.238  0.500-  36 1.42  30 1.43  31 1.44
  69  0.760  0.382  0.500-  31 1.43  37 1.43  32 1.45
  70  0.759  0.529  0.500-  83 1.34  38 1.45  32 1.51
  71  0.763  0.667  0.500-  83 1.37  84 1.37  39 1.43
  72  0.759  0.802  0.500-  84 1.34  40 1.46  33 1.51
  73  0.760  0.949  0.500-  29 1.43  34 1.43  33 1.45
  74  0.904  0.094  0.500-  34 1.43   2 1.43  35 1.43
  75  0.904  0.237  0.500-   3 1.43  35 1.43  36 1.43
  76  0.903  0.381  0.500-  37 1.43   4 1.43  36 1.43
  77  0.904  0.524  0.500-  37 1.43  38 1.43   5 1.43
  78  0.906  0.667  0.500-  39 1.42  38 1.42   6 1.43
  79  0.906  0.810  0.500-  39 1.42  40 1.42   7 1.43
  80  0.904  0.951  0.500-  34 1.43  40 1.43   1 1.43
  81  0.429  0.286  0.500-  56 1.34  61 1.35
  82  0.429  0.714  0.500-  57 1.34  62 1.35
  83  0.716  0.575  0.500-  70 1.34  71 1.37
  84  0.716  0.712  0.500-  72 1.34  71 1.37
  85  0.332  0.383  0.500-  17 1.34  18 1.38
  86  0.332  0.520  0.500-  19 1.34  18 1.38
  87  0.619  0.382  0.500-  32 1.34  27 1.35
  88  0.619  0.809  0.500-  33 1.34  28 1.35
  89  0.524  0.592  0.432-  91 0.93
  90  0.524  0.504  0.432-  91 0.93
  91  0.524  0.548  0.395-  89 0.93  90 0.93
 

IMPORTANT INFORMATION: All symmetrisations will be switched off!
NOSYMM: (Re-)initialisation of all symmetry stuff for point group C_1.


----------------------------------------------------------------------------------------

                                     Primitive cell                                     

  volume of cell :    3874.8846

  direct lattice vectors                    reciprocal lattice vectors
    17.271038055  0.000000000  0.000000000     0.057900399  0.033428811 -0.000000000
    -8.635519028 14.957157706  0.000000000     0.000000000  0.066857622  0.000000000
     0.000000000  0.000000000 15.000000000     0.000000000 -0.000000000  0.066666667

  length of vectors
    17.271038055 17.271038055 15.000000000     0.066857622  0.066857622  0.066666667

  position of ions in fractional coordinates (direct lattice)
     0.999798697  0.999713798  0.500000936
     0.999159686  0.142173230  0.500002231
     0.998894123  0.285111141  0.499999878
     0.999118534  0.428341687  0.499996946
     0.999833531  0.571409636  0.499997696
     0.001347166  0.714801408  0.499998615
     0.001263093  0.857843944  0.499999837
     0.144201364  0.001369229  0.500001109
     0.143654936  0.144105181  0.499999942
     0.142020210  0.285272184  0.499999851
     0.142016546  0.427996031  0.499998842
     0.143664098  0.570830967  0.500000851
     0.144208707  0.714053658  0.500000760
     0.144213736  0.857722973  0.500000703
     0.286740746  0.000901450  0.500001496
     0.287441581  0.145653479  0.500000605
     0.288463014  0.293173325  0.499999448
     0.284780900  0.427996366  0.500000088
     0.288509151  0.566512958  0.500000120
     0.287436564  0.712997981  0.500001098
     0.286758443  0.857062411  0.499999624
     0.429306289  0.000402960  0.499999165
     0.429379664  0.145200953  0.499999766
     0.429345895  0.855642654  0.500000574
     0.571191573  0.999186239  0.499999571
     0.571264941  0.143666876  0.499999060
     0.573512655  0.291314950  0.499999805
     0.573454249  0.853771421  0.499999044
     0.713275966  0.998066248  0.500001183
     0.713646816  0.142651019  0.500000560
     0.713318491  0.286884490  0.500000301
     0.708937081  0.427820786  0.499999705
     0.708843932  0.852757803  0.500000602
     0.855859447  0.998377121  0.500002762
     0.856025338  0.141967288  0.500001733
     0.855991744  0.285518344  0.499999257
     0.855869669  0.429011596  0.499998007
     0.856242032  0.572287107  0.499999249
     0.858564508  0.715099339  0.499999305
     0.856108744  0.855482567  0.499999966
     0.047824485  0.095407191  0.500001068
     0.046361410  0.237253358  0.500000817
     0.046331036  0.380422239  0.499998457
     0.047829789  0.523751963  0.499997559
     0.048570747  0.666848096  0.499998197
     0.048858100  0.810090336  0.499999801
     0.048520434  0.952970834  0.500000373
     0.191737706  0.096773222  0.500000458
     0.191372197  0.239657905  0.499999459
     0.188911066  0.380079361  0.499999580
     0.191409014  0.523002987  0.499999341
     0.191742326  0.666215798  0.500003798
     0.191699166  0.809703126  0.499999667
     0.191673720  0.953203600  0.500001821
     0.334311727  0.097072363  0.500000779
     0.338728835  0.242420814  0.499999822
     0.338760005  0.667594946  0.499999875
     0.334314538  0.808489102  0.499999342
     0.333982621  0.952606458  0.500000152
     0.476421754  0.096201348  0.499998906
     0.474199507  0.241610843  0.499999603
     0.474166740  0.804100793  0.500000204
     0.476374420  0.951736212  0.499999609
     0.618271464  0.094947681  0.499999382
     0.618258739  0.239729335  0.500002808
     0.618201293  0.950152299  0.499998583
     0.760901848  0.094304650  0.500001247
     0.760898383  0.238216180  0.499999351
     0.760209750  0.382360135  0.499999131
     0.759148071  0.528800521  0.499999916
     0.762624473  0.667134036  0.499999929
     0.758999397  0.801928927  0.500000147
     0.760175996  0.949473308  0.500002298
     0.903509188  0.093744367  0.500003187
     0.903525699  0.237493974  0.499999978
     0.903461934  0.381197805  0.499997497
     0.903976304  0.524415852  0.499998197
     0.905607328  0.667263643  0.499999100
     0.905557945  0.809907310  0.499999394
     0.903923044  0.951029715  0.500001168
     0.428507348  0.286331388  0.499999544
     0.428552862  0.713643090  0.499999620
     0.715890645  0.575235544  0.500000360
     0.715814655  0.712234176  0.500000165
     0.331607815  0.382882785  0.500000091
     0.331637422  0.519947366  0.500000406
     0.619137506  0.381763669  0.499999922
     0.619071691  0.808974835  0.499999600
     0.523736000  0.591500000  0.431663183
     0.523720000  0.503600000  0.431659183
     0.523715000  0.547550000  0.395336183

  ion indices of the primitive-cell ions
   primitive index   ion index
                 1           1
                 2           2
                 3           3
                 4           4
                 5           5
                 6           6
                 7           7
                 8           8
                 9           9
                10          10
                11          11
                12          12
                13          13
                14          14
                15          15
                16          16
                17          17
                18          18
                19          19
                20          20
                21          21
                22          22
                23          23
                24          24
                25          25
                26          26
                27          27
                28          28
                29          29
                30          30
                31          31
                32          32
                33          33
                34          34
                35          35
                36          36
                37          37
                38          38
                39          39
                40          40
                41          41
                42          42
                43          43
                44          44
                45          45
                46          46
                47          47
                48          48
                49          49
                50          50
                51          51
                52          52
                53          53
                54          54
                55          55
                56          56
                57          57
                58          58
                59          59
                60          60
                61          61
                62          62
                63          63
                64          64
                65          65
                66          66
                67          67
                68          68
                69          69
                70          70
                71          71
                72          72
                73          73
                74          74
                75          75
                76          76
                77          77
                78          78
                79          79
                80          80
                81          81
                82          82
                83          83
                84          84
                85          85
                86          86
                87          87
                88          88
                89          89
                90          90
                91          91

----------------------------------------------------------------------------------------

 
 
 KPOINTS: Automatic mesh                          

Automatic generation of k-mesh.
 Grid dimensions read from file:
 generate k-points for:    2    2    1

 Generating k-lattice:

  Cartesian coordinates                     Fractional coordinates (reciprocal lattice)
     0.028950200  0.016714406 -0.000000000     0.500000000  0.000000000  0.000000000
     0.000000000  0.033428811  0.000000000     0.000000000  0.500000000  0.000000000
     0.000000000 -0.000000000  0.066666667     0.000000000  0.000000000  1.000000000

  Length of vectors
     0.033428811  0.033428811  0.066666667

  Shift w.r.t. Gamma in fractional coordinates (k-lattice)
     0.000000000  0.000000000  0.000000000

 
 Subroutine IBZKPT returns following result:
 ===========================================
 
 Found      4 irreducible k-points:
 
 Following reciprocal coordinates:
            Coordinates               Weight
  0.000000  0.000000  0.000000      1.000000
  0.500000  0.000000  0.000000      1.000000
  0.000000  0.500000  0.000000      1.000000
  0.500000  0.500000  0.000000      1.000000
 
 Following cartesian coordinates:
            Coordinates               Weight
  0.000000  0.000000  0.000000      1.000000
  0.028950  0.016714  0.000000      1.000000
  0.000000  0.033429  0.000000      1.000000
  0.028950  0.050143  0.000000      1.000000
 


--------------------------------------------------------------------------------------------------------




 Dimension of arrays:
   k-points           NKPTS =      4   k-points in BZ     NKDIM =      4   number of bands    NBANDS=    230
   number of dos      NEDOS =    301   number of ions     NIONS =     91
   non local maximal  LDIM  =      4   non local SUM 2l+1 LMDIM =      8
   total plane-waves  NPLWV = 774144
   max r-space proj   IRMAX =   1771   max aug-charges    IRDMAX=  20933
   dimension x,y,z NGX =    96 NGY =   96 NGZ =   84
   dimension x,y,z NGXF=   192 NGYF=  192 NGZF=  168
   support grid    NGXF=   384 NGYF=  384 NGZF=  336
   ions per type =              80   8   2   1
   NGX,Y,Z   is equivalent  to a cutoff of   9.24,  9.24,  9.31 a.u.
   NGXF,Y,Z  is equivalent  to a cutoff of  18.48, 18.48, 18.62 a.u.

 SYSTEM =  unknown system                          
 POSCAR =  C4                                      

 Startparameter for this run:
   NWRITE =      2    write-flag & timer
   PREC   = normal    normal or accurate (medium, high low for compatibility)
   ISTART =      0    job   : 0-new  1-cont  2-samecut
   ICHARG =      2    charge: 1-file 2-atom 10-const
   ISPIN  =      1    spin polarized calculation?
   LNONCOLLINEAR =      F non collinear calculations
   LSORBIT =      F    spin-orbit coupling
   INIWAV =      1    electr: 0-lowe 1-rand  2-diag
   LASPH  =      T    aspherical Exc in radial PAW
 Electronic Relaxation 1
   ENCUT  =  500.0 eV  36.75 Ry    6.06 a.u.  31.49 31.49 27.35*2*pi/ulx,y,z
   ENINI  =  500.0     initial cutoff
   ENAUG  =  644.9 eV  augmentation charge cutoff
   NELM   =    200;   NELMIN=  2; NELMDL= -5     # of ELM steps 
   EDIFF  = 0.1E-05   stopping-criterion for ELM
   LREAL  =      T    real-space projection
   NLSPLINE    = F    spline interpolate recip. space projectors
   LCOMPAT=      F    compatible to vasp.4.4
   GGA_COMPAT  = T    GGA compatible to vasp.4.4-vasp.4.6
   LMAXPAW     = -100 max onsite density
   LMAXMIX     =    2 max onsite mixed and CHGCAR
   VOSKOWN=      0    Vosko Wilk Nusair interpolation
   ROPT   =   -0.00050  -0.00050  -0.00050  -0.00050
 Ionic relaxation
   EDIFFG = -.2E-01   stopping-criterion for IOM
   NSW    =    300    number of steps for IOM
   NBLOCK =      1;   KBLOCK =    300    inner block; outer block 
   IBRION =      2    ionic relax: 0-MD 1-quasi-New 2-CG
   NFREE  =      1    steps in history (QN), initial steepest desc. (CG)
   ISIF   =      2    stress and relaxation
   IWAVPR =     11    prediction:  0-non 1-charg 2-wave 3-comb
   ISYM   =      0    0-nonsym 1-usesym 2-fastsym
   LCORR  =      T    Harris-Foulkes like correction to forces

   POTIM  = 0.5000    time-step for ionic-motion
   TEIN   =    0.0    initial temperature
   TEBEG  =    0.0;   TEEND  =   0.0 temperature during run
   SMASS  =  -3.00    Nose mass-parameter (am)
   estimated Nose-frequenzy (Omega)   =  0.10E-29 period in steps = 0.13E+47 mass=  -0.682E-26a.u.
   SCALEE = 1.0000    scale energy and forces
   NPACO  =    256;   APACO  = 10.0  distance and # of slots for P.C.
   PSTRESS=    0.0 pullay stress

  Mass of Ions in am
   POMASS =  12.01 14.00  1.00 16.00
  Ionic Valenz
   ZVAL   =   4.00  5.00  1.00  6.00
  Atomic Wigner-Seitz radii
   RWIGS  =  -1.00 -1.00 -1.00 -1.00
  virtual crystal weights 
   VCA    =   1.00  1.00  1.00  1.00
   NELECT =     368.0000    total number of electrons
   NUPDOWN=      -1.0000    fix difference up-down

 DOS related values:
   EMIN   =  10.00;   EMAX   =-10.00  energy-range for DOS
   EFERMI =   0.00;   METHOD = LEGACY      
   ISMEAR =     0;   SIGMA  =   0.05  broadening in eV -4-tet -1-fermi 0-gaus

 Electronic relaxation 2 (details)
   IALGO  =     38    algorithm
   LDIAG  =      T    sub-space diagonalisation (order eigenvalues)
   LSUBROT=      F    optimize rotation matrix (better conditioning)
   TURBO    =      0    0=normal 1=particle mesh
   IRESTART =      0    0=no restart 2=restart with 2 vectors
   NREBOOT  =      0    no. of reboots
   NMIN     =      0    reboot dimension
   EREF     =   0.00    reference energy to select bands
   IMIX   =      4    mixing-type and parameters
     AMIX     =   0.20;   BMIX     =  0.00
     AMIX_MAG =   0.80;   BMIX_MAG =  0.00
     AMIN     =   0.10
     WC   =   100.;   INIMIX=   1;  MIXPRE=   1;  MAXMIX= -45

 Intra band minimization:
   WEIMIN = 0.0010     energy-eigenvalue tresh-hold
   EBREAK =  0.11E-08  absolut break condition
   DEPER  =   0.30     relativ break condition  

   TIME   =   0.40     timestep for ELM

  volume/ion in A,a.u.               =      42.58       287.35
  Fermi-wavevector in a.u.,A,eV,Ry     =   0.746915  1.411465  7.590446  0.557882
  Thomas-Fermi vector in A             =   1.842848
 
 Write flags
   LWAVE        =      F    write WAVECAR
   LDOWNSAMPLE  =      F    k-point downsampling of WAVECAR
   LCHARG       =      F    write CHGCAR
   LVTOT        =      F    write LOCPOT, total local potential
   LVHAR        =      F    write LOCPOT, Hartree potential only
   LELF         =      F    write electronic localiz. function (ELF)
   LORBIT       =      0    0 simple, 1 ext, 2 COOP (PROOUT), +10 PAW based schemes


 Dipole corrections
   LMONO  =      F    monopole corrections only (constant potential shift)
   LDIPOL =      F    correct potential (dipole corrections)
   IDIPOL =      0    1-x, 2-y, 3-z, 4-all directions 
   EPSILON=  1.0000000 bulk dielectric constant

 Exchange correlation treatment:
   GGA     =    --    GGA type
   LEXCH   =     8    internal setting for exchange type
   LIBXC   =     F    Libxc                    
   VOSKOWN =     0    Vosko Wilk Nusair interpolation
   LHFCALC =     F    Hartree Fock is set to
   LHFONE  =     F    Hartree Fock one center treatment
   AEXX    =    0.0000 exact exchange contribution

 Linear response parameters
   LEPSILON=     F    determine dielectric tensor
   LRPA    =     F    only Hartree local field effects (RPA)
   LNABLA  =     F    use nabla operator in PAW spheres
   LVEL    =     F    velocity operator in full k-point grid
   CSHIFT  =0.1000    complex shift for real part using Kramers Kronig
   OMEGAMAX=  -1.0    maximum frequency
   DEG_THRESHOLD= 0.2000000E-02 threshold for treating states as degnerate
   RTIME   =   -0.100 relaxation time in fs
  (WPLASMAI=    0.000 imaginary part of plasma frequency in eV, 0.658/RTIME)
   DFIELD  = 0.0000000 0.0000000 0.0000000 field for delta impulse in time
 
  Optional k-point grid parameters
   LKPOINTS_OPT  =     F    use optional k-point grid
   KPOINTS_OPT_MODE=     1    mode for optional k-point grid
 
 Orbital magnetization related:
   ORBITALMAG=     F  switch on orbital magnetization
   LCHIMAG   =     F  perturbation theory with respect to B field
   DQ        =  0.001000  dq finite difference perturbation B field
   LLRAUG    =     F  two centre corrections for induced B field
   LBONE     =     F  B-component reconstruction in AE one-centre
   LVGVCALC  =     T  calculate vGv susceptibility
   LVGVAPPL  =     F  apply vGv susceptibility instead of pGv for G=0

 Random number generation:
   RANDOM_GENERATOR = DEFAULT
   PCG_SEED         = not used


--------------------------------------------------------------------------------------------------------


 conjugate gradient relaxation of ions
   using selective dynamics as specified on POSCAR
 charge density and potential will be updated during run
 non-spin polarized calculation
 Variant of blocked Davidson
 Davidson routine will perform the subspace rotation
 perform sub-space diagonalisation
    after iterative eigenvector-optimisation
 modified Broyden-mixing scheme, WC =      100.0
 initial mixing is a Kerker type mixing with AMIX =  0.2000 and BMIX =      0.0001
 Hartree-type preconditioning will be used
 using additional bands            46
 real space projection scheme for non local part
 use partial core corrections
 calculate Harris-corrections to forces 
   (improved forces if not selfconsistent)
 use gradient corrections 
 use of overlap-Matrix (Vanderbilt PP)
 Gauss-broadening in eV      SIGMA  =   0.05


--------------------------------------------------------------------------------------------------------


  energy-cutoff  :      500.00
  volume of cell :     3874.88
      direct lattice vectors                 reciprocal lattice vectors
    17.271038055  0.000000000  0.000000000     0.057900399  0.033428811 -0.000000000
    -8.635519028 14.957157706  0.000000000     0.000000000  0.066857622  0.000000000
     0.000000000  0.000000000 15.000000000     0.000000000 -0.000000000  0.066666667

  length of vectors
    17.271038055 17.271038055 15.000000000     0.066857622  0.066857622  0.066666667


 
 k-points in units of 2pi/SCALE and weight: Automatic mesh                          
   0.00000000  0.00000000  0.00000000       0.250
   0.02895020  0.01671441  0.00000000       0.250
   0.00000000  0.03342881  0.00000000       0.250
   0.02895020  0.05014322  0.00000000       0.250
 
 k-points in reciprocal lattice and weights: Automatic mesh                          
   0.00000000  0.00000000  0.00000000       0.250
   0.50000000  0.00000000  0.00000000       0.250
   0.00000000  0.50000000  0.00000000       0.250
   0.50000000  0.50000000  0.00000000       0.250
 
 position of ions in fractional coordinates (direct lattice) 
   0.99979870  0.99971380  0.50000094
   0.99915969  0.14217323  0.50000223
   0.99889412  0.28511114  0.49999988
   0.99911853  0.42834169  0.49999695
   0.99983353  0.57140964  0.49999770
   0.00134717  0.71480141  0.49999861
   0.00126309  0.85784394  0.49999984
   0.14420136  0.00136923  0.50000111
   0.14365494  0.14410518  0.49999994
   0.14202021  0.28527218  0.49999985
   0.14201655  0.42799603  0.49999884
   0.14366410  0.57083097  0.50000085
   0.14420871  0.71405366  0.50000076
   0.14421374  0.85772297  0.50000070
   0.28674075  0.00090145  0.50000150
   0.28744158  0.14565348  0.50000060
   0.28846301  0.29317332  0.49999945
   0.28478090  0.42799637  0.50000009
   0.28850915  0.56651296  0.50000012
   0.28743656  0.71299798  0.50000110
   0.28675844  0.85706241  0.49999962
   0.42930629  0.00040296  0.49999917
   0.42937966  0.14520095  0.49999977
   0.42934589  0.85564265  0.50000057
   0.57119157  0.99918624  0.49999957
   0.57126494  0.14366688  0.49999906
   0.57351266  0.29131495  0.49999980
   0.57345425  0.85377142  0.49999904
   0.71327597  0.99806625  0.50000118
   0.71364682  0.14265102  0.50000056
   0.71331849  0.28688449  0.50000030
   0.70893708  0.42782079  0.49999970
   0.70884393  0.85275780  0.50000060
   0.85585945  0.99837712  0.50000276
   0.85602534  0.14196729  0.50000173
   0.85599174  0.28551834  0.49999926
   0.85586967  0.42901160  0.49999801
   0.85624203  0.57228711  0.49999925
   0.85856451  0.71509934  0.49999931
   0.85610874  0.85548257  0.49999997
   0.04782449  0.09540719  0.50000107
   0.04636141  0.23725336  0.50000082
   0.04633104  0.38042224  0.49999846
   0.04782979  0.52375196  0.49999756
   0.04857075  0.66684810  0.49999820
   0.04885810  0.81009034  0.49999980
   0.04852043  0.95297083  0.50000037
   0.19173771  0.09677322  0.50000046
   0.19137220  0.23965791  0.49999946
   0.18891107  0.38007936  0.49999958
   0.19140901  0.52300299  0.49999934
   0.19174233  0.66621580  0.50000380
   0.19169917  0.80970313  0.49999967
   0.19167372  0.95320360  0.50000182
   0.33431173  0.09707236  0.50000078
   0.33872883  0.24242081  0.49999982
   0.33876001  0.66759495  0.49999988
   0.33431454  0.80848910  0.49999934
   0.33398262  0.95260646  0.50000015
   0.47642175  0.09620135  0.49999891
   0.47419951  0.24161084  0.49999960
   0.47416674  0.80410079  0.50000020
   0.47637442  0.95173621  0.49999961
   0.61827146  0.09494768  0.49999938
   0.61825874  0.23972933  0.50000281
   0.61820129  0.95015230  0.49999858
   0.76090185  0.09430465  0.50000125
   0.76089838  0.23821618  0.49999935
   0.76020975  0.38236014  0.49999913
   0.75914807  0.52880052  0.49999992
   0.76262447  0.66713404  0.49999993
   0.75899940  0.80192893  0.50000015
   0.76017600  0.94947331  0.50000230
   0.90350919  0.09374437  0.50000319
   0.90352570  0.23749397  0.49999998
   0.90346193  0.38119781  0.49999750
   0.90397630  0.52441585  0.49999820
   0.90560733  0.66726364  0.49999910
   0.90555794  0.80990731  0.49999939
   0.90392304  0.95102971  0.50000117
   0.42850735  0.28633139  0.49999954
   0.42855286  0.71364309  0.49999962
   0.71589065  0.57523554  0.50000036
   0.71581465  0.71223418  0.50000016
   0.33160781  0.38288279  0.50000009
   0.33163742  0.51994737  0.50000041
   0.61913751  0.38176367  0.49999992
   0.61907169  0.80897483  0.49999960
   0.52373600  0.59150000  0.43166318
   0.52372000  0.50360000  0.43165918
   0.52371500  0.54755000  0.39533618
 
 position of ions in cartesian coordinates  (Angst):
   8.63451382 14.95287694  7.50001404
  16.02878533  2.12650742  7.50003346
  14.78985572  4.26445230  7.49999816
  13.55686143  6.40677416  7.49995419
  12.33374418  8.54666404  7.49996544
  -6.14941421 10.69139739  7.49997922
  -7.38611278 12.83090715  7.49999755
   2.47868323  0.02047978  7.50001664
   1.23664683  2.15540392  7.49999913
  -0.01063692  4.26686105  7.49999776
  -1.24319470  6.40160413  7.49998263
  -2.44819357  8.53800880  7.50001277
  -3.67558988 10.68021317  7.50001140
  -4.91616213 12.82909777  7.50001055
   4.94452584  0.01348313  7.50002245
   3.70662109  2.17856205  7.50000907
   2.45035186  4.38503965  7.49999171
   1.22249100  6.40160914  7.50000132
   0.09071910  8.47342366  7.50000180
  -1.19277979 10.66442324  7.50001647
  -2.44856277 12.81921765  7.49999436
   7.41108549  0.00602714  7.49998748
   6.16194692  2.17179356  7.49999650
   0.02633087 12.79798211  7.50000860
   1.23657962 14.94498616  7.49999356
   8.62570050  2.14884811  7.49998590
   7.38950310  4.35724365  7.49999707
   2.53139081 12.76999379  7.49998566
   3.70019627 14.92823427  7.50001775
  11.09355573  2.13365379  7.50000839
   9.84235433  4.29097656  7.50000451
   8.54962477  6.39898297  7.49999557
   4.87846429 12.75483294  7.50000903
   6.16007645 14.93288405  7.50004143
  13.55848497  2.12342712  7.50002599
  12.31826690  4.27054290  7.49998886
  11.07701983  6.41679410  7.49997010
   9.84619253  8.55978851  7.49998874
   8.65304634 10.69585359  7.49998958
   7.39835070 12.79558767  7.49999949
   0.00208789  1.42702040  7.50001602
  -1.24809621  3.54863589  7.50001226
  -2.48495839  5.69003542  7.49997686
  -3.69679993  7.83384071  7.49996338
  -4.91971221  9.97415214  7.49997296
  -6.15172040 12.11664891  7.49999701
  -7.39139950 14.25373506  7.50000559
   2.47582222  1.44745235  7.50000686
   1.23562610  3.58460108  7.49999188
  -0.01949236  5.68490695  7.49999370
  -1.21056988  7.82263815  7.49999012
  -2.44153019  9.96469476  7.50005697
  -3.68136316 12.11085735  7.49999501
  -4.92100371 14.25721656  7.50002731
   4.93564032  1.45192665  7.50001169
   3.75676904  3.62592635  7.49999733
   0.08570808  9.98532289  7.49999813
  -1.20776393 12.09269901  7.49999012
  -2.45802464 14.24828502  7.50000228
   7.39754967  1.43889873  7.49998360
   6.10348270  3.61381148  7.49999405
   1.24552410 12.02706238  7.50000307
   0.00874458 14.23526862  7.49999413
   9.85826748  1.42014744  7.49999073
   8.60778297  3.58566947  7.50004212
   2.47191979 14.21157778  7.49997875
  12.32719518  1.41052952  7.50001870
  11.08438456  3.56303698  7.49999026
   9.82773329  5.71902084  7.49998697
   8.54480827  7.90935278  7.49999874
   7.41026764  9.97842899  7.49999893
   6.18363496 11.99457743  7.50000221
   4.92983374 14.20142200  7.50003447
  14.79501031  1.40214927  7.50004781
  13.55394299  3.55223483  7.49999967
  12.31188455  5.70163569  7.49996245
  11.08400607  7.84377061  7.49997295
   9.87861074  9.98036754  7.49998651
   8.64595574 12.11391136  7.49999091
   7.39905410 14.22470143  7.50001752
   4.92814657  4.28270373  7.49999316
   1.23887431 10.67407224  7.49999431
   7.39671709  8.60388876  7.50000540
   6.21235036 10.65299890  7.50000247
   2.42081961  5.72683820  7.50000136
   1.23770715  7.77693476  7.50000608
   7.39642001  5.71009940  7.49999883
   3.70609315 12.09996419  7.49999400
   3.93755488  8.84715878  6.47494774
   4.69634067  7.53242462  6.47488775
   4.31672325  8.18979170  5.93004274
 


--------------------------------------------------------------------------------------------------------


 k-point   1 :   0.0000 0.0000 0.0000  plane waves:   98419
 k-point   2 :   0.5000 0.0000 0.0000  plane waves:   98350
 k-point   3 :   0.0000 0.5000 0.0000  plane waves:   98350
 k-point   4 :   0.5000 0.5000 0.0000  plane waves:   98350

 maximum and minimum number of plane-waves per node :      8237     8161

 maximum number of plane-waves:     98419
 maximum index in each direction: 
   IXMAX=   31   IYMAX=   31   IZMAX=   27
   IXMIN=  -31   IYMIN=  -31   IZMIN=  -27


 real space projection operators:
  total allocation   :       5110.45 KBytes
  max/ min on nodes  :        439.92        410.58


 parallel 3D FFT for wavefunctions:
    minimum data exchange during FFTs selected (reduces bandwidth)
 parallel 3D FFT for charge:
    minimum data exchange during FFTs selected (reduces bandwidth)


 total amount of memory used by VASP MPI-rank0   273107. kBytes
=======================================================================

   base      :      30000. kBytes
   nonlr-proj:       3210. kBytes
   fftplans  :      77588. kBytes
   grid      :      40095. kBytes
   one-center:         24. kBytes
   wavefun   :     122190. kBytes
 
     INWAV:  cpu time      0.0001: real time      0.0001
 Broyden mixing: mesh for mixing (old mesh)
   NGX = 63   NGY = 63   NGZ = 55
  (NGX  =192   NGY  =192   NGZ  =168)
  gives a total of 218295 points

 initial charge density was supplied:
 charge density of overlapping atoms calculated
 number of electron     368.0000000 magnetization 
 keeping initial charge density in first step


--------------------------------------------------------------------------------------------------------


 Maximum index for non-local projection operator           148
 Maximum index for augmentation-charges          1703 (set IRDMAX)


--------------------------------------------------------------------------------------------------------


 First call to EWALD:  gamma=   0.113
 Maximum number of real-space cells 3x 3x 3
 Maximum number of reciprocal cells 3x 3x 3

    FEWALD:  cpu time      0.0048: real time      0.0048


--------------------------------------- Ionic step        1  -------------------------------------------




--------------------------------------- Iteration      1(   1)  ---------------------------------------


    POTLOK:  cpu time      0.6219: real time      0.6417
    SETDIJ:  cpu time      0.5726: real time      0.5763
     EDDAV:  cpu time     12.1068: real time     12.2140
       DOS:  cpu time      0.0021: real time      0.0021
    --------------------------------------------
      LOOP:  cpu time     13.3033: real time     13.4341

 eigenvalue-minimisations  :  2064
 total energy-change (2. order) : 0.3373676E+04  (-0.1373818E+05)
 number of electron     368.0000000 magnetization 
 augmentation part      368.0000000 magnetization 

 Free energy of the ion-electron system (eV)
  ---------------------------------------------------
  alpha Z        PSCENC =       175.06488379
  Ewald energy   TEWEN  =     36243.08629130
  -Hartree energ DENC   =    -47063.65254442
  -exchange      EXHF   =         0.00000000
  -V(xc)+E(xc)   XCENC  =      1240.41725789
  PAW double counting   =     10672.04309506   -10728.93985873
  entropy T*S    EENTRO =        -0.04175748
  eigenvalues    EBANDS =     -1509.78317087
  atomic energy  EATOM  =     14345.48182387
  Solvation  Ediel_sol  =         0.00000000
  ---------------------------------------------------
  free energy    TOTEN  =      3373.67602041 eV

  energy without entropy =     3373.71777789  energy(sigma->0) =     3373.69689915


--------------------------------------------------------------------------------------------------------




--------------------------------------- Iteration      1(   2)  ---------------------------------------


     EDDAV:  cpu time     14.8367: real time     14.9759
       DOS:  cpu time      0.0013: real time      0.0013
    --------------------------------------------
      LOOP:  cpu time     14.8380: real time     14.9771

 eigenvalue-minimisations  :  2696
 total energy-change (2. order) :-0.3542269E+04  (-0.3369213E+04)
 number of electron     368.0000000 magnetization 
 augmentation part      368.0000000 magnetization 

 Free energy of the ion-electron system (eV)
  ---------------------------------------------------
  alpha Z        PSCENC =       175.06488379
  Ewald energy   TEWEN  =     36243.08629130
  -Hartree energ DENC   =    -47063.65254442
  -exchange      EXHF   =         0.00000000
  -V(xc)+E(xc)   XCENC  =      1240.41725789
  PAW double counting   =     10672.04309506   -10728.93985873
  entropy T*S    EENTRO =        -0.00063710
  eigenvalues    EBANDS =     -5052.09340608
  atomic energy  EATOM  =     14345.48182387
  Solvation  Ediel_sol  =         0.00000000
  ---------------------------------------------------
  free energy    TOTEN  =      -168.59309442 eV

  energy without entropy =     -168.59245732  energy(sigma->0) =     -168.59277587


--------------------------------------------------------------------------------------------------------




--------------------------------------- Iteration      1(   3)  ---------------------------------------


     EDDAV:  cpu time     12.4906: real time     12.6076
       DOS:  cpu time      0.0008: real time      0.0008
    --------------------------------------------
      LOOP:  cpu time     12.4915: real time     12.6084

 eigenvalue-minimisations  :  2192
 total energy-change (2. order) :-0.6716461E+03  (-0.6679450E+03)
 number of electron     368.0000000 magnetization 
 augmentation part      368.0000000 magnetization 

 Free energy of the ion-electron system (eV)
  ---------------------------------------------------
  alpha Z        PSCENC =       175.06488379
  Ewald energy   TEWEN  =     36243.08629130
  -Hartree energ DENC   =    -47063.65254442
  -exchange      EXHF   =         0.00000000
  -V(xc)+E(xc)   XCENC  =      1240.41725789
  PAW double counting   =     10672.04309506   -10728.93985873
  entropy T*S    EENTRO =        -0.00000046
  eigenvalues    EBANDS =     -5723.74016542
  atomic energy  EATOM  =     14345.48182387
  Solvation  Ediel_sol  =         0.00000000
  ---------------------------------------------------
  free energy    TOTEN  =      -840.23921712 eV

  energy without entropy =     -840.23921666  energy(sigma->0) =     -840.23921689


--------------------------------------------------------------------------------------------------------




--------------------------------------- Iteration      1(   4)  ---------------------------------------


     EDDAV:  cpu time     12.6056: real time     12.7201
       DOS:  cpu time      0.0012: real time      0.0012
    --------------------------------------------
      LOOP:  cpu time     12.6068: real time     12.7213

 eigenvalue-minimisations  :  2192
 total energy-change (2. order) :-0.2543719E+02  (-0.2521719E+02)
 number of electron     368.0000000 magnetization 
 augmentation part      368.0000000 magnetization 

 Free energy of the ion-electron system (eV)
  ---------------------------------------------------
  alpha Z        PSCENC =       175.06488379
  Ewald energy   TEWEN  =     36243.08629130
  -Hartree energ DENC   =    -47063.65254442
  -exchange      EXHF   =         0.00000000
  -V(xc)+E(xc)   XCENC  =      1240.41725789
  PAW double counting   =     10672.04309506   -10728.93985873
  entropy T*S    EENTRO =        -0.00000036
  eigenvalues    EBANDS =     -5749.17735890
  atomic energy  EATOM  =     14345.48182387
  Solvation  Ediel_sol  =         0.00000000
  ---------------------------------------------------
  free energy    TOTEN  =      -865.67641051 eV

  energy without entropy =     -865.67641014  energy(sigma->0) =     -865.67641032


--------------------------------------------------------------------------------------------------------




--------------------------------------- Iteration      1(   5)  ---------------------------------------


     EDDAV:  cpu time     14.1170: real time     14.2444
       DOS:  cpu time      0.0009: real time      0.0009
    CHARGE:  cpu time      0.7813: real time      0.7875
    MIXING:  cpu time      0.0192: real time      0.0193
    --------------------------------------------
      LOOP:  cpu time     14.9183: real time     15.0520

 eigenvalue-minimisations  :  2512
 total energy-change (2. order) :-0.8208124E+00  (-0.8180678E+00)
 number of electron     367.9999996 magnetization 
 augmentation part       11.1635947 magnetization 

 Broyden mixing:
  rms(total) = 0.42933E+01    rms(broyden)= 0.42923E+01
  rms(prec ) = 0.47947E+01
  weight for this iteration     100.00

 Free energy of the ion-electron system (eV)
  ---------------------------------------------------
  alpha Z        PSCENC =       175.06488379
  Ewald energy   TEWEN  =     36243.08629130
  -Hartree energ DENC   =    -47063.65254442
  -exchange      EXHF   =         0.00000000
  -V(xc)+E(xc)   XCENC  =      1240.41725789
  PAW double counting   =     10672.04309506   -10728.93985873
  entropy T*S    EENTRO =        -0.00000036
  eigenvalues    EBANDS =     -5749.99817133
  atomic energy  EATOM  =     14345.48182387
  Solvation  Ediel_sol  =         0.00000000
  ---------------------------------------------------
  free energy    TOTEN  =      -866.49722293 eV

  energy without entropy =     -866.49722257  energy(sigma->0) =     -866.49722275


--------------------------------------------------------------------------------------------------------




--------------------------------------- Iteration      1(   6)  ---------------------------------------


    POTLOK:  cpu time      0.6269: real time      0.6544
    SETDIJ:  cpu time      0.5631: real time      0.5672
     EDDAV:  cpu time     11.9053: real time     12.0055
       DOS:  cpu time      0.0013: real time      0.0013
    CHARGE:  cpu time      0.7575: real time      0.7637
    MIXING:  cpu time      0.0186: real time      0.0188
    --------------------------------------------
      LOOP:  cpu time     13.8728: real time     14.0108

 eigenvalue-minimisations  :  2048
 total energy-change (2. order) : 0.2890783E+02  (-0.2067741E+01)
 number of electron     367.9999997 magnetization 
 augmentation part       10.7090468 magnetization 

 Broyden mixing:
  rms(total) = 0.32443E+01    rms(broyden)= 0.32442E+01
  rms(prec ) = 0.35615E+01
  weight for this iteration     100.00

 eigenvalues of (default mixing * dielectric matrix)
  average eigenvalue GAMMA=   3.1414
  3.1414

 Free energy of the ion-electron system (eV)
  ---------------------------------------------------
  alpha Z        PSCENC =       175.06488379
  Ewald energy   TEWEN  =     36243.08629130
  -Hartree energ DENC   =    -47485.18309526
  -exchange      EXHF   =         0.00000000
  -V(xc)+E(xc)   XCENC  =      1255.87669287
  PAW double counting   =     14366.46066114   -14426.83257213
  entropy T*S    EENTRO =        -0.00000007
  eigenvalues    EBANDS =     -5311.54407397
  atomic energy  EATOM  =     14345.48182387
  Solvation  Ediel_sol  =         0.00000000
  ---------------------------------------------------
  free energy    TOTEN  =      -837.58938846 eV

  energy without entropy =     -837.58938839  energy(sigma->0) =     -837.58938842


--------------------------------------------------------------------------------------------------------




--------------------------------------- Iteration      1(   7)  ---------------------------------------


    POTLOK:  cpu time      0.6133: real time      0.6313
    SETDIJ:  cpu time      0.5548: real time      0.5584
     EDDAV:  cpu time     11.7818: real time     11.8830
       DOS:  cpu time      0.0011: real time      0.0011
    CHARGE:  cpu time      0.7600: real time      0.7661
    MIXING:  cpu time      0.0286: real time      0.0288
    --------------------------------------------
      LOOP:  cpu time     13.7397: real time     13.8687

 eigenvalue-minimisations  :  2008
 total energy-change (2. order) : 0.2410748E+02  (-0.8228309E+01)
 number of electron     367.9999997 magnetization 
 augmentation part        9.7940598 magnetization 

 Broyden mixing:
  rms(total) = 0.16176E+01    rms(broyden)= 0.16169E+01
  rms(prec ) = 0.17629E+01
  weight for this iteration     100.00

 eigenvalues of (default mixing * dielectric matrix)
  average eigenvalue GAMMA=   2.1837
  1.2124  3.1549

 Free energy of the ion-electron system (eV)
  ---------------------------------------------------
  alpha Z        PSCENC =       175.06488379
  Ewald energy   TEWEN  =     36243.08629130
  -Hartree energ DENC   =    -48408.23757129
  -exchange      EXHF   =         0.00000000
  -V(xc)+E(xc)   XCENC  =      1290.59542319
  PAW double counting   =     26317.23344668   -26384.73297696
  entropy T*S    EENTRO =        -0.02831796
  eigenvalues    EBANDS =     -4391.94491517
  atomic energy  EATOM  =     14345.48182387
  Solvation  Ediel_sol  =         0.00000000
  ---------------------------------------------------
  free energy    TOTEN  =      -813.48191255 eV

  energy without entropy =     -813.45359459  energy(sigma->0) =     -813.46775357


--------------------------------------------------------------------------------------------------------




--------------------------------------- Iteration      1(   8)  ---------------------------------------


    POTLOK:  cpu time      0.6287: real time      0.6345
    SETDIJ:  cpu time      0.5592: real time      0.5623
     EDDAV:  cpu time     12.6546: real time     12.7613
       DOS:  cpu time      0.0009: real time      0.0009
    CHARGE:  cpu time      0.7816: real time      0.7879
    MIXING:  cpu time      0.0197: real time      0.0198
    --------------------------------------------
      LOOP:  cpu time     14.6448: real time     14.7667

 eigenvalue-minimisations  :  2216
 total energy-change (2. order) : 0.1588735E+00  (-0.1810933E+01)
 number of electron     367.9999998 magnetization 
 augmentation part       10.0026364 magnetization 

 Broyden mixing:
  rms(total) = 0.11040E+01    rms(broyden)= 0.11035E+01
  rms(prec ) = 0.11450E+01
  weight for this iteration     100.00

 eigenvalues of (default mixing * dielectric matrix)
  average eigenvalue GAMMA=   2.2097
  4.2345  1.8839  0.5107

 Free energy of the ion-electron system (eV)
  ---------------------------------------------------
  alpha Z        PSCENC =       175.06488379
  Ewald energy   TEWEN  =     36243.08629130
  -Hartree energ DENC   =    -48428.05223501
  -exchange      EXHF   =         0.00000000
  -V(xc)+E(xc)   XCENC  =      1290.56150574
  PAW double counting   =     28309.53333331   -28376.92069889
  entropy T*S    EENTRO =        -0.00000033
  eigenvalues    EBANDS =     -4372.07794278
  atomic energy  EATOM  =     14345.48182387
  Solvation  Ediel_sol  =         0.00000000
  ---------------------------------------------------
  free energy    TOTEN  =      -813.32303900 eV

  energy without entropy =     -813.32303867  energy(sigma->0) =     -813.32303884


--------------------------------------------------------------------------------------------------------




--------------------------------------- Iteration      1(   9)  ---------------------------------------


    POTLOK:  cpu time      0.6216: real time      0.6378
    SETDIJ:  cpu time      0.5527: real time      0.5562
     EDDAV:  cpu time     12.3686: real time     12.4902
       DOS:  cpu time      0.0009: real time      0.0009
    CHARGE:  cpu time      0.7652: real time      0.7715
    MIXING:  cpu time      0.0263: real time      0.0264
    --------------------------------------------
      LOOP:  cpu time     14.3353: real time     14.4831

 eigenvalue-minimisations  :  2096
 total energy-change (2. order) :-0.5271933E+00  (-0.3714354E+00)
 number of electron     367.9999998 magnetization 
 augmentation part        9.9738700 magnetization 

 Broyden mixing:
  rms(total) = 0.64247E+00    rms(broyden)= 0.64239E+00
  rms(prec ) = 0.72106E+00
  weight for this iteration     100.00

 eigenvalues of (default mixing * dielectric matrix)
  average eigenvalue GAMMA=   2.1362
  4.4664  2.1924  1.2478  0.6384

 Free energy of the ion-electron system (eV)
  ---------------------------------------------------
  alpha Z        PSCENC =       175.06488379
  Ewald energy   TEWEN  =     36243.08629130
  -Hartree energ DENC   =    -48550.60832147
  -exchange      EXHF   =         0.00000000
  -V(xc)+E(xc)   XCENC  =      1295.44508538
  PAW double counting   =     33860.30196494   -33928.54614073
  entropy T*S    EENTRO =        -0.00000022
  eigenvalues    EBANDS =     -4254.07581916
  atomic energy  EATOM  =     14345.48182387
  Solvation  Ediel_sol  =         0.00000000
  ---------------------------------------------------
  free energy    TOTEN  =      -813.85023230 eV

  energy without entropy =     -813.85023208  energy(sigma->0) =     -813.85023219


--------------------------------------------------------------------------------------------------------




--------------------------------------- Iteration      1(  10)  ---------------------------------------


    POTLOK:  cpu time      0.6190: real time      0.6685
    SETDIJ:  cpu time      0.5573: real time      0.5609
     EDDAV:  cpu time     12.7789: real time     12.8894
       DOS:  cpu time      0.0008: real time      0.0008
    CHARGE:  cpu time      0.7715: real time      0.7777
    MIXING:  cpu time      0.0230: real time      0.0231
    --------------------------------------------
      LOOP:  cpu time     14.7505: real time     14.9204

 eigenvalue-minimisations  :  2200
 total energy-change (2. order) : 0.6714061E+00  (-0.9346114E-01)
 number of electron     367.9999998 magnetization 
 augmentation part        9.9363020 magnetization 

 Broyden mixing:
  rms(total) = 0.34656E+00    rms(broyden)= 0.34654E+00
  rms(prec ) = 0.40130E+00
  weight for this iteration     100.00

 eigenvalues of (default mixing * dielectric matrix)
  average eigenvalue GAMMA=   2.2224
  4.8586  3.1172  1.2742  1.2742  0.5877

 Free energy of the ion-electron system (eV)
  ---------------------------------------------------
  alpha Z        PSCENC =       175.06488379
  Ewald energy   TEWEN  =     36243.08629130
  -Hartree energ DENC   =    -48509.52708089
  -exchange      EXHF   =         0.00000000
  -V(xc)+E(xc)   XCENC  =      1294.63702696
  PAW double counting   =     35722.30162328   -35790.32223801
  entropy T*S    EENTRO =        -0.00000010
  eigenvalues    EBANDS =     -4293.90115636
  atomic energy  EATOM  =     14345.48182387
  Solvation  Ediel_sol  =         0.00000000
  ---------------------------------------------------
  free energy    TOTEN  =      -813.17882617 eV

  energy without entropy =     -813.17882607  energy(sigma->0) =     -813.17882612


--------------------------------------------------------------------------------------------------------




--------------------------------------- Iteration      1(  11)  ---------------------------------------


    POTLOK:  cpu time      0.6527: real time      0.6583
    SETDIJ:  cpu time      0.5617: real time      0.5648
     EDDAV:  cpu time     11.8962: real time     11.9966
       DOS:  cpu time      0.0008: real time      0.0008
    CHARGE:  cpu time      0.7720: real time      0.7782
    MIXING:  cpu time      0.0251: real time      0.0252
    --------------------------------------------
      LOOP:  cpu time     13.9085: real time     14.0375

 eigenvalue-minimisations  :  2024
 total energy-change (2. order) : 0.3327420E+00  (-0.8146042E-01)
 number of electron     367.9999998 magnetization 
 augmentation part        9.9399245 magnetization 

 Broyden mixing:
  rms(total) = 0.12940E+00    rms(broyden)= 0.12936E+00
  rms(prec ) = 0.16608E+00
  weight for this iteration     100.00

 eigenvalues of (default mixing * dielectric matrix)
  average eigenvalue GAMMA=   2.1319
  4.6877  2.8656  1.7945  1.7945  0.5976  1.0517

 Free energy of the ion-electron system (eV)
  ---------------------------------------------------
  alpha Z        PSCENC =       175.06488379
  Ewald energy   TEWEN  =     36243.08629130
  -Hartree energ DENC   =    -48451.55258923
  -exchange      EXHF   =         0.00000000
  -V(xc)+E(xc)   XCENC  =      1293.07021651
  PAW double counting   =     37225.20660027   -37292.82062326
  entropy T*S    EENTRO =        -0.00000009
  eigenvalues    EBANDS =     -4350.38268731
  atomic energy  EATOM  =     14345.48182387
  Solvation  Ediel_sol  =         0.00000000
  ---------------------------------------------------
  free energy    TOTEN  =      -812.84608414 eV

  energy without entropy =     -812.84608405  energy(sigma->0) =     -812.84608409


--------------------------------------------------------------------------------------------------------




--------------------------------------- Iteration      1(  12)  ---------------------------------------


    POTLOK:  cpu time      0.6273: real time      0.6543
    SETDIJ:  cpu time      0.5593: real time      0.5624
     EDDAV:  cpu time     12.4153: real time     12.5215
       DOS:  cpu time      0.0011: real time      0.0011
    CHARGE:  cpu time      0.7566: real time      0.7628
    MIXING:  cpu time      0.0253: real time      0.0255
    --------------------------------------------
      LOOP:  cpu time     14.3849: real time     14.5140

 eigenvalue-minimisations  :  2144
 total energy-change (2. order) : 0.5611632E-01  (-0.7021271E-02)
 number of electron     367.9999998 magnetization 
 augmentation part        9.9392392 magnetization 

 Broyden mixing:
  rms(total) = 0.98726E-01    rms(broyden)= 0.98720E-01
  rms(prec ) = 0.12809E+00
  weight for this iteration     100.00

 eigenvalues of (default mixing * dielectric matrix)
  average eigenvalue GAMMA=   2.2833
  4.5835  3.5441  3.5441  1.4572  1.2275  1.0323  0.5945

 Free energy of the ion-electron system (eV)
  ---------------------------------------------------
  alpha Z        PSCENC =       175.06488379
  Ewald energy   TEWEN  =     36243.08629130
  -Hartree energ DENC   =    -48451.74484240
  -exchange      EXHF   =         0.00000000
  -V(xc)+E(xc)   XCENC  =      1293.15426549
  PAW double counting   =     37103.29924140   -37170.91273272
  entropy T*S    EENTRO =        -0.00000009
  eigenvalues    EBANDS =     -4350.21889846
  atomic energy  EATOM  =     14345.48182387
  Solvation  Ediel_sol  =         0.00000000
  ---------------------------------------------------
  free energy    TOTEN  =      -812.78996782 eV

  energy without entropy =     -812.78996773  energy(sigma->0) =     -812.78996777


--------------------------------------------------------------------------------------------------------




--------------------------------------- Iteration      1(  13)  ---------------------------------------


    POTLOK:  cpu time      0.6406: real time      0.6575
    SETDIJ:  cpu time      0.5568: real time      0.5599
     EDDAV:  cpu time     12.0138: real time     12.1192
       DOS:  cpu time      0.0029: real time      0.0029
    CHARGE:  cpu time      0.7704: real time      0.7770
    MIXING:  cpu time      0.0244: real time      0.0246
    --------------------------------------------
      LOOP:  cpu time     14.0090: real time     14.1410

 eigenvalue-minimisations  :  2080
 total energy-change (2. order) : 0.6939032E-01  (-0.9518317E-02)
 number of electron     367.9999998 magnetization 
 augmentation part        9.9311454 magnetization 

 Broyden mixing:
  rms(total) = 0.48135E-01    rms(broyden)= 0.48122E-01
  rms(prec ) = 0.62040E-01
  weight for this iteration     100.00

 eigenvalues of (default mixing * dielectric matrix)
  average eigenvalue GAMMA=   2.2254
  4.4874  4.4874  3.4201  1.5704  0.5952  1.0452  1.0987  1.0987

 Free energy of the ion-electron system (eV)
  ---------------------------------------------------
  alpha Z        PSCENC =       175.06488379
  Ewald energy   TEWEN  =     36243.08629130
  -Hartree energ DENC   =    -48443.44878611
  -exchange      EXHF   =         0.00000000
  -V(xc)+E(xc)   XCENC  =      1293.06346839
  PAW double counting   =     37187.25034578   -37254.82037137
  entropy T*S    EENTRO =        -0.00000008
  eigenvalues    EBANDS =     -4358.39823307
  atomic energy  EATOM  =     14345.48182387
  Solvation  Ediel_sol  =         0.00000000
  ---------------------------------------------------
  free energy    TOTEN  =      -812.72057749 eV

  energy without entropy =     -812.72057742  energy(sigma->0) =     -812.72057746


--------------------------------------------------------------------------------------------------------




--------------------------------------- Iteration      1(  14)  ---------------------------------------


    POTLOK:  cpu time      0.6278: real time      0.6339
    SETDIJ:  cpu time      0.5570: real time      0.5600
     EDDAV:  cpu time     12.5092: real time     12.6151
       DOS:  cpu time      0.0017: real time      0.0017
    CHARGE:  cpu time      0.7750: real time      0.7815
    MIXING:  cpu time      0.0244: real time      0.0246
    --------------------------------------------
      LOOP:  cpu time     14.4951: real time     14.6168

 eigenvalue-minimisations  :  2168
 total energy-change (2. order) : 0.1525609E-01  (-0.2669114E-02)
 number of electron     367.9999998 magnetization 
 augmentation part        9.9268757 magnetization 

 Broyden mixing:
  rms(total) = 0.23015E-01    rms(broyden)= 0.23003E-01
  rms(prec ) = 0.29186E-01
  weight for this iteration     100.00

 eigenvalues of (default mixing * dielectric matrix)
[...]
   -.119E+02 0.283E+01 -.924E+00   0.119E+02 -.281E+01 0.920E+00   -.156E-01 -.258E-01 0.366E-02   0.126E-03 0.752E-04 -.269E-05
   -.469E+01 -.298E+01 -.115E+01   0.483E+01 0.307E+01 0.115E+01   -.139E+00 -.899E-01 0.190E-02   -.118E-03 0.172E-03 0.898E-05
   -.318E+01 -.275E+02 -.225E+01   0.345E+01 0.282E+02 0.225E+01   -.278E+00 -.677E+00 0.139E-02   0.105E-03 -.138E-03 -.168E-03
   -.253E+02 0.107E+02 -.219E+01   0.261E+02 -.108E+02 0.219E+01   -.725E+00 0.924E-01 -.385E-03   0.163E-05 0.781E-04 -.152E-03
   -.774E+01 0.115E+02 -.147E+01   0.774E+01 -.115E+02 0.147E+01   0.724E-02 0.125E-01 0.360E-02   -.251E-03 -.159E-03 -.141E-04
   0.620E+01 -.126E+02 -.150E+01   -.622E+01 0.126E+02 0.150E+01   0.238E-01 0.286E-02 0.207E-02   -.244E-04 0.288E-03 -.157E-04
   0.579E+02 -.182E+02 -.387E+01   -.585E+02 0.158E+02 0.386E+01   0.569E+00 0.237E+01 0.979E-02   -.137E-03 -.233E-04 -.201E-03
   0.132E+02 0.589E+02 -.383E+01   -.155E+02 -.581E+02 0.382E+01   0.234E+01 -.702E+00 0.155E-01   0.155E-03 -.154E-03 -.175E-03
   -.916E+00 0.146E+02 -.156E+01   0.960E+00 -.147E+02 0.156E+01   -.413E-01 0.127E+00 0.574E-02   0.226E-04 -.317E-04 -.440E-04
   0.368E+01 0.219E+01 -.907E+00   -.369E+01 -.220E+01 0.904E+00   0.160E-01 0.183E-01 0.205E-02   -.421E-03 0.914E-04 -.446E-04
   0.122E+02 -.811E+01 -.165E+01   -.123E+02 0.822E+01 0.164E+01   0.917E-01 -.108E+00 0.478E-02   -.713E-04 0.684E-04 -.105E-03
   0.439E+02 -.514E+02 -.565E+01   -.421E+02 0.532E+02 0.568E+01   -.182E+01 -.180E+01 -.209E-01   -.914E-04 0.383E-04 0.202E-03
   -.227E+02 0.637E+02 -.562E+01   0.252E+02 -.630E+02 0.564E+01   -.247E+01 -.685E+00 -.218E-01   0.841E-05 -.643E-04 0.161E-03
   0.655E+01 0.177E+02 -.163E+01   -.657E+01 -.178E+02 0.164E+01   0.167E-01 0.761E-01 -.226E-02   -.147E-04 -.306E-03 -.445E-04
   -.753E+00 0.493E+01 -.966E+00   0.747E+00 -.495E+01 0.964E+00   0.930E-02 0.305E-01 0.519E-02   0.181E-03 -.497E-03 0.138E-03
   0.371E+01 -.297E+01 -.918E+00   -.372E+01 0.298E+01 0.915E+00   0.188E-01 -.383E-02 0.600E-02   -.498E-05 0.661E-04 0.135E-03
   0.184E+02 -.320E+01 -.147E+01   -.185E+02 0.323E+01 0.147E+01   0.765E-01 -.240E-01 0.131E-02   -.413E-03 -.198E-03 -.582E-05
   0.303E+02 0.176E+02 -.155E+01   -.308E+02 -.182E+02 0.153E+01   0.514E+00 0.588E+00 0.273E-01   0.835E-04 -.197E-03 -.138E-03
   0.295E+02 0.172E+02 -.118E+01   -.301E+02 -.176E+02 0.112E+01   0.604E+00 0.355E+00 0.634E-01   -.408E-04 -.158E-03 0.301E-03
   0.305E+02 0.178E+02 -.128E+01   -.313E+02 -.180E+02 0.125E+01   0.786E+00 0.159E+00 0.324E-01   -.294E-03 0.121E-03 -.137E-03
   -.527E+01 -.280E+01 -.118E+01   0.540E+01 0.280E+01 0.118E+01   -.130E+00 0.799E-02 0.420E-02   0.163E-03 0.101E-04 -.335E-03
   -.971E+01 -.574E+01 -.128E+01   0.973E+01 0.571E+01 0.128E+01   -.207E-01 0.244E-01 -.461E-03   -.113E-03 0.313E-04 -.565E-03
   -.973E+01 -.579E+01 -.137E+01   0.972E+01 0.582E+01 0.136E+01   0.109E-01 -.325E-01 -.328E-02   0.102E-03 -.103E-03 -.553E-03
   -.520E+01 -.309E+01 -.114E+01   0.528E+01 0.318E+01 0.113E+01   -.808E-01 -.998E-01 0.701E-02   -.657E-04 0.231E-03 -.313E-03
   0.910E+00 0.332E+01 -.149E+01   -.921E+00 -.336E+01 0.149E+01   0.112E-01 0.441E-01 -.572E-02   0.554E-04 0.696E-04 -.383E-03
   0.581E+01 0.317E+01 -.170E+01   -.587E+01 -.320E+01 0.169E+01   0.539E-01 0.353E-01 -.119E-01   0.159E-04 -.242E-04 -.451E-03
   0.325E+01 -.126E+01 -.153E+01   -.327E+01 0.128E+01 0.153E+01   0.305E-01 -.207E-01 -.289E-02   -.117E-03 0.968E-04 -.304E-03
   -.645E+01 -.178E+02 -.152E+01   0.648E+01 0.179E+02 0.152E+01   -.346E-01 -.670E-01 -.144E-02   0.122E-03 -.896E-07 -.971E-04
   -.305E+02 -.177E+02 -.115E+01   0.313E+02 0.178E+02 0.112E+01   -.796E+00 -.152E+00 0.391E-01   0.317E-03 0.206E-04 -.902E-04
   -.293E+02 -.171E+02 -.732E+00   0.299E+02 0.175E+02 0.667E+00   -.598E+00 -.345E+00 0.752E-01   0.209E-03 0.187E-03 0.241E-03
   -.306E+02 -.177E+02 -.124E+01   0.311E+02 0.183E+02 0.121E+01   -.530E+00 -.601E+00 0.359E-01   -.625E-04 0.197E-03 -.283E-04
   -.188E+02 0.334E+01 -.154E+01   0.189E+02 -.335E+01 0.155E+01   -.874E-01 0.101E-01 0.386E-03   0.898E-04 0.458E-04 -.654E-05
   -.378E+01 0.320E+01 -.950E+00   0.379E+01 -.320E+01 0.948E+00   -.122E-01 0.265E-02 0.331E-02   -.279E-03 0.516E-06 0.198E-03
   0.840E+00 -.494E+01 -.900E+00   -.829E+00 0.495E+01 0.897E+00   -.174E-01 -.195E-01 0.714E-02   0.110E-03 0.105E-03 0.174E-03
   0.781E+00 -.148E+02 -.167E+01   -.823E+00 0.150E+02 0.166E+01   0.451E-01 -.152E+00 0.636E-02   -.604E-04 0.716E-04 -.861E-04
   0.227E+02 -.636E+02 -.555E+01   -.251E+02 0.629E+02 0.558E+01   0.246E+01 0.697E+00 -.200E-01   0.111E-03 -.888E-04 0.189E-03
   -.441E+02 0.519E+02 -.568E+01   0.423E+02 -.537E+02 0.570E+01   0.183E+01 0.181E+01 -.232E-01   -.173E-04 -.533E-04 0.221E-03
   -.125E+02 0.844E+01 -.168E+01   0.126E+02 -.857E+01 0.167E+01   -.109E+00 0.131E+00 0.457E-02   -.357E-04 -.462E-04 -.985E-04
   -.391E+01 -.215E+01 -.876E+00   0.392E+01 0.217E+01 0.873E+00   -.166E-01 -.159E-01 0.275E-02   -.136E-03 0.761E-04 -.286E-04
   0.759E+01 -.115E+02 -.149E+01   -.759E+01 0.115E+02 0.148E+01   -.538E-02 -.186E-01 0.386E-02   -.318E-03 0.631E-04 -.160E-04
   -.133E+02 -.591E+02 -.389E+01   0.156E+02 0.583E+02 0.388E+01   -.234E+01 0.699E+00 0.108E-01   -.192E-03 0.201E-03 -.271E-03
   -.577E+02 0.183E+02 -.397E+01   0.582E+02 -.160E+02 0.396E+01   -.567E+00 -.237E+01 0.863E-02   0.255E-03 -.749E-04 -.200E-03
   -.628E+01 0.126E+02 -.150E+01   0.629E+01 -.126E+02 0.150E+01   -.137E-01 0.114E-01 0.196E-02   0.382E-03 0.896E-04 -.266E-04
   0.449E+01 0.266E+01 -.116E+01   -.461E+01 -.273E+01 0.116E+01   0.115E+00 0.692E-01 0.173E-02   0.216E-03 0.119E-03 0.350E-05
   0.252E+02 -.107E+02 -.217E+01   -.259E+02 0.108E+02 0.217E+01   0.703E+00 -.999E-01 0.842E-03   -.184E-04 -.155E-03 -.123E-03
   0.327E+01 0.272E+02 -.219E+01   -.353E+01 -.279E+02 0.219E+01   0.266E+00 0.672E+00 -.691E-03   0.863E-04 -.142E-03 -.111E-03
   0.352E+01 0.117E+02 -.910E+00   -.355E+01 -.117E+02 0.906E+00   0.253E-01 0.484E-02 0.549E-02   0.285E-03 -.258E-03 0.613E-05
   0.120E+02 -.288E+01 -.977E+00   -.120E+02 0.287E+01 0.974E+00   0.273E-01 0.133E-01 0.173E-02   -.191E-04 -.153E-03 -.196E-04
   0.264E+02 -.174E+02 -.229E+01   -.269E+02 0.179E+02 0.228E+01   0.489E+00 -.594E+00 0.632E-02   0.226E-03 0.703E-04 -.158E-05
   0.484E+02 0.428E+02 -.667E+01   -.468E+02 -.442E+02 0.662E+01   -.160E+01 0.146E+01 0.615E-01   -.103E-03 -.263E-04 0.635E-03
   0.681E+02 0.393E+02 -.107E+02   -.658E+02 -.379E+02 0.106E+02   -.227E+01 -.132E+01 0.123E+00   -.142E-03 -.579E-04 0.121E-02
   0.613E+02 0.206E+02 -.671E+01   -.618E+02 -.185E+02 0.666E+01   0.470E+00 -.211E+01 0.600E-01   -.121E-03 -.207E-03 0.596E-03
   -.182E+01 0.313E+02 -.224E+01   0.209E+01 -.321E+02 0.224E+01   -.269E+00 0.717E+00 0.106E-01   0.140E-03 -.291E-03 0.460E-04
   0.623E+00 0.693E+01 -.139E+01   -.595E+00 -.708E+01 0.139E+01   -.281E-01 0.151E+00 0.745E-04   -.346E-03 0.592E-04 0.551E-04
   0.710E+00 0.238E+00 -.106E+01   -.699E+00 -.235E+00 0.106E+01   -.836E-02 -.177E-02 0.139E-02   -.693E-04 0.119E-03 0.407E-04
   0.638E+01 -.309E+01 -.129E+01   -.650E+01 0.319E+01 0.129E+01   0.115E+00 -.104E+00 0.750E-03   0.166E-03 -.132E-03 0.610E-04
   0.179E+02 0.971E+00 -.120E+01   -.179E+02 -.947E+00 0.119E+01   0.951E-01 -.260E-01 0.716E-02   -.177E-03 0.132E-03 -.190E-03
   0.169E+02 0.918E+01 -.395E+00   -.170E+02 -.932E+01 0.395E+00   0.617E-01 0.141E+00 0.889E-02   -.145E-03 0.152E-03 -.286E-03
   0.166E+02 0.987E+01 -.740E+00   -.168E+02 -.985E+01 0.743E+00   0.172E+00 -.184E-01 0.591E-02   0.952E-04 0.693E-04 -.201E-03
   0.977E+01 0.147E+02 -.119E+01   -.979E+01 -.148E+02 0.118E+01   0.217E-01 0.973E-01 0.943E-02   -.200E-03 -.160E-03 -.269E-03
   0.282E+01 -.233E+03 -.938E+01   -.246E+01 0.267E+03 0.931E+01   -.362E+00 -.348E+02 0.779E-01   -.325E-04 -.243E-03 -.788E-04
   -.200E+03 0.119E+03 -.937E+01   0.230E+03 -.136E+03 0.928E+01   -.303E+02 0.170E+02 0.895E-01   -.352E-04 0.181E-03 0.427E-04
   0.223E+03 0.964E+02 -.258E+02   -.254E+03 -.112E+03 0.263E+02   0.310E+02 0.156E+02 -.511E+00   0.128E-03 0.420E-03 0.285E-02
   0.195E+03 0.146E+03 -.259E+02   -.224E+03 -.165E+03 0.264E+02   0.290E+02 0.191E+02 -.517E+00   -.246E-03 0.249E-03 0.294E-02
   -.195E+03 -.146E+03 -.259E+02   0.224E+03 0.165E+03 0.264E+02   -.289E+02 -.191E+02 -.534E+00   -.151E-03 -.646E-03 0.293E-02
   -.224E+03 -.963E+02 -.260E+02   0.255E+03 0.112E+03 0.265E+02   -.310E+02 -.155E+02 -.545E+00   -.556E-03 -.518E-04 0.286E-02
   0.200E+03 -.118E+03 -.934E+01   -.230E+03 0.135E+03 0.926E+01   0.303E+02 -.170E+02 0.843E-01   0.166E-03 -.761E-05 -.170E-04
   -.261E+01 0.232E+03 -.939E+01   0.219E+01 -.267E+03 0.932E+01   0.414E+00 0.348E+02 0.762E-01   0.880E-04 -.149E-03 -.110E-03
   0.304E+02 -.520E+02 -.200E+02   -.337E+02 0.577E+02 0.250E+02   0.334E+01 -.573E+01 -.501E+01   -.492E-04 0.188E-03 -.682E-04
   -.299E+02 0.525E+02 -.197E+02   0.332E+02 -.582E+02 0.246E+02   -.330E+01 0.577E+01 -.497E+01   0.918E-04 -.100E-03 0.436E-04
   0.174E+00 0.108E+00 0.320E+03   0.315E-01 0.946E-01 -.367E+03   -.204E+00 -.210E+00 0.470E+02   -.352E-03 0.188E-02 -.325E-02
 -----------------------------------------------------------------------------------------------
   0.106E+00 0.111E+00 -.361E+02   0.192E-12 0.497E-12 0.000E+00   -.134E+00 -.533E-01 0.361E+02   -.102E-02 0.123E-02 0.535E-02
 
 
 POSITION                                       TOTAL-FORCE (eV/Angst)
 -----------------------------------------------------------------------------------
      8.63403     14.95204      7.49969         0.002728     -0.001287     -0.006116
     16.02924      2.12643      7.50010        -0.009466     -0.001363     -0.006127
     14.79077      4.26473      7.50034        -0.005972     -0.003284     -0.013143
     13.55762      6.40693      7.50030         0.000927      0.000207     -0.008793
     12.33333      8.54663      7.49929        -0.001188      0.003968     -0.004303
     -6.15093     10.69108      7.49867         0.005440     -0.000319     -0.008452
     -7.38722     12.82995      7.49890         0.000634      0.000586     -0.007976
      2.47836      0.02025      7.50039         0.000778      0.002397     -0.001073
      1.23672      2.15536      7.49738         0.003437     -0.001247     -0.000525
     -0.00935      4.26765      7.49499         0.003946     -0.008382      0.009798
     -1.24113      6.40185      7.49527        -0.003950      0.002714      0.005406
     -2.44759      8.53797      7.49773        -0.002907      0.003026     -0.000575
     -3.67583     10.68016      7.50046         0.000712     -0.001403     -0.000190
     -4.91668     12.82895      7.50042         0.000617     -0.001485      0.001967
      4.94455      0.01398      7.49970        -0.005881     -0.000817     -0.001608
      3.70653      2.17944      7.50004         0.002940     -0.004236      0.000181
      2.45106      4.38549      7.50425         0.003740     -0.006060      0.002258
      1.22589      6.40288      7.50771        -0.001810     -0.005078      0.015833
      0.09194      8.47345      7.50413        -0.007892      0.002680      0.009539
     -1.19211     10.66431      7.50017        -0.002873     -0.000039      0.001950
     -2.44841     12.81945      7.49963        -0.002000     -0.004756     -0.000169
      7.41132      0.00631      7.50001        -0.000408     -0.003959      0.000310
      6.16182      2.17257      7.49989        -0.003604     -0.001345      0.000822
      0.02693     12.79756      7.49980         0.002257     -0.000147     -0.002010
      1.23675     14.94491      7.50006        -0.000030     -0.010025      0.000409
      8.62559      2.14913      7.50013         0.000636      0.005168     -0.000467
      7.38884      4.35792      7.49782         0.000656     -0.011382     -0.001292
      2.53156     12.76912      7.49779        -0.003294      0.007183      0.003308
      3.70010     14.92788      7.49952         0.002814      0.003324     -0.001610
     11.09346      2.13353      7.49965         0.006070      0.006791     -0.001516
      9.84210      4.29120      7.49973         0.001965     -0.000063     -0.002483
      8.54906      6.39957      7.50124         0.007023     -0.004352      0.002670
      4.87849     12.75393      7.50118         0.003072     -0.001317      0.001351
      6.15996     14.93197      7.49997        -0.005331      0.004000     -0.001158
     13.55866      2.12327      7.50007         0.004038      0.009811      0.002801
     12.31843      4.27070      7.49994         0.002501      0.002553      0.003424
     11.07664      6.41701      7.49956         0.007284      0.002548      0.001981
      9.84474      8.55966      7.49673         0.000643     -0.004491      0.000029
      8.64998     10.69431      7.49420         0.000926      0.004888      0.007017
      7.39756     12.79415      7.49628         0.001361      0.000450     -0.000005
      0.00211      1.42648      7.49926        -0.001282      0.003495     -0.004178
     -1.24718      3.54896      7.49873        -0.000373      0.001073     -0.006427
     -2.48363      5.69046      7.49898         0.000287     -0.003222     -0.009286
     -3.69657      7.83414      7.49919        -0.003788     -0.009044     -0.002004
     -4.92045      9.97413      7.50027         0.001244      0.000518     -0.010970
     -6.15261     12.11617      7.50058         0.001458      0.004176     -0.013463
     -7.39190     14.25297      7.50045         0.003043      0.005249     -0.008290
      2.47581      1.44754      7.49956        -0.001955      0.002361      0.000299
      1.23640      3.58482      7.49582         0.000482     -0.001305      0.005760
     -0.01643      5.68594      7.49345        -0.004470      0.000318      0.009549
     -1.20944      7.82262      7.49612         0.000602      0.000350      0.002569
     -2.44131      9.96468      7.49971         0.002587     -0.000304      0.001867
     -3.68148     12.11100      7.50006         0.004314     -0.003299      0.001035
     -4.92104     14.25725      7.49995        -0.006134     -0.000937      0.004588
      4.93550      1.45272      7.49983         0.003140     -0.005421     -0.001260
      3.75644      3.62684      7.50107        -0.007057     -0.003197      0.002340
      0.08644      9.98461      7.50135        -0.002638     -0.001325      0.001044
     -1.20732     12.09256      7.49987        -0.004391      0.002442     -0.002334
     -2.45792     14.24872      7.49962        -0.001638     -0.003415     -0.000784
      7.39752      1.43937      7.50013        -0.002989      0.000094      0.000576
      6.10337      3.61488      7.49792         0.004814     -0.006587     -0.001393
      1.24649     12.02661      7.49810        -0.006932      0.005360     -0.001998
      0.00903     14.23502      7.50014        -0.002281      0.002288     -0.000578
      9.85826      1.42007      7.50002        -0.003166      0.001736     -0.000128
      8.60743      3.58624      7.49967        -0.004280     -0.001732     -0.000209
      2.47212     14.21109      7.49967         0.000491      0.000624     -0.000950
     12.32728      1.41048      7.49954        -0.000029     -0.002100      0.002114
     11.08426      3.56321      7.49969         0.006876     -0.005524     -0.001281
      9.82730      5.71915      7.49995        -0.003121     -0.001744      0.001753
      8.54373      7.90892      7.50443         0.001517      0.000932      0.007985
      7.40674      9.97630      7.50757         0.009150      0.002981      0.014596
      6.18255     11.99336      7.50450         0.005340      0.005259      0.007380
      4.92937     14.20066      7.49989        -0.001040      0.010851      0.005324
     14.79521      1.40170      7.50060         0.000035     -0.002982      0.000500
     13.55434      3.55232      7.50030         0.001874      0.000939      0.000365
     12.31215      5.70203      7.50032        -0.003800     -0.002995      0.000766
     11.08317      7.84408      7.49819        -0.002622     -0.004320     -0.002170
      9.87628      9.98010      7.49413         0.007170     -0.000870      0.008009
      8.64462     12.11256      7.49486        -0.000893      0.002289      0.007756
      7.39861     14.22339      7.49827         0.000188      0.003631      0.000276
      4.92797      4.28469      7.49776        -0.002448     -0.006862      0.002977
      1.24037     10.67305      7.49778        -0.001150      0.001760      0.005300
      7.39430      8.60163      7.51909         0.004611      0.007583     -0.001201
      6.20885     10.65154      7.51925         0.013077      0.003243     -0.000296
      2.42370      5.72735      7.51951        -0.005293      0.000917     -0.002086
      1.23997      7.77830      7.51967        -0.004429      0.000687     -0.003482
      7.39505      5.71115      7.49761        -0.001626     -0.001119      0.005411
      3.70612     12.09791      7.49773        -0.000523      0.005938      0.004119
      3.93534      8.85274      6.48544         0.000668      0.001204     -0.005846
      4.69880      7.53005      6.48260        -0.004529      0.010661     -0.015451
      4.31941      8.19429      5.87853         0.001369     -0.006108     -0.009656
 -----------------------------------------------------------------------------------
    total drift:                               -0.028709      0.058749      0.014656


--------------------------------------------------------------------------------------------------------



  FREE ENERGIE OF THE ION-ELECTRON SYSTEM (eV)
  ---------------------------------------------------
  free  energy   TOTEN  =      -820.14397459 eV

  energy  without entropy=     -820.14397449  energy(sigma->0) =     -820.14397454
 
 d Force = 0.1344778E-03[ 0.663E-04, 0.203E-03]  d Energy = 0.1339066E-03 0.571E-06
 d Force = 0.5646468E-01[ 0.570E-01, 0.560E-01]  d Ewald  = 0.5646444E-01 0.240E-06


--------------------------------------------------------------------------------------------------------


    POTLOK:  cpu time      1.1456: real time      1.1668


--------------------------------------------------------------------------------------------------------


 Conjugate gradient step on ions:
 trial-energy change:   -0.000134  1 .order   -0.000134   -0.000203   -0.000066
  (g-gl).g = 0.478E-03      g.g   = 0.624E-03  gl.gl    = 0.101E-02
 g(Force)  = 0.624E-03   g(Stress)= 0.000E+00 ortho     = 0.646E-04
 gamma     =   0.47084
 trial     =   0.30946
 opt step  =   0.46004  (harmonic =   0.46004) maximal distance =0.00128908
 next E    =  -820.143991   (d E  =  -0.00015)


--------------------------------------------------------------------------------------------------------


  
 reached required accuracy - stopping structural energy minimisation
     LOOP+:  cpu time    101.0182: real time    102.1270
    4ORBIT:  cpu time      0.0000: real time      0.0000

 total amount of memory used by VASP MPI-rank0   273107. kBytes
=======================================================================

   base      :      30000. kBytes
   nonlr-proj:       3210. kBytes
   fftplans  :      77588. kBytes
   grid      :      40095. kBytes
   one-center:         24. kBytes
   wavefun   :     122190. kBytes
 
  
  
 General timing and accounting informations for this job:
 ========================================================
  
                  Total CPU time used (sec):     2552.114
                            User time (sec):     2522.281
                          System time (sec):       29.832
                         Elapsed time (sec):     2583.805
  
                   Maximum memory used (kb):      642440.
                   Average memory used (kb):          N/A
  
                          Minor page faults:      2898277
                          Major page faults:            2
                 Voluntary context switches:         4276
