       N       E                     dE             d eps       ncg     rms          rms(c)
DAV:   1     0.348013541362E+04    0.34801E+04   -0.13835E+05  9840   0.116E+03
DAV:   2    -0.223249913435E+03   -0.37034E+04   -0.35799E+04 15264   0.276E+02
DAV:   3    -0.845286623564E+03   -0.62204E+03   -0.61958E+03 11472   0.124E+02
DAV:   4    -0.865692553190E+03   -0.20406E+02   -0.20314E+02 12336   0.293E+01
DAV:   5    -0.866305850440E+03   -0.61330E+00   -0.61257E+00 14160   0.411E+00    0.428E+01
DAV:   6    -0.837622115990E+03    0.28684E+02   -0.20844E+01 10368   0.771E+00    0.323E+01
DAV:   7    -0.813421678417E+03    0.24200E+02   -0.78115E+01 11520   0.142E+01    0.145E+01
DAV:   8    -0.813314790859E+03    0.10689E+00   -0.20270E+01 11520   0.470E+00    0.810E+00
DAV:   9    -0.813320063182E+03   -0.52723E-02   -0.12415E+00 11184   0.222E+00    0.519E+00
DAV:  10    -0.812860053706E+03    0.46001E+00   -0.16779E+00 11280   0.193E+00    0.174E+00
DAV:  11    -0.812820598383E+03    0.39455E-01   -0.25461E-01 11568   0.894E-01    0.654E-01
DAV:  12    -0.812813874857E+03    0.67235E-02   -0.43456E-02 11424   0.383E-01    0.294E-01
DAV:  13    -0.812811607357E+03    0.22675E-02   -0.91562E-03 12288   0.198E-01    0.162E-01
DAV:  14    -0.812811154762E+03    0.45259E-03   -0.11676E-03 12528   0.715E-02    0.116E-01
DAV:  15    -0.812810725880E+03    0.42888E-03   -0.11319E-03 12576   0.613E-02    0.459E-02
DAV:  16    -0.812810700877E+03    0.25003E-04   -0.52553E-04 11520   0.302E-02    0.243E-02
DAV:  17    -0.812810705586E+03   -0.47095E-05   -0.51612E-05 11520   0.130E-02    0.114E-02
DAV:  18    -0.812810702524E+03    0.30621E-05   -0.74905E-06 11760   0.554E-03    0.648E-03
DAV:  19    -0.812810701830E+03    0.69416E-06   -0.25199E-06 10608   0.301E-03
   1 F= -.82015814E+03 E0= -.82015797E+03  d E =-.820158E+03  mag=    -0.0000
       N       E                     dE             d eps       ncg     rms          rms(c)
DAV:   1    -0.812811292223E+03   -0.58970E-03   -0.21646E-02 10896   0.320E-01    0.355E-02
DAV:   2    -0.812811318257E+03   -0.26034E-04   -0.45820E-04 12096   0.457E-02    0.294E-02
DAV:   3    -0.812811303695E+03    0.14562E-04   -0.26787E-05 12384   0.125E-02    0.201E-02
DAV:   4    -0.812811296691E+03    0.70036E-05   -0.33611E-05 11520   0.127E-02    0.710E-03
DAV:   5    -0.812811296698E+03   -0.72396E-08   -0.68256E-06  9888   0.564E-03
   2 F= -.82015871E+03 E0= -.82015854E+03  d E =-.570070E-03  mag=     0.0000
       N       E                     dE             d eps       ncg     rms          rms(c)
DAV:   1    -0.812811434234E+03   -0.13754E-03   -0.11136E-02 10752   0.230E-01    0.259E-02
DAV:   2    -0.812811449150E+03   -0.14916E-04   -0.23466E-04 12000   0.327E-02    0.210E-02
DAV:   3    -0.812811442578E+03    0.65714E-05   -0.13338E-05 12336   0.889E-03    0.145E-02
DAV:   4    -0.812811439774E+03    0.28043E-05   -0.16622E-05 11136   0.900E-03    0.523E-03
DAV:   5    -0.812811439761E+03    0.13235E-07   -0.34691E-06  9600   0.413E-03
   3 F= -.82015884E+03 E0= -.82015866E+03  d E =-.694193E-03  mag=    -0.0000
       N       E                     dE             d eps       ncg     rms          rms(c)
DAV:   1    -0.812811612899E+03   -0.17313E-03   -0.69720E-03 10560   0.188E-01    0.174E-02
DAV:   2    -0.812811622136E+03   -0.92369E-05   -0.12685E-04 11520   0.241E-02    0.148E-02
DAV:   3    -0.812811620339E+03    0.17968E-05   -0.61443E-06 12000   0.632E-03    0.113E-02
DAV:   4    -0.812811619495E+03    0.84414E-06   -0.59892E-06 11136   0.572E-03
   4 F= -.82015902E+03 E0= -.82015885E+03  d E =-.181952E-03  mag=     0.0000
       N       E                     dE             d eps       ncg     rms          rms(c)
DAV:   1    -0.812811739690E+03   -0.11935E-03   -0.26552E-02 10560   0.368E-01    0.346E-02
DAV:   2    -0.812811775620E+03   -0.35930E-04   -0.48003E-04 11520   0.470E-02    0.293E-02
DAV:   3    -0.812811769076E+03    0.65447E-05   -0.22725E-05 12576   0.122E-02    0.226E-02
DAV:   4    -0.812811765959E+03    0.31164E-05   -0.22221E-05 11328   0.112E-02    0.958E-03
DAV:   5    -0.812811766327E+03   -0.36733E-06   -0.61983E-06 10560   0.566E-03
   5 F= -.82015917E+03 E0= -.82015900E+03  d E =-.331660E-03  mag=    -0.0000
       N       E                     dE             d eps       ncg     rms          rms(c)
DAV:   1    -0.812811877533E+03   -0.11157E-03   -0.11674E-02 10560   0.243E-01    0.218E-02
DAV:   2    -0.812811893566E+03   -0.16033E-04   -0.21463E-04 12480   0.301E-02    0.183E-02
DAV:   3    -0.812811891086E+03    0.24794E-05   -0.81146E-06 12480   0.706E-03    0.138E-02
DAV:   4    -0.812811890208E+03    0.87814E-06   -0.65796E-06 10560   0.578E-03
   6 F= -.82015932E+03 E0= -.82015914E+03  d E =-.146546E-03  mag=    -0.0000
       N       E                     dE             d eps       ncg     rms          rms(c)
DAV:   1    -0.812811905335E+03   -0.14249E-04   -0.10833E-02 10368   0.234E-01    0.217E-02
DAV:   2    -0.812811919957E+03   -0.14622E-04   -0.19291E-04 12480   0.287E-02    0.183E-02
DAV:   3    -0.812811917847E+03    0.21103E-05   -0.71347E-06 12480   0.673E-03    0.139E-02
DAV:   4    -0.812811917251E+03    0.59545E-06   -0.62850E-06 10560   0.571E-03
   7 F= -.82015937E+03 E0= -.82015919E+03  d E =-.195084E-03  mag=     0.0000
       N       E                     dE             d eps       ncg     rms          rms(c)
DAV:   1    -0.812812040100E+03   -0.12225E-03   -0.17194E-02 10080   0.291E-01    0.258E-02
DAV:   2    -0.812812062194E+03   -0.22094E-04   -0.29974E-04 12672   0.355E-02    0.221E-02
DAV:   3    -0.812812059151E+03    0.30424E-05   -0.10369E-05 12576   0.784E-03    0.167E-02
DAV:   4    -0.812812058701E+03    0.45023E-06   -0.69896E-06 11424   0.605E-03
   8 F= -.82015951E+03 E0= -.82015934E+03  d E =-.146125E-03  mag=    -0.0000
       N       E                     dE             d eps       ncg     rms          rms(c)
DAV:   1    -0.812812082545E+03   -0.23394E-04   -0.99953E-02  9696   0.702E-01    0.615E-02
DAV:   2    -0.812812211757E+03   -0.12921E-03   -0.17415E-03 12384   0.855E-02    0.526E-02
DAV:   3    -0.812812193488E+03    0.18269E-04   -0.59893E-05 12576   0.189E-02    0.398E-02
DAV:   4    -0.812812189812E+03    0.36754E-05   -0.40730E-05 11520   0.147E-02    0.172E-02
DAV:   5    -0.812812193732E+03   -0.39202E-05   -0.14858E-05 11520   0.798E-03    0.669E-03
DAV:   6    -0.812812193424E+03    0.30788E-06   -0.28136E-06  9984   0.361E-03
   9 F= -.82015966E+03 E0= -.82015948E+03  d E =-.290944E-03  mag=    -0.0000
       N       E                     dE             d eps       ncg     rms          rms(c)
DAV:   1    -0.812812301947E+03   -0.10821E-03   -0.16710E-02 10080   0.284E-01    0.236E-02
DAV:   2    -0.812812324353E+03   -0.22406E-04   -0.30167E-04 12576   0.355E-02    0.212E-02
DAV:   3    -0.812812320935E+03    0.34180E-05   -0.89896E-06 13440   0.701E-03    0.163E-02
DAV:   4    -0.812812320276E+03    0.65906E-06   -0.88972E-06 11520   0.681E-03
  10 F= -.82015978E+03 E0= -.82015960E+03  d E =-.120657E-03  mag=     0.0000
       N       E                     dE             d eps       ncg     rms          rms(c)
DAV:   1    -0.812812364861E+03   -0.43926E-04   -0.69870E-02  9600   0.581E-01    0.496E-02
DAV:   2    -0.812812454355E+03   -0.89494E-04   -0.12178E-03 12288   0.716E-02    0.445E-02
DAV:   3    -0.812812439882E+03    0.14474E-04   -0.37223E-05 13440   0.144E-02    0.337E-02
DAV:   4    -0.812812438183E+03    0.16985E-05   -0.36969E-05 11520   0.139E-02    0.120E-02
DAV:   5    -0.812812440694E+03   -0.25107E-05   -0.10137E-05 10560   0.617E-03    0.559E-03
DAV:   6    -0.812812440690E+03    0.39436E-08   -0.13140E-06  7104   0.252E-03
  11 F= -.82015988E+03 E0= -.82015971E+03  d E =-.227678E-03  mag=    -0.0000
       N       E                     dE             d eps       ncg     rms          rms(c)
DAV:   1    -0.812812556204E+03   -0.11551E-03   -0.28163E-02  9600   0.367E-01    0.305E-02
DAV:   2    -0.812812592296E+03   -0.36091E-04   -0.49953E-04 11520   0.457E-02    0.273E-02
DAV:   3    -0.812812586288E+03    0.60077E-05   -0.16525E-05 13440   0.950E-03    0.205E-02
DAV:   4    -0.812812585688E+03    0.60015E-06   -0.14128E-05 11520   0.875E-03    0.728E-03
DAV:   5    -0.812812586741E+03   -0.10530E-05   -0.39969E-06  9792   0.390E-03    0.343E-03
DAV:   6    -0.812812586819E+03   -0.77824E-07   -0.49652E-07  6912   0.152E-03
  12 F= -.82016004E+03 E0= -.82015986E+03  d E =-.153369E-03  mag=    -0.0000
       N       E                     dE             d eps       ncg     rms          rms(c)
DAV:   1    -0.812812568062E+03    0.18679E-04   -0.13263E-01  9600   0.797E-01    0.663E-02
DAV:   2    -0.812812736285E+03   -0.16822E-03   -0.23348E-03 10944   0.990E-02    0.594E-02
DAV:   3    -0.812812707021E+03    0.29264E-04   -0.78139E-05 13440   0.207E-02    0.444E-02
DAV:   4    -0.812812703095E+03    0.39265E-05   -0.66378E-05 11376   0.190E-02    0.157E-02
DAV:   5    -0.812812707989E+03   -0.48943E-05   -0.19005E-05 10848   0.843E-03    0.740E-03
DAV:   6    -0.812812708268E+03   -0.27893E-06   -0.23208E-06  8832   0.322E-03
  13 F= -.82016017E+03 E0= -.82016000E+03  d E =-.289557E-03  mag=    -0.0000
       N       E                     dE             d eps       ncg     rms          rms(c)
DAV:   1    -0.812812787764E+03   -0.79775E-04   -0.34676E-02  9600   0.405E-01    0.341E-02
DAV:   2    -0.812812831888E+03   -0.44124E-04   -0.61757E-04 11616   0.507E-02    0.302E-02
DAV:   3    -0.812812824137E+03    0.77519E-05   -0.19920E-05 13440   0.104E-02    0.226E-02
DAV:   4    -0.812812823851E+03    0.28599E-06   -0.17405E-05 11520   0.973E-03    0.817E-03
DAV:   5    -0.812812825263E+03   -0.14126E-05   -0.51791E-06 10752   0.442E-03    0.376E-03
DAV:   6    -0.812812825312E+03   -0.48778E-07   -0.60175E-07  7104   0.171E-03
  14 F= -.82016031E+03 E0= -.82016014E+03  d E =-.134495E-03  mag=    -0.0000
       N       E                     dE             d eps       ncg     rms          rms(c)
DAV:   1    -0.812812798993E+03    0.26270E-04   -0.74267E-02  9600   0.592E-01    0.502E-02
DAV:   2    -0.812812892064E+03   -0.93071E-04   -0.13112E-03 10848   0.740E-02    0.445E-02
DAV:   3    -0.812812875061E+03    0.17003E-04   -0.43022E-05 13440   0.153E-02    0.331E-02
DAV:   4    -0.812812873422E+03    0.16383E-05   -0.37224E-05 11472   0.142E-02    0.119E-02
DAV:   5    -0.812812876512E+03   -0.30898E-05   -0.11168E-05 10752   0.649E-03    0.547E-03
DAV:   6    -0.812812876624E+03   -0.11207E-06   -0.12820E-06  6912   0.250E-03
  15 F= -.82016038E+03 E0= -.82016021E+03  d E =-.210913E-03  mag=    -0.0000
       N       E                     dE             d eps       ncg     rms          rms(c)
DAV:   1    -0.812812967108E+03   -0.90596E-04   -0.40783E-02  9600   0.436E-01    0.366E-02
DAV:   2    -0.812813017552E+03   -0.50444E-04   -0.71665E-04 10992   0.548E-02    0.328E-02
DAV:   3    -0.812813007784E+03    0.97683E-05   -0.23223E-05 13440   0.116E-02    0.245E-02
DAV:   4    -0.812813007352E+03    0.43159E-06   -0.23575E-05 11520   0.113E-02    0.852E-03
DAV:   5    -0.812813009014E+03   -0.16625E-05   -0.64588E-06 10752   0.500E-03    0.426E-03
DAV:   6    -0.812813009172E+03   -0.15771E-06   -0.62048E-07  7104   0.174E-03
  16 F= -.82016053E+03 E0= -.82016036E+03  d E =-.140292E-03  mag=    -0.0000
       N       E                     dE             d eps       ncg     rms          rms(c)
DAV:   1    -0.812812990985E+03    0.18029E-04   -0.83428E-02  9600   0.623E-01    0.525E-02
DAV:   2    -0.812813093839E+03   -0.10285E-03   -0.14597E-03 10752   0.782E-02    0.469E-02
DAV:   3    -0.812813073691E+03    0.20148E-04   -0.47685E-05 13440   0.166E-02    0.350E-02
DAV:   4    -0.812813072180E+03    0.15112E-05   -0.48234E-05 10848   0.161E-02    0.122E-02
DAV:   5    -0.812813075404E+03   -0.32246E-05   -0.13226E-05 10752   0.713E-03    0.608E-03
DAV:   6    -0.812813075737E+03   -0.33266E-06   -0.12795E-06  6912   0.250E-03
  17 F= -.82016060E+03 E0= -.82016043E+03  d E =-.217217E-03  mag=    -0.0000
       N       E                     dE             d eps       ncg     rms          rms(c)
DAV:   1    -0.812813130224E+03   -0.54820E-04   -0.59485E-02  9600   0.524E-01    0.436E-02
DAV:   2    -0.812813202624E+03   -0.72399E-04   -0.10320E-03 10752   0.657E-02    0.394E-02
DAV:   3    -0.812813188135E+03    0.14489E-04   -0.33441E-05 13440   0.139E-02    0.292E-02
DAV:   4    -0.812813187715E+03    0.42022E-06   -0.37002E-05 10752   0.140E-02    0.942E-03
DAV:   5    -0.812813189667E+03   -0.19523E-05   -0.91574E-06 10752   0.587E-03    0.495E-03
DAV:   6    -0.812813189975E+03   -0.30846E-06   -0.88513E-07  6720   0.208E-03
  18 F= -.82016075E+03 E0= -.82016057E+03  d E =-.143235E-03  mag=    -0.0000
       N       E                     dE             d eps       ncg     rms          rms(c)
DAV:   1    -0.812813190457E+03   -0.79039E-06   -0.20957E-02  9600   0.311E-01    0.259E-02
DAV:   2    -0.812813216058E+03   -0.25601E-04   -0.36514E-04 10752   0.391E-02    0.233E-02
DAV:   3    -0.812813211040E+03    0.50176E-05   -0.11874E-05 13440   0.825E-03    0.172E-02
DAV:   4    -0.812813210960E+03    0.80174E-07   -0.13010E-05 11328   0.828E-03    0.564E-03
DAV:   5    -0.812813211663E+03   -0.70306E-06   -0.31595E-06  9408   0.349E-03
  19 F= -.82016078E+03 E0= -.82016061E+03  d E =-.182000E-03  mag=    -0.0000
       N       E                     dE             d eps       ncg     rms          rms(c)
DAV:   1    -0.812813068849E+03    0.14211E-03   -0.83576E-02  9600   0.621E-01    0.520E-02
DAV:   2    -0.812813170241E+03   -0.10139E-03   -0.14396E-03 10656   0.776E-02    0.469E-02
DAV:   3    -0.812813150156E+03    0.20085E-04   -0.46705E-05 13440   0.164E-02    0.347E-02
DAV:   4    -0.812813150146E+03    0.92332E-08   -0.51420E-05 10752   0.165E-02    0.111E-02
DAV:   5    -0.812813152788E+03   -0.26413E-05   -0.12804E-05 10752   0.694E-03    0.586E-03
DAV:   6    -0.812813153155E+03   -0.36693E-06   -0.12696E-06  6912   0.247E-03
  20 F= -.82016076E+03 E0= -.82016059E+03  d E =-.156995E-03  mag=    -0.0000
       N       E                     dE             d eps       ncg     rms          rms(c)
DAV:   1    -0.812813168665E+03   -0.15878E-04   -0.43912E-02  9600   0.450E-01    0.379E-02
DAV:   2    -0.812813220454E+03   -0.51789E-04   -0.74618E-04 10656   0.560E-02    0.343E-02
DAV:   3    -0.812813209311E+03    0.11143E-04   -0.24862E-05 13440   0.120E-02    0.252E-02
DAV:   4    -0.812813207857E+03    0.14542E-05   -0.26733E-05 10752   0.119E-02    0.809E-03
DAV:   5    -0.812813209213E+03   -0.13560E-05   -0.68197E-06 10464   0.502E-03    0.414E-03
DAV:   6    -0.812813209414E+03   -0.20132E-06   -0.64444E-07  6720   0.178E-03
  21 F= -.82016079E+03 E0= -.82016062E+03  d E =-.188936E-03  mag=    -0.0000
       N       E                     dE             d eps       ncg     rms          rms(c)
DAV:   1    -0.812813260251E+03   -0.51038E-04   -0.77652E-02  9600   0.596E-01    0.498E-02
DAV:   2    -0.812813351547E+03   -0.91296E-04   -0.13214E-03 10656   0.744E-02    0.453E-02
DAV:   3    -0.812813331660E+03    0.19887E-04   -0.43546E-05 13440   0.156E-02    0.333E-02
DAV:   4    -0.812813330723E+03    0.93711E-06   -0.48856E-05  9888   0.161E-02    0.105E-02
DAV:   5    -0.812813333003E+03   -0.22798E-05   -0.12413E-05 11424   0.686E-03    0.530E-03
DAV:   6    -0.812813333435E+03   -0.43242E-06   -0.98882E-07  6528   0.223E-03
  22 F= -.82016095E+03 E0= -.82016078E+03  d E =-.156851E-03  mag=    -0.0000
       N       E                     dE             d eps       ncg     rms          rms(c)
DAV:   1    -0.812813296732E+03    0.36270E-04   -0.64425E-02  9600   0.542E-01    0.451E-02
DAV:   2    -0.812813374392E+03   -0.77660E-04   -0.11118E-03 10656   0.681E-02    0.409E-02
DAV:   3    -0.812813358543E+03    0.15849E-04   -0.36217E-05 13440   0.142E-02    0.301E-02
DAV:   4    -0.812813358371E+03    0.17233E-06   -0.40824E-05 10080   0.147E-02    0.957E-03
DAV:   5    -0.812813360328E+03   -0.19574E-05   -0.10154E-05 11520   0.625E-03    0.494E-03
DAV:   6    -0.812813360715E+03   -0.38715E-06   -0.84414E-07  6528   0.205E-03
  23 F= -.82016100E+03 E0= -.82016083E+03  d E =-.213547E-03  mag=    -0.0000
       N       E                     dE             d eps       ncg     rms          rms(c)
DAV:   1    -0.812813407632E+03   -0.47303E-04   -0.99768E-02  9600   0.675E-01    0.571E-02
DAV:   2    -0.812813528957E+03   -0.12132E-03   -0.17331E-03 10560   0.850E-02    0.512E-02
DAV:   3    -0.812813504499E+03    0.24457E-04   -0.56838E-05 13440   0.174E-02    0.377E-02
DAV:   4    -0.812813503628E+03    0.87106E-06   -0.57373E-05 10752   0.175E-02    0.125E-02
DAV:   5    -0.812813507187E+03   -0.35587E-05   -0.15391E-05 10752   0.766E-03    0.585E-03
DAV:   6    -0.812813507593E+03   -0.40660E-06   -0.13661E-06  6720   0.252E-03
  24 F= -.82016118E+03 E0= -.82016101E+03  d E =-.173468E-03  mag=     0.0000
       N       E                     dE             d eps       ncg     rms          rms(c)
DAV:   1    -0.812813506604E+03    0.58251E-06   -0.24447E-02  9600   0.334E-01    0.282E-02
DAV:   2    -0.812813536708E+03   -0.30104E-04   -0.42882E-04 10656   0.422E-02    0.252E-02
DAV:   3    -0.812813530803E+03    0.59056E-05   -0.14044E-05 13440   0.866E-03    0.186E-02
DAV:   4    -0.812813530948E+03   -0.14502E-06   -0.14110E-05 10752   0.869E-03    0.619E-03
DAV:   5    -0.812813531838E+03   -0.88994E-06   -0.37228E-06 10368   0.380E-03
  25 F= -.82016122E+03 E0= -.82016105E+03  d E =-.210626E-03  mag=    -0.0000
       N       E                     dE             d eps       ncg     rms          rms(c)
DAV:   1    -0.812813577602E+03   -0.46654E-04   -0.97969E-02  9600   0.671E-01    0.573E-02
DAV:   2    -0.812813701237E+03   -0.12364E-03   -0.17373E-03 10560   0.849E-02    0.512E-02
DAV:   3    -0.812813678387E+03    0.22850E-04   -0.57822E-05 13440   0.175E-02    0.381E-02
DAV:   4    -0.812813677278E+03    0.11090E-05   -0.48957E-05  9696   0.164E-02    0.139E-02
DAV:   5    -0.812813681740E+03   -0.44619E-05   -0.15911E-05 11808   0.769E-03    0.625E-03
DAV:   6    -0.812813681986E+03   -0.24585E-06   -0.16740E-06  7104   0.288E-03
  26 F= -.82016139E+03 E0= -.82016122E+03  d E =-.174536E-03  mag=     0.0000
       N       E                     dE             d eps       ncg     rms          rms(c)
DAV:   1    -0.812813680907E+03    0.83264E-06   -0.18362E-02  9600   0.291E-01    0.246E-02
DAV:   2    -0.812813704691E+03   -0.23784E-04   -0.33187E-04 10656   0.370E-02    0.219E-02
DAV:   3    -0.812813700442E+03    0.42494E-05   -0.10945E-05 13440   0.763E-03    0.164E-02
DAV:   4    -0.812813700360E+03    0.81978E-07   -0.93233E-06 10080   0.713E-03
  27 F= -.82016142E+03 E0= -.82016125E+03  d E =-.203272E-03  mag=    -0.0000
       N       E                     dE             d eps       ncg     rms          rms(c)
DAV:   1    -0.812813698034E+03    0.24080E-05   -0.10572E-01  9600   0.699E-01    0.608E-02
DAV:   2    -0.812813830425E+03   -0.13239E-03   -0.18609E-03 10560   0.882E-02    0.543E-02
DAV:   3    -0.812813806743E+03    0.23682E-04   -0.62705E-05 13440   0.185E-02    0.403E-02
DAV:   4    -0.812813807238E+03   -0.49526E-06   -0.52808E-05  9888   0.170E-02    0.146E-02
DAV:   5    -0.812813811988E+03   -0.47494E-05   -0.16882E-05 11520   0.794E-03    0.667E-03
DAV:   6    -0.812813812237E+03   -0.24902E-06   -0.19100E-06  7488   0.301E-03
  28 F= -.82016157E+03 E0= -.82016140E+03  d E =-.148133E-03  mag=    -0.0000
       N       E                     dE             d eps       ncg     rms          rms(c)
DAV:   1    -0.812813806074E+03    0.59136E-05   -0.92785E-03  9600   0.207E-01    0.175E-02
DAV:   2    -0.812813818530E+03   -0.12455E-04   -0.17147E-04 10944   0.266E-02    0.156E-02
DAV:   3    -0.812813816468E+03    0.20615E-05   -0.54672E-06 11520   0.548E-03    0.118E-02
DAV:   4    -0.812813816505E+03   -0.37340E-07   -0.52375E-06 10752   0.528E-03
  29 F= -.82016158E+03 E0= -.82016141E+03  d E =-.163005E-03  mag=    -0.0000
       N       E                     dE             d eps       ncg     rms          rms(c)
DAV:   1    -0.812813807057E+03    0.94114E-05   -0.11108E-01  9600   0.713E-01    0.618E-02
DAV:   2    -0.812813948599E+03   -0.14154E-03   -0.19717E-03 10560   0.900E-02    0.552E-02
DAV:   3    -0.812813923987E+03    0.24612E-04   -0.63278E-05 13056   0.187E-02    0.411E-02
DAV:   4    -0.812813924273E+03   -0.28629E-06   -0.54809E-05  9696   0.172E-02    0.149E-02
DAV:   5    -0.812813929348E+03   -0.50746E-05   -0.17707E-05 11328   0.795E-03    0.678E-03
DAV:   6    -0.812813929661E+03   -0.31311E-06   -0.19099E-06  8064   0.298E-03
  30 F= -.82016172E+03 E0= -.82016155E+03  d E =-.141091E-03  mag=    -0.0000
       N       E                     dE             d eps       ncg     rms          rms(c)
DAV:   1    -0.812813920382E+03    0.89655E-05   -0.19932E-02  9600   0.302E-01    0.256E-02
DAV:   2    -0.812813947089E+03   -0.26707E-04   -0.36581E-04 10656   0.386E-02    0.228E-02
DAV:   3    -0.812813942740E+03    0.43487E-05   -0.11389E-05 13152   0.790E-03    0.172E-02
DAV:   4    -0.812813942721E+03    0.19572E-07   -0.10006E-05  9600   0.732E-03    0.636E-03
DAV:   5    -0.812813943653E+03   -0.93193E-06   -0.31163E-06 10176   0.338E-03
  31 F= -.82016175E+03 E0= -.82016158E+03  d E =-.166740E-03  mag=    -0.0000
       N       E                     dE             d eps       ncg     rms          rms(c)
DAV:   1    -0.812813885162E+03    0.57559E-04   -0.12517E-01  9600   0.760E-01    0.657E-02
DAV:   2    -0.812814054454E+03   -0.16929E-03   -0.23097E-03 10560   0.973E-02    0.587E-02
DAV:   3    -0.812814026357E+03    0.28097E-04   -0.75533E-05 13440   0.201E-02    0.441E-02
DAV:   4    -0.812814024950E+03    0.14069E-05   -0.64490E-05  9696   0.186E-02    0.161E-02
DAV:   5    -0.812814030492E+03   -0.55422E-05   -0.20311E-05 11424   0.855E-03    0.744E-03
DAV:   6    -0.812814030848E+03   -0.35542E-06   -0.23834E-06  8256   0.328E-03
  32 F= -.82016187E+03 E0= -.82016170E+03  d E =-.126605E-03  mag=    -0.0000
       N       E                     dE             d eps       ncg     rms          rms(c)
DAV:   1    -0.812814026038E+03    0.44547E-05   -0.20875E-03  9600   0.982E-02    0.842E-03
DAV:   2    -0.812814029214E+03   -0.31762E-05   -0.41249E-05 11136   0.129E-02    0.734E-03
DAV:   3    -0.812814028814E+03    0.39969E-06   -0.12004E-06  8640   0.262E-03
  33 F= -.82016188E+03 E0= -.82016171E+03  d E =-.129572E-03  mag=    -0.0000
       N       E                     dE             d eps       ncg     rms          rms(c)
DAV:   1    -0.812813998032E+03    0.31182E-04   -0.89663E-02  9600   0.638E-01    0.558E-02
DAV:   2    -0.812814114218E+03   -0.11619E-03   -0.16108E-03 10560   0.806E-02    0.503E-02
DAV:   3    -0.812814093810E+03    0.20408E-04   -0.50591E-05 12480   0.165E-02    0.376E-02
DAV:   4    -0.812814094493E+03   -0.68297E-06   -0.50929E-05  9696   0.163E-02    0.123E-02
DAV:   5    -0.812814098003E+03   -0.35105E-05   -0.14477E-05 11520   0.711E-03    0.593E-03
DAV:   6    -0.812814098345E+03   -0.34227E-06   -0.12661E-06  6144   0.248E-03
  34 F= -.82016198E+03 E0= -.82016180E+03  d E =-.981792E-04  mag=     0.0000
       N       E                     dE             d eps       ncg     rms          rms(c)
DAV:   1    -0.812814070224E+03    0.27779E-04   -0.29108E-02  9600   0.363E-01    0.309E-02
DAV:   2    -0.812814109846E+03   -0.39622E-04   -0.53767E-04 10560   0.465E-02    0.277E-02
DAV:   3    -0.812814103389E+03    0.64565E-05   -0.16408E-05 12576   0.933E-03    0.209E-02
DAV:   4    -0.812814103254E+03    0.13553E-06   -0.16505E-05  9696   0.925E-03    0.708E-03
DAV:   5    -0.812814104410E+03   -0.11563E-05   -0.45471E-06 11040   0.402E-03    0.344E-03
DAV:   6    -0.812814104544E+03   -0.13410E-06   -0.38992E-07  6912   0.138E-03
  35 F= -.82016200E+03 E0= -.82016183E+03  d E =-.120452E-03  mag=     0.0000
       N       E                     dE             d eps       ncg     rms          rms(c)
DAV:   1    -0.812814123458E+03   -0.19048E-04   -0.49399E-02  9600   0.475E-01    0.404E-02
DAV:   2    -0.812814189587E+03   -0.66129E-04   -0.90788E-04 10560   0.611E-02    0.369E-02
DAV:   3    -0.812814177962E+03    0.11625E-04   -0.28430E-05 13440   0.121E-02    0.281E-02
DAV:   4    -0.812814177242E+03    0.71988E-06   -0.32644E-05  9792   0.132E-02    0.879E-03
DAV:   5    -0.812814178783E+03   -0.15412E-05   -0.83725E-06 11232   0.573E-03    0.444E-03
DAV:   6    -0.812814179115E+03   -0.33220E-06   -0.58932E-07  6336   0.172E-03
  36 F= -.82016209E+03 E0= -.82016192E+03  d E =-.949915E-04  mag=    -0.0000
       N       E                     dE             d eps       ncg     rms          rms(c)
DAV:   1    -0.812814151348E+03    0.27435E-04   -0.34133E-02  9600   0.394E-01    0.336E-02
DAV:   2    -0.812814197493E+03   -0.46144E-04   -0.62983E-04 10560   0.508E-02    0.306E-02
DAV:   3    -0.812814189540E+03    0.79522E-05   -0.19741E-05 13440   0.101E-02    0.232E-02
DAV:   4    -0.812814189293E+03    0.24721E-06   -0.22421E-05  9696   0.110E-02    0.729E-03
DAV:   5    -0.812814190354E+03   -0.10612E-05   -0.57426E-06 10944   0.476E-03    0.373E-03
DAV:   6    -0.812814190590E+03   -0.23530E-06   -0.41919E-07  6720   0.144E-03
  37 F= -.82016212E+03 E0= -.82016195E+03  d E =-.123078E-03  mag=     0.0000
       N       E                     dE             d eps       ncg     rms          rms(c)
DAV:   1    -0.812814207689E+03   -0.17335E-04   -0.36869E-02  9600   0.406E-01    0.346E-02
DAV:   2    -0.812814256730E+03   -0.49041E-04   -0.66886E-04 10464   0.519E-02    0.316E-02
