<?xml version="1.0" encoding="ISO-8859-1"?>
<modeling>
 <generator>
  <i name="program" type="string">vasp </i>
  <i name="version" type="string">6.4.2  </i>
  <i name="subversion" type="string">20Jul23 (build Aug 26 2025 15:10:52) complex                          parallel </i>
  <i name="platform" type="string">LinuxIFC </i>
  <i name="date" type="string">2025 11 26 </i>
  <i name="time" type="string">07:47:07 </i>
 </generator>
 <incar>
  <i type="int" name="ISTART">     0</i>
  <i type="string" name="ALGO">Normal</i>
  <i type="logical" name="ADDGRID"> T  </i>
  <i type="int" name="ISPIN">     2</i>
  <i type="int" name="IMIX">     4</i>
  <i name="AMIX">      0.20000000</i>
  <i name="BMIX">      0.00010000</i>
  <i name="AMIX_MAG">      0.80000000</i>
  <i name="BMIX_MAG">      0.00010000</i>
  <i type="int" name="ICHARG">     2</i>
  <i type="int" name="NELM">   200</i>
  <i type="int" name="IBRION">     2</i>
  <i name="EDIFF">      0.00000100</i>
  <i name="EDIFFG">     -0.01000000</i>
  <i type="int" name="NSW">   300</i>
  <i type="int" name="ISIF">     2</i>
  <i type="int" name="ISYM">     0</i>
  <i name="ENCUT">    520.00000000</i>
  <i name="POTIM">      0.10000000</i>
  <v name="MAGMOM">      0.00000000      0.00000000      0.00000000      0.00000000      0.00000000      0.00000000      0.00000000      0.00000000      0.00000000      0.00000000      0.00000000      0.00000000      0.00000000      0.00000000      0.00000000      0.00000000      0.00000000      0.00000000      0.00000000      0.00000000
      0.00000000      0.00000000      0.00000000      0.00000000      0.00000000      0.00000000      0.00000000      0.00000000      0.00000000      0.00000000      0.00000000      0.00000000      0.00000000      0.00000000      0.00000000      0.00000000      0.00000000      0.00000000      0.00000000      0.00000000
      0.00000000      0.00000000      0.00000000      0.00000000      0.00000000      0.00000000      0.00000000      0.00000000      0.00000000      0.00000000      0.00000000      0.00000000      0.00000000      0.00000000      0.00000000      0.00000000      0.00000000      0.00000000      0.00000000      0.00000000
      0.00000000      0.00000000      0.00000000      0.00000000      0.00000000      0.00000000      0.00000000      0.00000000      0.00000000      0.00000000      0.00000000      0.00000000      0.00000000      0.00000000      0.00000000      0.00000000      0.00000000      0.00000000      0.00000000      0.00000000
      0.00000000      0.00000000      0.00000000      0.00000000      0.00000000      0.00000000      0.00000000      0.00000000      0.00000000      0.00000000      0.00000000</v>
  <i type="logical" name="LREAL"> F  </i>
  <i type="int" name="ISMEAR">     0</i>
  <i name="SIGMA">      0.05000000</i>
  <i type="logical" name="LWAVE"> F  </i>
  <i type="logical" name="LCHARG"> F  </i>
  <i type="logical" name="LASPH"> T  </i>
  <i type="int" name="IVDW">    12</i>
 </incar>
 <primitive_cell>
  <structure name="primitive_cell" >
   <crystal>
    <varray name="basis" >
     <v>      17.27103806       0.00000000       0.00000000 </v>
     <v>      -8.63551903      14.95715771       0.00000000 </v>
     <v>       0.00000000       0.00000000      15.00000000 </v>
    </varray>
    <i name="volume">   3874.88459904 </i>
    <varray name="rec_basis" >
     <v>       0.05790040       0.03342881       0.00000000 </v>
     <v>       0.00000000       0.06685762       0.00000000 </v>
     <v>       0.00000000       0.00000000       0.06666667 </v>
    </varray>
   </crystal>
   <varray name="positions" >
    <v>       0.99989724       0.99977298       0.50047019 </v>
    <v>       0.99925579       0.14222416       0.50035684 </v>
    <v>       0.99900982       0.28516500       0.50079354 </v>
    <v>       0.99925695       0.42837567       0.50077804 </v>
    <v>       0.99991344       0.57144935       0.50016780 </v>
    <v>       0.00138646       0.71483281       0.49997641 </v>
    <v>       0.00133548       0.85790490       0.50041357 </v>
    <v>       0.14428782       0.00145797       0.50093817 </v>
    <v>       0.14376780       0.14418374       0.50034145 </v>
    <v>       0.14218667       0.28535267       0.49951136 </v>
    <v>       0.14221997       0.42804597       0.49900512 </v>
    <v>       0.14380077       0.57087626       0.49888451 </v>
    <v>       0.14430455       0.71408520       0.49966538 </v>
    <v>       0.14428016       0.85775774       0.50071880 </v>
    <v>       0.28680260       0.00098122       0.50050299 </v>
    <v>       0.28754537       0.14579318       0.49984272 </v>
    <v>       0.28858722       0.29328551       0.49769174 </v>
    <v>       0.28502402       0.42809520       0.49595689 </v>
    <v>       0.28862205       0.56654211       0.49600535 </v>
    <v>       0.28755845       0.71302535       0.49760716 </v>
    <v>       0.28684511       0.85713398       0.49949203 </v>
    <v>       0.42934538       0.00045363       0.49922450 </v>
    <v>       0.42941660       0.14527561       0.49957659 </v>
    <v>       0.42941063       0.85567517       0.49759703 </v>
    <v>       0.57127510       0.99923968       0.49845934 </v>
    <v>       0.57130850       0.14373633       0.49937061 </v>
    <v>       0.57351010       0.29137992       0.49884656 </v>
    <v>       0.57354306       0.85380087       0.49692326 </v>
    <v>       0.71337415       0.99810991       0.49877791 </v>
    <v>       0.71372602       0.14271346       0.50019150 </v>
    <v>       0.71337189       0.28694982       0.50025932 </v>
    <v>       0.70896909       0.42790056       0.49838066 </v>
    <v>       0.70898401       0.85277518       0.49718938 </v>
    <v>       0.85594532       0.99842683       0.49937585 </v>
    <v>       0.85611627       0.14204258       0.50053771 </v>
    <v>       0.85607909       0.28562614       0.50137671 </v>
    <v>       0.85591893       0.42909159       0.50055657 </v>
    <v>       0.85625962       0.57231694       0.49925891 </v>
    <v>       0.85858120       0.71512400       0.49879896 </v>
    <v>       0.85622117       0.85552157       0.49879519 </v>
    <v>       0.04793444       0.09546862       0.50043361 </v>
    <v>       0.04649505       0.23732550       0.50028383 </v>
    <v>       0.04651469       0.38047429       0.50040986 </v>
    <v>       0.04794526       0.52379223       0.50004096 </v>
    <v>       0.04864322       0.66687794       0.49998686 </v>
    <v>       0.04891662       0.81012991       0.50050016 </v>
    <v>       0.04861204       0.95303840       0.50079442 </v>
    <v>       0.19183508       0.09687109       0.50046314 </v>
    <v>       0.19152108       0.23974343       0.49944776 </v>
    <v>       0.18916721       0.38016518       0.49839672 </v>
    <v>       0.19154600       0.52302599       0.49797310 </v>
    <v>       0.19188321       0.66627203       0.49868063 </v>
    <v>       0.19176612       0.80974603       0.50001042 </v>
    <v>       0.19175766       0.95327472       0.50089324 </v>
    <v>       0.33436583       0.09716200       0.50009745 </v>
    <v>       0.33878675       0.24256978       0.49860283 </v>
    <v>       0.33884998       0.66757409       0.49618952 </v>
    <v>       0.33439300       0.80851757       0.49821545 </v>
    <v>       0.33403299       0.95267880       0.49983962 </v>
    <v>       0.47647342       0.09627012       0.49937779 </v>
    <v>       0.47422827       0.24169757       0.49900121 </v>
    <v>       0.47427028       0.80413383       0.49658562 </v>
    <v>       0.47640983       0.95176538       0.49834293 </v>
    <v>       0.61836202       0.09501879       0.49935188 </v>
    <v>       0.61830592       0.23982011       0.49955385 </v>
    <v>       0.61828826       0.95016736       0.49796969 </v>
    <v>       0.76098867       0.09436708       0.49997790 </v>
    <v>       0.76096914       0.23829794       0.50089957 </v>
    <v>       0.76023203       0.38241052       0.49988894 </v>
    <v>       0.75919315       0.52883508       0.49774037 </v>
    <v>       0.76262991       0.66712020       0.49678289 </v>
    <v>       0.75914883       0.80197566       0.49712200 </v>
    <v>       0.76027095       0.94951053       0.49840831 </v>
    <v>       0.90359649       0.09380511       0.50017451 </v>
    <v>       0.90361438       0.23757464       0.50118970 </v>
    <v>       0.90357818       0.38130802       0.50121039 </v>
    <v>       0.90403611       0.52447288       0.50017291 </v>
    <v>       0.90562777       0.66730331       0.49930778 </v>
    <v>       0.90562208       0.80994694       0.49943404 </v>
    <v>       0.90402082       0.95108362       0.49961176 </v>
    <v>       0.42861233       0.28653852       0.49840748 </v>
    <v>       0.42867329       0.71364594       0.49573341 </v>
    <v>       0.71591759       0.57522524       0.49560104 </v>
    <v>       0.71587034       0.71227260       0.49555356 </v>
    <v>       0.33179802       0.38295385       0.49499338 </v>
    <v>       0.33182036       0.52003591       0.49442896 </v>
    <v>       0.61911867       0.38188087       0.49816003 </v>
    <v>       0.61916941       0.80896719       0.49650444 </v>
    <v>       0.51996741       0.57512649       0.56582802 </v>
    <v>       0.52186307       0.48771263       0.56287125 </v>
    <v>       0.52150390       0.53072597       0.60466391 </v>
   </varray>
  </structure>
  <varray name="primitive_index" >
   <v type="int" >        1 </v>
   <v type="int" >        2 </v>
   <v type="int" >        3 </v>
   <v type="int" >        4 </v>
   <v type="int" >        5 </v>
   <v type="int" >        6 </v>
   <v type="int" >        7 </v>
   <v type="int" >        8 </v>
   <v type="int" >        9 </v>
   <v type="int" >       10 </v>
   <v type="int" >       11 </v>
   <v type="int" >       12 </v>
   <v type="int" >       13 </v>
   <v type="int" >       14 </v>
   <v type="int" >       15 </v>
   <v type="int" >       16 </v>
   <v type="int" >       17 </v>
   <v type="int" >       18 </v>
   <v type="int" >       19 </v>
   <v type="int" >       20 </v>
   <v type="int" >       21 </v>
   <v type="int" >       22 </v>
   <v type="int" >       23 </v>
   <v type="int" >       24 </v>
   <v type="int" >       25 </v>
   <v type="int" >       26 </v>
   <v type="int" >       27 </v>
   <v type="int" >       28 </v>
   <v type="int" >       29 </v>
   <v type="int" >       30 </v>
   <v type="int" >       31 </v>
   <v type="int" >       32 </v>
   <v type="int" >       33 </v>
   <v type="int" >       34 </v>
   <v type="int" >       35 </v>
   <v type="int" >       36 </v>
   <v type="int" >       37 </v>
   <v type="int" >       38 </v>
   <v type="int" >       39 </v>
   <v type="int" >       40 </v>
   <v type="int" >       41 </v>
   <v type="int" >       42 </v>
   <v type="int" >       43 </v>
   <v type="int" >       44 </v>
   <v type="int" >       45 </v>
   <v type="int" >       46 </v>
   <v type="int" >       47 </v>
   <v type="int" >       48 </v>
   <v type="int" >       49 </v>
   <v type="int" >       50 </v>
   <v type="int" >       51 </v>
   <v type="int" >       52 </v>
   <v type="int" >       53 </v>
   <v type="int" >       54 </v>
   <v type="int" >       55 </v>
   <v type="int" >       56 </v>
   <v type="int" >       57 </v>
   <v type="int" >       58 </v>
   <v type="int" >       59 </v>
   <v type="int" >       60 </v>
   <v type="int" >       61 </v>
   <v type="int" >       62 </v>
   <v type="int" >       63 </v>
   <v type="int" >       64 </v>
   <v type="int" >       65 </v>
   <v type="int" >       66 </v>
   <v type="int" >       67 </v>
   <v type="int" >       68 </v>
   <v type="int" >       69 </v>
   <v type="int" >       70 </v>
   <v type="int" >       71 </v>
   <v type="int" >       72 </v>
   <v type="int" >       73 </v>
   <v type="int" >       74 </v>
   <v type="int" >       75 </v>
   <v type="int" >       76 </v>
   <v type="int" >       77 </v>
   <v type="int" >       78 </v>
   <v type="int" >       79 </v>
   <v type="int" >       80 </v>
   <v type="int" >       81 </v>
   <v type="int" >       82 </v>
   <v type="int" >       83 </v>
   <v type="int" >       84 </v>
   <v type="int" >       85 </v>
   <v type="int" >       86 </v>
   <v type="int" >       87 </v>
   <v type="int" >       88 </v>
   <v type="int" >       89 </v>
   <v type="int" >       90 </v>
   <v type="int" >       91 </v>
  </varray>
 </primitive_cell>
 <kpoints>
  <generation param="Gamma">
   <v type="int" name="divisions">       4        4        1 </v>
   <v name="usershift">      0.00000000       0.00000000       0.00000000 </v>
   <v name="genvec1">      0.25000000       0.00000000       0.00000000 </v>
   <v name="genvec2">      0.00000000       0.25000000       0.00000000 </v>
   <v name="genvec3">      0.00000000       0.00000000       1.00000000 </v>
   <v name="shift">      0.00000000       0.00000000       0.00000000 </v>
  </generation>
  <varray name="kpointlist" >
   <v>       0.00000000       0.00000000       0.00000000 </v>
   <v>       0.25000000       0.00000000       0.00000000 </v>
   <v>       0.00000000       0.25000000       0.00000000 </v>
   <v>      -0.25000000       0.25000000       0.00000000 </v>
   <v>       0.50000000       0.00000000       0.00000000 </v>
   <v>       0.00000000       0.50000000       0.00000000 </v>
   <v>       0.50000000       0.50000000       0.00000000 </v>
   <v>       0.25000000       0.25000000       0.00000000 </v>
   <v>      -0.25000000       0.50000000       0.00000000 </v>
   <v>       0.50000000       0.25000000       0.00000000 </v>
  </varray>
  <varray name="weights" >
   <v>       0.06250000 </v>
   <v>       0.12500000 </v>
   <v>       0.12500000 </v>
   <v>       0.12500000 </v>
   <v>       0.06250000 </v>
   <v>       0.06250000 </v>
   <v>       0.06250000 </v>
   <v>       0.12500000 </v>
   <v>       0.12500000 </v>
   <v>       0.12500000 </v>
  </varray>
 </kpoints>
 <parameters>
  <separator name="general" >
   <i type="string" name="SYSTEM">unknown system</i>
   <i type="logical" name="LCOMPAT"> F  </i>
  </separator>
  <separator name="electronic" >
   <i type="string" name="PREC">normal</i>
   <i name="ENMAX">    520.00000000</i>
   <i name="ENAUG">    644.87300000</i>
   <i name="EDIFF">      0.00000100</i>
   <i type="int" name="IALGO">    38</i>
   <i type="int" name="IWAVPR">    11</i>
   <i type="int" name="NBANDS">   240</i>
   <i type="int" name="NBANDSLOW">    -1</i>
   <i type="int" name="NBANDSHIGH">    -1</i>
   <i name="NELECT">    368.00000000</i>
   <i type="int" name="TURBO">     0</i>
   <i type="int" name="IRESTART">     0</i>
   <i type="int" name="NREBOOT">     0</i>
   <i type="int" name="NMIN">     0</i>
   <i name="EREF">      0.00000000</i>
   <separator name="electronic smearing" >
    <i type="int" name="ISMEAR">     0</i>
    <i name="SIGMA">      0.05000000</i>
    <i name="KSPACING">      0.50000000</i>
    <i type="logical" name="KGAMMA"> T  </i>
    <i type="logical" name="KBLOWUP"> T  </i>
   </separator>
   <separator name="electronic projectors" >
    <i type="logical" name="LREAL"> F  </i>
    <v name="ROPT">      0.00000000      0.00000000      0.00000000      0.00000000</v>
    <i type="int" name="LMAXPAW">  -100</i>
    <i type="int" name="LMAXMIX">     2</i>
    <i type="logical" name="NLSPLINE"> F  </i>
   </separator>
   <separator name="electronic startup" >
    <i type="int" name="ISTART">     0</i>
    <i type="int" name="ICHARG">     2</i>
    <i type="int" name="INIWAV">     1</i>
   </separator>
   <separator name="electronic spin" >
    <i type="int" name="ISPIN">     2</i>
    <i type="logical" name="LNONCOLLINEAR"> F  </i>
    <v name="MAGMOM">      0.00000000      0.00000000      0.00000000      0.00000000      0.00000000      0.00000000      0.00000000      0.00000000      0.00000000      0.00000000      0.00000000      0.00000000      0.00000000      0.00000000      0.00000000      0.00000000      0.00000000      0.00000000      0.00000000      0.00000000
      0.00000000      0.00000000      0.00000000      0.00000000      0.00000000      0.00000000      0.00000000      0.00000000      0.00000000      0.00000000      0.00000000      0.00000000      0.00000000      0.00000000      0.00000000      0.00000000      0.00000000      0.00000000      0.00000000      0.00000000
      0.00000000      0.00000000      0.00000000      0.00000000      0.00000000      0.00000000      0.00000000      0.00000000      0.00000000      0.00000000      0.00000000      0.00000000      0.00000000      0.00000000      0.00000000      0.00000000      0.00000000      0.00000000      0.00000000      0.00000000
      0.00000000      0.00000000      0.00000000      0.00000000      0.00000000      0.00000000      0.00000000      0.00000000      0.00000000      0.00000000      0.00000000      0.00000000      0.00000000      0.00000000      0.00000000      0.00000000      0.00000000      0.00000000      0.00000000      0.00000000
      0.00000000      0.00000000      0.00000000      0.00000000      0.00000000      0.00000000      0.00000000      0.00000000      0.00000000      0.00000000      0.00000000</v>
    <i name="NUPDOWN">     -1.00000000</i>
    <i type="logical" name="LSORBIT"> F  </i>
    <v name="SAXIS">      0.00000000      0.00000000      1.00000000</v>
    <i type="logical" name="LSPIRAL"> F  </i>
    <v name="QSPIRAL">      0.00000000      0.00000000      0.00000000</v>
    <i type="logical" name="LZEROZ"> F  </i>
   </separator>
   <separator name="electronic exchange-correlation" >
    <i type="logical" name="LASPH"> T  </i>
    <i type="logical" name="LMETAGGA"> F  </i>
   </separator>
   <separator name="electronic convergence" >
    <i type="int" name="NELM">   200</i>
    <i type="int" name="NELMDL">    -5</i>
    <i type="int" name="NELMIN">     2</i>
    <i name="ENINI">    520.00000000</i>
    <separator name="electronic convergence detail" >
     <i type="logical" name="LDIAG"> T  </i>
     <i type="logical" name="LSUBROT"> F  </i>
     <i name="WEIMIN">      0.00100000</i>
     <i name="EBREAK">      0.00000000</i>
     <i name="DEPER">      0.30000000</i>
     <i type="int" name="NRMM">     4</i>
     <i name="TIME">      0.40000000</i>
    </separator>
   </separator>
   <separator name="electronic mixer" >
    <i name="AMIX">      0.20000000</i>
    <i name="BMIX">      0.00010000</i>
    <i name="AMIN">      0.10000000</i>
    <i name="AMIX_MAG">      0.80000000</i>
    <i name="BMIX_MAG">      0.00010000</i>
    <separator name="electronic mixer details" >
     <i type="int" name="IMIX">     4</i>
     <i type="logical" name="MIXFIRST"> F  </i>
     <i type="int" name="MAXMIX">   -45</i>
     <i name="WC">    100.00000000</i>
     <i type="int" name="INIMIX">     1</i>
     <i type="int" name="MIXPRE">     1</i>
     <i type="int" name="MREMOVE">     5</i>
    </separator>
   </separator>
   <separator name="electronic dipolcorrection" >
    <i type="logical" name="LDIPOL"> F  </i>
    <i type="logical" name="LMONO"> F  </i>
    <i type="int" name="IDIPOL">     0</i>
    <i name="EPSILON">      1.00000000</i>
    <v name="DIPOL">   -100.00000000   -100.00000000   -100.00000000</v>
    <i name="EFIELD">      0.00000000</i>
   </separator>
  </separator>
  <separator name="grids" >
   <i type="int" name="NGX">    96</i>
   <i type="int" name="NGY">    96</i>
   <i type="int" name="NGZ">    84</i>
   <i type="int" name="NGXF">   192</i>
   <i type="int" name="NGYF">   192</i>
   <i type="int" name="NGZF">   168</i>
   <i type="logical" name="ADDGRID"> T  </i>
  </separator>
  <separator name="ionic" >
   <i type="int" name="NSW">   300</i>
   <i type="int" name="IBRION">     2</i>
   <i type="int" name="MDALGO">     0</i>
   <i type="int" name="ISIF">     2</i>
   <i name="PSTRESS">      0.00000000</i>
   <i name="EDIFFG">     -0.01000000</i>
   <i type="int" name="NFREE">     1</i>
   <i name="POTIM">      0.10000000</i>
   <i name="SMASS">     -3.00000000</i>
   <i name="SCALEE">      1.00000000</i>
  </separator>
  <separator name="ionic md" >
   <i name="TEBEG">      0.00010000</i>
   <i name="TEEND">      0.00010000</i>
   <i type="int" name="NBLOCK">     1</i>
   <i type="int" name="KBLOCK">   300</i>
   <i type="int" name="NPACO">   256</i>
   <i name="APACO">     10.00000000</i>
  </separator>
  <separator name="symmetry" >
   <i type="int" name="ISYM">     0</i>
   <i name="SYMPREC">      0.00001000</i>
  </separator>
  <separator name="dos" >
   <i type="int" name="LORBIT">     0</i>
   <v name="RWIGS">     -1.00000000     -1.00000000     -1.00000000     -1.00000000</v>
   <i type="int" name="NEDOS">   301</i>
   <i name="EMIN">     10.00000000</i>
   <i name="EMAX">    -10.00000000</i>
   <i name="EFERMI">      0.00000000</i>
  </separator>
  <separator name="writing" >
   <i type="int" name="NWRITE">     2</i>
   <i type="logical" name="LWAVE"> F  </i>
   <i type="logical" name="LDOWNSAMPLE"> F  </i>
   <i type="logical" name="LCHARG"> F  </i>
   <i type="logical" name="LPARD"> F  </i>
   <i type="logical" name="LVTOT"> F  </i>
   <i type="logical" name="LVHAR"> F  </i>
   <i type="logical" name="LELF"> F  </i>
   <i type="logical" name="LOPTICS"> F  </i>
   <v name="STM">      0.00000000      0.00000000      0.00000000      0.00000000      0.00000000      0.00000000      0.00000000</v>
  </separator>
  <separator name="performance" >
   <i type="int" name="NPAR">    48</i>
   <i type="int" name="NSIM">     4</i>
   <i type="int" name="NBLK">    -1</i>
   <i type="logical" name="LPLANE"> T  </i>
   <i type="logical" name="LSCALAPACK"> T  </i>
   <i type="logical" name="LSCAAWARE"> F  </i>
   <i type="logical" name="LSCALU"> F  </i>
   <i type="logical" name="LASYNC"> F  </i>
   <i type="logical" name="LORBITALREAL"> F  </i>
  </separator>
  <separator name="miscellaneous" >
   <i type="int" name="IDIOT">     3</i>
   <i type="int" name="PHON_NSTRUCT">    -1</i>
   <i type="logical" name="LMUSIC"> F  </i>
   <v name="POMASS">     12.01100000     14.00100000      1.00000000     16.00000000</v>
   <v name="DARWINR">      0.00000000      0.00000000      0.00000000      0.00000000</v>
   <v name="DARWINV">      1.00000000      1.00000000      1.00000000      1.00000000</v>
   <i type="logical" name="LCORR"> T  </i>
  </separator>
  <i type="logical" name="GGA_COMPAT"> T  </i>
  <i type="logical" name="LBERRY"> F  </i>
  <i type="int" name="ICORELEVEL">     0</i>
  <i type="logical" name="LDAU"> F  </i>
  <i type="int" name="I_CONSTRAINED_M">     0</i>
  <separator name="electronic exchange-correlation" >
   <i type="string" name="GGA">--</i>
   <i type="int" name="VOSKOWN">     0</i>
   <i type="logical" name="LHFCALC"> F  </i>
   <i type="string" name="PRECFOCK"></i>
   <i type="logical" name="LSYMGRAD"> F  </i>
   <i type="logical" name="LHFONE"> F  </i>
   <i type="logical" name="LRHFCALC"> F  </i>
   <i type="logical" name="LTHOMAS"> F  </i>
   <i type="logical" name="LMODELHF"> F  </i>
   <i type="logical" name="LFOCKACE"> F  </i>
   <i name="ENCUT4O">     -1.00000000</i>
   <i type="int" name="EXXOEP">     0</i>
   <i type="int" name="FOURORBIT">     0</i>
   <i name="AEXX">      0.00000000</i>
   <i name="HFALPHA">      0.00000000</i>
   <i name="MCALPHA">      0.00000000</i>
   <i name="ALDAX">      1.00000000</i>
   <i name="AGGAX">      1.00000000</i>
   <i name="ALDAC">      1.00000000</i>
   <i name="AGGAC">      1.00000000</i>
   <i type="int" name="NKREDX">     1</i>
   <i type="int" name="NKREDY">     1</i>
   <i type="int" name="NKREDZ">     1</i>
   <i type="logical" name="SHIFTRED"> F  </i>
   <i type="logical" name="ODDONLY"> F  </i>
   <i type="logical" name="EVENONLY"> F  </i>
   <i type="int" name="LMAXFOCK">     0</i>
   <i type="int" name="NMAXFOCKAE">     0</i>
   <i type="logical" name="LFOCKAEDFT"> F  </i>
   <i name="HFSCREEN">      0.00000000</i>
   <i name="HFSCREENC">      0.00000000</i>
   <i type="int" name="NBANDSGWLOW">     0</i>
  </separator>
  <separator name="vdW DFT" >
   <i type="logical" name="LUSE_VDW"> F  </i>
   <i type="int" name="IVDW_NL">     1</i>
   <i type="logical" name="LSPIN_VDW"> F  </i>
   <i name="Zab_VDW">     -0.84910000</i>
   <i name="PARAM1">      0.12340000</i>
   <i name="PARAM2">      1.00000000</i>
   <i name="PARAM3">      0.00000000</i>
  </separator>
  <separator name="model GW" >
   <i type="int" name="MODEL_GW">     0</i>
   <i name="MODEL_EPS0">     25.54868966</i>
   <i name="MODEL_ALPHA">      1.00000000</i>
  </separator>
  <separator name="linear response parameters" >
   <i type="logical" name="LEPSILON"> F  </i>
   <i type="logical" name="LRPA"> F  </i>
   <i type="logical" name="LNABLA"> F  </i>
   <i type="logical" name="LVEL"> F  </i>
   <i name="CSHIFT">      0.10000000</i>
   <i name="OMEGAMAX">     -1.00000000</i>
   <i name="DEG_THRESHOLD">      0.00200000</i>
   <i name="RTIME">     -0.10000000</i>
   <i name="WPLASMAI">      0.00000000</i>
   <v name="DFIELD">      0.00000000      0.00000000      0.00000000</v>
   <v name="WPLASMA">      0.00000000      0.00000000      0.00000000      0.00000000      0.00000000      0.00000000      0.00000000      0.00000000      0.00000000</v>
  </separator>
  <separator name="orbital magnetization" >
   <i type="logical" name="NUCIND"> F  </i>
   <v name="MAGPOS">      0.00000000      0.00000000      0.00000000</v>
   <i type="logical" name="LNICSALL"> T  </i>
   <i type="logical" name="ORBITALMAG"> F  </i>
   <i type="logical" name="LMAGBLOCH"> F  </i>
   <i type="logical" name="LCHIMAG"> F  </i>
   <i type="logical" name="LGAUGE"> T  </i>
   <i type="int" name="MAGATOM">     0</i>
   <v name="MAGDIPOL">      0.00000000      0.00000000      0.00000000</v>
   <v name="AVECCONST">      0.00000000      0.00000000      0.00000000</v>
  </separator>
  <separator name="response functions" >
   <i type="logical" name="LALL_IN_ONE"> F  </i>
   <i type="int" name="IALL_IN_ONE">    -1</i>
   <i type="int" name="NBANDS_WAVE">    -1</i>
   <i type="logical" name="LFINITE_TEMPERATURE"> F  </i>
   <i type="logical" name="LADDER"> F  </i>
   <i type="logical" name="LRPAFORCE"> F  </i>
   <i type="logical" name="LFXC"> F  </i>
   <i type="logical" name="LHARTREE"> T  </i>
   <i type="int" name="IBSE">     0</i>
   <v type="int" name="KPOINT">    -1     0     0     0</v>
   <i type="logical" name="LTCTC"> F  </i>
   <i type="logical" name="LTCTE"> F  </i>
   <i type="logical" name="LTETE"> F  </i>
   <i type="logical" name="LTRIPLET"> F  </i>
   <i type="logical" name="LFXCEPS"> F  </i>
   <i type="logical" name="LFXHEG"> F  </i>
   <i type="int" name="NATURALO">     2</i>
   <i type="logical" name="LHOLEGF"> F  </i>
   <i type="logical" name="L2ORDER"> F  </i>
   <i type="logical" name="LDMP1"> F  </i>
   <i type="logical" name="LMP2LT"> F  </i>
   <i type="logical" name="LSMP2LT"> F  </i>
   <i type="logical" name="LGWLF"> F  </i>
   <i name="ENCUTGW">     -1.60000002</i>
   <i name="ENCUTGWSOFT">     -1.60000002</i>
   <i name="ENCUTLF">     -1.00000000</i>
   <i type="logical" name="LESF_SPLINES"> F  </i>
   <i type="int" name="LMAXMP2">    -1</i>
   <i name="SCISSOR">      0.00000000</i>
   <i type="int" name="NOMEGA">     0</i>
   <i type="int" name="NOMEGAR">     0</i>
   <i type="int" name="NBANDSGW">    -1</i>
   <i type="int" name="NBANDSO">    -1</i>
   <i type="int" name="NBANDSV">    -1</i>
   <i type="int" name="NELMGW">     1</i>
   <i type="int" name="NELMHF">     1</i>
   <i type="int" name="DIM">     3</i>
   <i type="int" name="IESPILON">     4</i>
   <i type="int" name="ANTIRES">     0</i>
   <i name="OMEGAMAX">    -30.00000000</i>
   <i name="OMEGAMIN">    -30.00000000</i>
   <i name="OMEGATL">   -200.00000000</i>
   <i type="int" name="OMEGAGRID">     0</i>
   <i name="CSHIFT">     -0.10000000</i>
   <i type="logical" name="LSELFENERGY"> F  </i>
   <i type="logical" name="LSPECTRAL"> F  </i>
   <i type="logical" name="LSPECTRALGW"> F  </i>
   <i type="logical" name="LSINGLES"> F  </i>
   <i type="logical" name="LFERMIGW"> F  </i>
   <i type="logical" name="ODDONLYGW"> F  </i>
   <i type="logical" name="EVENONLYGW"> F  </i>
   <i type="int" name="NKREDLFX">     1</i>
   <i type="int" name="NKREDLFY">     1</i>
   <i type="int" name="NKREDLFZ">     1</i>
   <i type="int" name="MAXMEM">  2800</i>
   <i type="int" name="TELESCOPE">     0</i>
   <i type="int" name="NTAUPAR">    -1</i>
   <i type="int" name="NOMEGAPAR">    -1</i>
   <i name="DAMP_NEWTON">      0.80000001</i>
   <i name="LAMBDA">      1.00000000</i>
  </separator>
  <separator name="External order field" >
   <i name="OFIELD_KAPPA">      0.00000000</i>
   <v name="OFIELD_K">      0.00000000      0.00000000      0.00000000</v>
   <i name="OFIELD_Q6_NEAR">      0.00000000</i>
   <i name="OFIELD_Q6_FAR">      0.00000000</i>
   <i name="OFIELD_A">      0.00000000</i>
  </separator>
  <separator name="optional k-points parameters" >
   <i type="int" name="KPOINTS_OPT_MODE">     1</i>
   <i type="logical" name="LKPOINTS_OPT"> F  </i>
  </separator>
 </parameters>
 <atominfo>
  <atoms>      91 </atoms>
  <types>       4 </types>
  <array name="atoms" >
   <dimension dim="1">ion</dimension>
   <field type="string">element</field>
   <field type="int">atomtype</field>
   <set>
    <rc><c>C </c><c>   1</c></rc>
    <rc><c>C </c><c>   1</c></rc>
    <rc><c>C </c><c>   1</c></rc>
    <rc><c>C </c><c>   1</c></rc>
    <rc><c>C </c><c>   1</c></rc>
    <rc><c>C </c><c>   1</c></rc>
    <rc><c>C </c><c>   1</c></rc>
    <rc><c>C </c><c>   1</c></rc>
    <rc><c>C </c><c>   1</c></rc>
    <rc><c>C </c><c>   1</c></rc>
    <rc><c>C </c><c>   1</c></rc>
    <rc><c>C </c><c>   1</c></rc>
    <rc><c>C </c><c>   1</c></rc>
    <rc><c>C </c><c>   1</c></rc>
    <rc><c>C </c><c>   1</c></rc>
    <rc><c>C </c><c>   1</c></rc>
    <rc><c>C </c><c>   1</c></rc>
    <rc><c>C </c><c>   1</c></rc>
    <rc><c>C </c><c>   1</c></rc>
    <rc><c>C </c><c>   1</c></rc>
    <rc><c>C </c><c>   1</c></rc>
    <rc><c>C </c><c>   1</c></rc>
    <rc><c>C </c><c>   1</c></rc>
    <rc><c>C </c><c>   1</c></rc>
    <rc><c>C </c><c>   1</c></rc>
    <rc><c>C </c><c>   1</c></rc>
    <rc><c>C </c><c>   1</c></rc>
    <rc><c>C </c><c>   1</c></rc>
    <rc><c>C </c><c>   1</c></rc>
    <rc><c>C </c><c>   1</c></rc>
    <rc><c>C </c><c>   1</c></rc>
    <rc><c>C </c><c>   1</c></rc>
    <rc><c>C </c><c>   1</c></rc>
    <rc><c>C </c><c>   1</c></rc>
    <rc><c>C </c><c>   1</c></rc>
    <rc><c>C </c><c>   1</c></rc>
    <rc><c>C </c><c>   1</c></rc>
    <rc><c>C </c><c>   1</c></rc>
    <rc><c>C </c><c>   1</c></rc>
    <rc><c>C </c><c>   1</c></rc>
    <rc><c>C </c><c>   1</c></rc>
    <rc><c>C </c><c>   1</c></rc>
    <rc><c>C </c><c>   1</c></rc>
    <rc><c>C </c><c>   1</c></rc>
    <rc><c>C </c><c>   1</c></rc>
    <rc><c>C </c><c>   1</c></rc>
    <rc><c>C </c><c>   1</c></rc>
    <rc><c>C </c><c>   1</c></rc>
    <rc><c>C </c><c>   1</c></rc>
    <rc><c>C </c><c>   1</c></rc>
    <rc><c>C </c><c>   1</c></rc>
    <rc><c>C </c><c>   1</c></rc>
    <rc><c>C </c><c>   1</c></rc>
    <rc><c>C </c><c>   1</c></rc>
    <rc><c>C </c><c>   1</c></rc>
    <rc><c>C </c><c>   1</c></rc>
    <rc><c>C </c><c>   1</c></rc>
    <rc><c>C </c><c>   1</c></rc>
    <rc><c>C </c><c>   1</c></rc>
    <rc><c>C </c><c>   1</c></rc>
    <rc><c>C </c><c>   1</c></rc>
    <rc><c>C </c><c>   1</c></rc>
    <rc><c>C </c><c>   1</c></rc>
    <rc><c>C </c><c>   1</c></rc>
    <rc><c>C </c><c>   1</c></rc>
    <rc><c>C </c><c>   1</c></rc>
    <rc><c>C </c><c>   1</c></rc>
    <rc><c>C </c><c>   1</c></rc>
    <rc><c>C </c><c>   1</c></rc>
    <rc><c>C </c><c>   1</c></rc>
    <rc><c>C </c><c>   1</c></rc>
    <rc><c>C </c><c>   1</c></rc>
    <rc><c>C </c><c>   1</c></rc>
    <rc><c>C </c><c>   1</c></rc>
    <rc><c>C </c><c>   1</c></rc>
    <rc><c>C </c><c>   1</c></rc>
    <rc><c>C </c><c>   1</c></rc>
    <rc><c>C </c><c>   1</c></rc>
    <rc><c>C </c><c>   1</c></rc>
    <rc><c>C </c><c>   1</c></rc>
    <rc><c>N </c><c>   2</c></rc>
    <rc><c>N </c><c>   2</c></rc>
    <rc><c>N </c><c>   2</c></rc>
    <rc><c>N </c><c>   2</c></rc>
    <rc><c>N </c><c>   2</c></rc>
    <rc><c>N </c><c>   2</c></rc>
    <rc><c>N </c><c>   2</c></rc>
    <rc><c>N </c><c>   2</c></rc>
    <rc><c>H </c><c>   3</c></rc>
    <rc><c>H </c><c>   3</c></rc>
    <rc><c>O </c><c>   4</c></rc>
   </set>
  </array>
  <array name="atomtypes" >
   <dimension dim="1">type</dimension>
   <field type="int">atomspertype</field>
   <field type="string">element</field>
   <field>mass</field>
   <field>valence</field>
   <field type="string">pseudopotential</field>
   <set>
    <rc><c>  80</c><c>C </c><c>     12.01100000</c><c>      4.00000000</c><c>  PAW_PBE C 08Apr2002                   </c></rc>
    <rc><c>   8</c><c>N </c><c>     14.00100000</c><c>      5.00000000</c><c>  PAW_PBE N 08Apr2002                   </c></rc>
    <rc><c>   2</c><c>H </c><c>      1.00000000</c><c>      1.00000000</c><c>  PAW_PBE H 15Jun2001                   </c></rc>
    <rc><c>   1</c><c>O </c><c>     16.00000000</c><c>      6.00000000</c><c>  PAW_PBE O 08Apr2002                   </c></rc>
   </set>
  </array>
 </atominfo>
 <structure name="initialpos" >
  <crystal>
   <varray name="basis" >
    <v>      17.27103806       0.00000000       0.00000000 </v>
    <v>      -8.63551903      14.95715771       0.00000000 </v>
    <v>       0.00000000       0.00000000      15.00000000 </v>
   </varray>
   <i name="volume">   3874.88459904 </i>
   <varray name="rec_basis" >
    <v>       0.05790040       0.03342881       0.00000000 </v>
    <v>       0.00000000       0.06685762       0.00000000 </v>
    <v>       0.00000000       0.00000000       0.06666667 </v>
   </varray>
  </crystal>
  <varray name="positions" >
   <v>       0.99989724       0.99977298       0.50047019 </v>
   <v>       0.99925579       0.14222416       0.50035684 </v>
   <v>       0.99900982       0.28516500       0.50079354 </v>
   <v>       0.99925695       0.42837567       0.50077804 </v>
   <v>       0.99991344       0.57144935       0.50016780 </v>
   <v>       0.00138646       0.71483281       0.49997641 </v>
   <v>       0.00133548       0.85790490       0.50041357 </v>
   <v>       0.14428782       0.00145797       0.50093817 </v>
   <v>       0.14376780       0.14418374       0.50034145 </v>
   <v>       0.14218667       0.28535267       0.49951136 </v>
   <v>       0.14221997       0.42804597       0.49900512 </v>
   <v>       0.14380077       0.57087626       0.49888451 </v>
   <v>       0.14430455       0.71408520       0.49966538 </v>
   <v>       0.14428016       0.85775774       0.50071880 </v>
   <v>       0.28680260       0.00098122       0.50050299 </v>
   <v>       0.28754537       0.14579318       0.49984272 </v>
   <v>       0.28858722       0.29328551       0.49769174 </v>
   <v>       0.28502402       0.42809520       0.49595689 </v>
   <v>       0.28862205       0.56654211       0.49600535 </v>
   <v>       0.28755845       0.71302535       0.49760716 </v>
   <v>       0.28684511       0.85713398       0.49949203 </v>
   <v>       0.42934538       0.00045363       0.49922450 </v>
   <v>       0.42941660       0.14527561       0.49957659 </v>
   <v>       0.42941063       0.85567517       0.49759703 </v>
   <v>       0.57127510       0.99923968       0.49845934 </v>
   <v>       0.57130850       0.14373633       0.49937061 </v>
   <v>       0.57351010       0.29137992       0.49884656 </v>
   <v>       0.57354306       0.85380087       0.49692326 </v>
   <v>       0.71337415       0.99810991       0.49877791 </v>
   <v>       0.71372602       0.14271346       0.50019150 </v>
   <v>       0.71337189       0.28694982       0.50025932 </v>
   <v>       0.70896909       0.42790056       0.49838066 </v>
   <v>       0.70898401       0.85277518       0.49718938 </v>
   <v>       0.85594532       0.99842683       0.49937585 </v>
   <v>       0.85611627       0.14204258       0.50053771 </v>
   <v>       0.85607909       0.28562614       0.50137671 </v>
   <v>       0.85591893       0.42909159       0.50055657 </v>
   <v>       0.85625962       0.57231694       0.49925891 </v>
   <v>       0.85858120       0.71512400       0.49879896 </v>
   <v>       0.85622117       0.85552157       0.49879519 </v>
   <v>       0.04793444       0.09546862       0.50043361 </v>
   <v>       0.04649505       0.23732550       0.50028383 </v>
   <v>       0.04651469       0.38047429       0.50040986 </v>
   <v>       0.04794526       0.52379223       0.50004096 </v>
   <v>       0.04864322       0.66687794       0.49998686 </v>
   <v>       0.04891662       0.81012991       0.50050016 </v>
   <v>       0.04861204       0.95303840       0.50079442 </v>
   <v>       0.19183508       0.09687109       0.50046314 </v>
   <v>       0.19152108       0.23974343       0.49944776 </v>
   <v>       0.18916721       0.38016518       0.49839672 </v>
   <v>       0.19154600       0.52302599       0.49797310 </v>
   <v>       0.19188321       0.66627203       0.49868063 </v>
   <v>       0.19176612       0.80974603       0.50001042 </v>
   <v>       0.19175766       0.95327472       0.50089324 </v>
   <v>       0.33436583       0.09716200       0.50009745 </v>
   <v>       0.33878675       0.24256978       0.49860283 </v>
   <v>       0.33884998       0.66757409       0.49618952 </v>
   <v>       0.33439300       0.80851757       0.49821545 </v>
   <v>       0.33403299       0.95267880       0.49983962 </v>
   <v>       0.47647342       0.09627012       0.49937779 </v>
   <v>       0.47422827       0.24169757       0.49900121 </v>
   <v>       0.47427028       0.80413383       0.49658562 </v>
   <v>       0.47640983       0.95176538       0.49834293 </v>
   <v>       0.61836202       0.09501879       0.49935188 </v>
   <v>       0.61830592       0.23982011       0.49955385 </v>
   <v>       0.61828826       0.95016736       0.49796969 </v>
   <v>       0.76098867       0.09436708       0.49997790 </v>
   <v>       0.76096914       0.23829794       0.50089957 </v>
   <v>       0.76023203       0.38241052       0.49988894 </v>
   <v>       0.75919315       0.52883508       0.49774037 </v>
   <v>       0.76262991       0.66712020       0.49678289 </v>
   <v>       0.75914883       0.80197566       0.49712200 </v>
   <v>       0.76027095       0.94951053       0.49840831 </v>
   <v>       0.90359649       0.09380511       0.50017451 </v>
   <v>       0.90361438       0.23757464       0.50118970 </v>
   <v>       0.90357818       0.38130802       0.50121039 </v>
   <v>       0.90403611       0.52447288       0.50017291 </v>
   <v>       0.90562777       0.66730331       0.49930778 </v>
   <v>       0.90562208       0.80994694       0.49943404 </v>
   <v>       0.90402082       0.95108362       0.49961176 </v>
   <v>       0.42861233       0.28653852       0.49840748 </v>
   <v>       0.42867329       0.71364594       0.49573341 </v>
   <v>       0.71591759       0.57522524       0.49560104 </v>
   <v>       0.71587034       0.71227260       0.49555356 </v>
   <v>       0.33179802       0.38295385       0.49499338 </v>
   <v>       0.33182036       0.52003591       0.49442896 </v>
   <v>       0.61911867       0.38188087       0.49816003 </v>
   <v>       0.61916941       0.80896719       0.49650444 </v>
   <v>       0.51996741       0.57512649       0.56582802 </v>
   <v>       0.52186307       0.48771263       0.56287125 </v>
   <v>       0.52150390       0.53072597       0.60466391 </v>
  </varray>
  <varray name="selective"  type="logical" >
   <v type="logical" >  T  T  T </v>
   <v type="logical" >  T  T  T </v>
   <v type="logical" >  T  T  T </v>
   <v type="logical" >  T  T  T </v>
   <v type="logical" >  T  T  T </v>
   <v type="logical" >  T  T  T </v>
   <v type="logical" >  T  T  T </v>
   <v type="logical" >  T  T  T </v>
   <v type="logical" >  T  T  T </v>
   <v type="logical" >  T  T  T </v>
   <v type="logical" >  T  T  T </v>
   <v type="logical" >  T  T  T </v>
   <v type="logical" >  T  T  T </v>
   <v type="logical" >  T  T  T </v>
   <v type="logical" >  T  T  T </v>
   <v type="logical" >  T  T  T </v>
   <v type="logical" >  T  T  T </v>
   <v type="logical" >  T  T  T </v>
   <v type="logical" >  T  T  T </v>
   <v type="logical" >  T  T  T </v>
   <v type="logical" >  T  T  T </v>
   <v type="logical" >  T  T  T </v>
   <v type="logical" >  T  T  T </v>
   <v type="logical" >  T  T  T </v>
   <v type="logical" >  T  T  T </v>
   <v type="logical" >  T  T  T </v>
   <v type="logical" >  T  T  T </v>
   <v type="logical" >  T  T  T </v>
   <v type="logical" >  T  T  T </v>
   <v type="logical" >  T  T  T </v>
   <v type="logical" >  T  T  T </v>
   <v type="logical" >  T  T  T </v>
   <v type="logical" >  T  T  T </v>
   <v type="logical" >  T  T  T </v>
   <v type="logical" >  T  T  T </v>
   <v type="logical" >  T  T  T </v>
   <v type="logical" >  T  T  T </v>
   <v type="logical" >  T  T  T </v>
   <v type="logical" >  T  T  T </v>
   <v type="logical" >  T  T  T </v>
   <v type="logical" >  T  T  T </v>
   <v type="logical" >  T  T  T </v>
   <v type="logical" >  T  T  T </v>
   <v type="logical" >  T  T  T </v>
   <v type="logical" >  T  T  T </v>
   <v type="logical" >  T  T  T </v>
   <v type="logical" >  T  T  T </v>
   <v type="logical" >  T  T  T </v>
   <v type="logical" >  T  T  T </v>
   <v type="logical" >  T  T  T </v>
   <v type="logical" >  T  T  T </v>
   <v type="logical" >  T  T  T </v>
   <v type="logical" >  T  T  T </v>
   <v type="logical" >  T  T  T </v>
   <v type="logical" >  T  T  T </v>
   <v type="logical" >  T  T  T </v>
   <v type="logical" >  T  T  T </v>
   <v type="logical" >  T  T  T </v>
   <v type="logical" >  T  T  T </v>
   <v type="logical" >  T  T  T </v>
   <v type="logical" >  T  T  T </v>
   <v type="logical" >  T  T  T </v>
   <v type="logical" >  T  T  T </v>
   <v type="logical" >  T  T  T </v>
   <v type="logical" >  T  T  T </v>
   <v type="logical" >  T  T  T </v>
   <v type="logical" >  T  T  T </v>
   <v type="logical" >  T  T  T </v>
   <v type="logical" >  T  T  T </v>
   <v type="logical" >  T  T  T </v>
   <v type="logical" >  T  T  T </v>
   <v type="logical" >  T  T  T </v>
   <v type="logical" >  T  T  T </v>
   <v type="logical" >  T  T  T </v>
   <v type="logical" >  T  T  T </v>
   <v type="logical" >  T  T  T </v>
   <v type="logical" >  T  T  T </v>
   <v type="logical" >  T  T  T </v>
   <v type="logical" >  T  T  T </v>
   <v type="logical" >  T  T  T </v>
   <v type="logical" >  T  T  T </v>
   <v type="logical" >  T  T  T </v>
   <v type="logical" >  T  T  T </v>
   <v type="logical" >  T  T  T </v>
   <v type="logical" >  T  T  T </v>
   <v type="logical" >  T  T  T </v>
   <v type="logical" >  T  T  T </v>
   <v type="logical" >  T  T  T </v>
   <v type="logical" >  T  T  T </v>
   <v type="logical" >  T  T  T </v>
   <v type="logical" >  T  T  F </v>
  </varray>
  <nose>
   <v>      -3.00000000       0.00000000       0.00010000       0.00010000 </v>
  </nose>
 </structure>
 <calculation>
  <scstep>
   <time name="dav">  277.72  281.62</time>
   <time name="total">  278.38  282.31</time>
   <energy>
    <i name="alphaZ">    175.06488379 </i>
    <i name="ewald">  36222.51846859 </i>
    <i name="hartreedc"> -47048.13762996 </i>
    <i name="XCdc">   1240.21203079 </i>
    <i name="pawpsdc">  10672.04303313 </i>
    <i name="pawaedc"> -10728.93979680 </i>
    <i name="eentropy">     -0.03694465 </i>
    <i name="bandstr">  -1398.12058754 </i>
    <i name="atom">  14345.53195627 </i>
    <i name="e_fr_energy">   3480.13541362 </i>
    <i name="e_wo_entrp">   3480.17235827 </i>
    <i name="e_0_energy">   3480.15388594 </i>
   </energy>
  </scstep>
  <scstep>
   <time name="dav">  395.58  400.85</time>
   <time name="total">  395.58  400.85</time>
   <energy>
    <i name="e_fr_energy">   -223.24991343 </i>
    <i name="e_wo_entrp">   -223.24917452 </i>
    <i name="e_0_energy">   -223.24954398 </i>
   </energy>
  </scstep>
  <scstep>
   <time name="dav">  313.71  317.95</time>
   <time name="total">  313.71  317.95</time>
   <energy>
    <i name="e_fr_energy">   -845.28662356 </i>
    <i name="e_wo_entrp">   -845.28573949 </i>
    <i name="e_0_energy">   -845.28618153 </i>
   </energy>
  </scstep>
  <scstep>
   <time name="dav">  333.57  338.10</time>
   <time name="total">  333.57  338.11</time>
   <energy>
    <i name="e_fr_energy">   -865.69255319 </i>
    <i name="e_wo_entrp">   -865.69184832 </i>
    <i name="e_0_energy">   -865.69220075 </i>
   </energy>
  </scstep>
  <scstep>
   <time name="dav">  375.04  380.14</time>
   <time name="total">  377.82  382.95</time>
   <energy>
    <i name="e_fr_energy">   -866.30585044 </i>
    <i name="e_wo_entrp">   -866.30513764 </i>
    <i name="e_0_energy">   -866.30549404 </i>
   </energy>
  </scstep>
  <scstep>
   <time name="dav">  292.26  296.25</time>
   <time name="total">  295.74  299.77</time>
   <energy>
    <i name="e_fr_energy">   -837.62211599 </i>
    <i name="e_wo_entrp">   -837.62173667 </i>
    <i name="e_0_energy">   -837.62192633 </i>
   </energy>
  </scstep>
  <scstep>
   <time name="dav">  318.05  322.44</time>
   <time name="total">  321.49  325.98</time>
   <energy>
    <i name="e_fr_energy">   -813.42167842 </i>
    <i name="e_wo_entrp">   -813.39862942 </i>
    <i name="e_0_energy">   -813.41015392 </i>
   </energy>
  </scstep>
  <scstep>
   <time name="dav">  317.88  322.28</time>
   <time name="total">  321.36  325.80</time>
   <energy>
    <i name="e_fr_energy">   -813.31479086 </i>
    <i name="e_wo_entrp">   -813.31419870 </i>
    <i name="e_0_energy">   -813.31449478 </i>
   </energy>
  </scstep>
  <scstep>
   <time name="dav">  310.28  314.59</time>
   <time name="total">  313.76  318.11</time>
   <energy>
    <i name="e_fr_energy">   -813.32006318 </i>
    <i name="e_wo_entrp">   -813.31961653 </i>
    <i name="e_0_energy">   -813.31983986 </i>
   </energy>
  </scstep>
  <scstep>
   <time name="dav">  312.24  316.69</time>
   <time name="total">  315.71  320.20</time>
   <energy>
    <i name="e_fr_energy">   -812.86005371 </i>
    <i name="e_wo_entrp">   -812.85971929 </i>
    <i name="e_0_energy">   -812.85988650 </i>
   </energy>
  </scstep>
  <scstep>
   <time name="dav">  318.84  323.15</time>
   <time name="total">  322.36  326.74</time>
   <energy>
    <i name="e_fr_energy">   -812.82059838 </i>
    <i name="e_wo_entrp">   -812.82024931 </i>
    <i name="e_0_energy">   -812.82042385 </i>
   </energy>
  </scstep>
  <scstep>
   <time name="dav">  315.53  319.87</time>
   <time name="total">  319.01  323.43</time>
   <energy>
    <i name="e_fr_energy">   -812.81387486 </i>
    <i name="e_wo_entrp">   -812.81350906 </i>
    <i name="e_0_energy">   -812.81369196 </i>
   </energy>
  </scstep>
  <scstep>
   <time name="dav">  334.75  339.35</time>
   <time name="total">  338.29  342.93</time>
   <energy>
    <i name="e_fr_energy">   -812.81160736 </i>
    <i name="e_wo_entrp">   -812.81125352 </i>
    <i name="e_0_energy">   -812.81143044 </i>
   </energy>
  </scstep>
  <scstep>
   <time name="dav">  339.95  344.51</time>
   <time name="total">  343.41  348.06</time>
   <energy>
    <i name="e_fr_energy">   -812.81115476 </i>
    <i name="e_wo_entrp">   -812.81080230 </i>
    <i name="e_0_energy">   -812.81097853 </i>
   </energy>
  </scstep>
  <scstep>
   <time name="dav">  340.83  345.56</time>
   <time name="total">  344.31  349.15</time>
   <energy>
    <i name="e_fr_energy">   -812.81072588 </i>
    <i name="e_wo_entrp">   -812.81037768 </i>
    <i name="e_0_energy">   -812.81055178 </i>
   </energy>
  </scstep>
  <scstep>
   <time name="dav">  317.51  321.99</time>
   <time name="total">  321.05  325.56</time>
   <energy>
    <i name="e_fr_energy">   -812.81070088 </i>
    <i name="e_wo_entrp">   -812.81035523 </i>
    <i name="e_0_energy">   -812.81052805 </i>
   </energy>
  </scstep>
  <scstep>
   <time name="dav">  317.55  322.04</time>
   <time name="total">  321.05  325.63</time>
   <energy>
    <i name="e_fr_energy">   -812.81070559 </i>
    <i name="e_wo_entrp">   -812.81035985 </i>
    <i name="e_0_energy">   -812.81053272 </i>
   </energy>
  </scstep>
  <scstep>
   <time name="dav">  322.86  327.41</time>
   <time name="total">  326.35  330.99</time>
   <energy>
    <i name="e_fr_energy">   -812.81070252 </i>
    <i name="e_wo_entrp">   -812.81035643 </i>
    <i name="e_0_energy">   -812.81052948 </i>
   </energy>
  </scstep>
  <scstep>
   <time name="dav">  297.61  301.76</time>
   <time name="total">  298.32  302.49</time>
   <energy>
    <i name="alphaZ">    175.06488379 </i>
    <i name="ewald">  36222.51846859 </i>
    <i name="hartreedc"> -48418.07102253 </i>
    <i name="XCdc">   1292.67605272 </i>
    <i name="pawpsdc">  37034.81540899 </i>
    <i name="pawaedc"> -37102.27261999 </i>
    <i name="eentropy">     -0.00034621 </i>
    <i name="bandstr">  -4363.07348346 </i>
    <i name="atom">  14345.53195627 </i>
    <i name="e_fr_energy">   -812.81070183 </i>
    <i name="e_wo_entrp">   -812.81035562 </i>
    <i name="e_0_energy">   -812.81052872 </i>
   </energy>
  </scstep>
  <structure>
   <crystal>
    <varray name="basis" >
     <v>      17.27103806       0.00000000       0.00000000 </v>
     <v>      -8.63551903      14.95715771       0.00000000 </v>
     <v>       0.00000000       0.00000000      15.00000000 </v>
    </varray>
    <i name="volume">   3874.88459904 </i>
    <varray name="rec_basis" >
     <v>       0.05790040       0.03342881       0.00000000 </v>
     <v>       0.00000000       0.06685762       0.00000000 </v>
     <v>       0.00000000       0.00000000       0.06666667 </v>
    </varray>
   </crystal>
   <varray name="positions" >
    <v>       0.99989724       0.99977298       0.50047019 </v>
    <v>       0.99925579       0.14222416       0.50035684 </v>
    <v>       0.99900982       0.28516500       0.50079354 </v>
    <v>       0.99925695       0.42837567       0.50077804 </v>
    <v>       0.99991344       0.57144935       0.50016780 </v>
    <v>       0.00138646       0.71483281       0.49997641 </v>
    <v>       0.00133548       0.85790490       0.50041357 </v>
    <v>       0.14428782       0.00145797       0.50093817 </v>
    <v>       0.14376780       0.14418374       0.50034145 </v>
    <v>       0.14218667       0.28535267       0.49951136 </v>
    <v>       0.14221997       0.42804597       0.49900512 </v>
    <v>       0.14380077       0.57087626       0.49888451 </v>
    <v>       0.14430455       0.71408520       0.49966538 </v>
    <v>       0.14428016       0.85775774       0.50071880 </v>
    <v>       0.28680260       0.00098122       0.50050299 </v>
    <v>       0.28754537       0.14579318       0.49984272 </v>
    <v>       0.28858722       0.29328551       0.49769174 </v>
    <v>       0.28502402       0.42809520       0.49595689 </v>
    <v>       0.28862205       0.56654211       0.49600535 </v>
    <v>       0.28755845       0.71302535       0.49760716 </v>
    <v>       0.28684511       0.85713398       0.49949203 </v>
    <v>       0.42934538       0.00045363       0.49922450 </v>
    <v>       0.42941660       0.14527561       0.49957659 </v>
    <v>       0.42941063       0.85567517       0.49759703 </v>
    <v>       0.57127510       0.99923968       0.49845934 </v>
    <v>       0.57130850       0.14373633       0.49937061 </v>
    <v>       0.57351010       0.29137992       0.49884656 </v>
    <v>       0.57354306       0.85380087       0.49692326 </v>
    <v>       0.71337415       0.99810991       0.49877791 </v>
    <v>       0.71372602       0.14271346       0.50019150 </v>
    <v>       0.71337189       0.28694982       0.50025932 </v>
    <v>       0.70896909       0.42790056       0.49838066 </v>
    <v>       0.70898401       0.85277518       0.49718938 </v>
    <v>       0.85594532       0.99842683       0.49937585 </v>
    <v>       0.85611627       0.14204258       0.50053771 </v>
    <v>       0.85607909       0.28562614       0.50137671 </v>
    <v>       0.85591893       0.42909159       0.50055657 </v>
    <v>       0.85625962       0.57231694       0.49925891 </v>
    <v>       0.85858120       0.71512400       0.49879896 </v>
    <v>       0.85622117       0.85552157       0.49879519 </v>
    <v>       0.04793444       0.09546862       0.50043361 </v>
    <v>       0.04649505       0.23732550       0.50028383 </v>
    <v>       0.04651469       0.38047429       0.50040986 </v>
    <v>       0.04794526       0.52379223       0.50004096 </v>
    <v>       0.04864322       0.66687794       0.49998686 </v>
    <v>       0.04891662       0.81012991       0.50050016 </v>
    <v>       0.04861204       0.95303840       0.50079442 </v>
    <v>       0.19183508       0.09687109       0.50046314 </v>
    <v>       0.19152108       0.23974343       0.49944776 </v>
    <v>       0.18916721       0.38016518       0.49839672 </v>
    <v>       0.19154600       0.52302599       0.49797310 </v>
    <v>       0.19188321       0.66627203       0.49868063 </v>
    <v>       0.19176612       0.80974603       0.50001042 </v>
    <v>       0.19175766       0.95327472       0.50089324 </v>
    <v>       0.33436583       0.09716200       0.50009745 </v>
    <v>       0.33878675       0.24256978       0.49860283 </v>
    <v>       0.33884998       0.66757409       0.49618952 </v>
    <v>       0.33439300       0.80851757       0.49821545 </v>
    <v>       0.33403299       0.95267880       0.49983962 </v>
    <v>       0.47647342       0.09627012       0.49937779 </v>
    <v>       0.47422827       0.24169757       0.49900121 </v>
    <v>       0.47427028       0.80413383       0.49658562 </v>
    <v>       0.47640983       0.95176538       0.49834293 </v>
    <v>       0.61836202       0.09501879       0.49935188 </v>
    <v>       0.61830592       0.23982011       0.49955385 </v>
    <v>       0.61828826       0.95016736       0.49796969 </v>
    <v>       0.76098867       0.09436708       0.49997790 </v>
    <v>       0.76096914       0.23829794       0.50089957 </v>
    <v>       0.76023203       0.38241052       0.49988894 </v>
    <v>       0.75919315       0.52883508       0.49774037 </v>
    <v>       0.76262991       0.66712020       0.49678289 </v>
    <v>       0.75914883       0.80197566       0.49712200 </v>
    <v>       0.76027095       0.94951053       0.49840831 </v>
    <v>       0.90359649       0.09380511       0.50017451 </v>
    <v>       0.90361438       0.23757464       0.50118970 </v>
    <v>       0.90357818       0.38130802       0.50121039 </v>
    <v>       0.90403611       0.52447288       0.50017291 </v>
    <v>       0.90562777       0.66730331       0.49930778 </v>
    <v>       0.90562208       0.80994694       0.49943404 </v>
    <v>       0.90402082       0.95108362       0.49961176 </v>
    <v>       0.42861233       0.28653852       0.49840748 </v>
    <v>       0.42867329       0.71364594       0.49573341 </v>
    <v>       0.71591759       0.57522524       0.49560104 </v>
    <v>       0.71587034       0.71227260       0.49555356 </v>
    <v>       0.33179802       0.38295385       0.49499338 </v>
    <v>       0.33182036       0.52003591       0.49442896 </v>
    <v>       0.61911867       0.38188087       0.49816003 </v>
    <v>       0.61916941       0.80896719       0.49650444 </v>
    <v>       0.51996741       0.57512649       0.56582802 </v>
    <v>       0.52186307       0.48771263       0.56287125 </v>
    <v>       0.52150390       0.53072597       0.60466391 </v>
   </varray>
  </structure>
  <varray name="forces" >
   <v>      -0.00363580       0.01289287      -0.01389672 </v>
   <v>       0.00805873      -0.03062169       0.00576490 </v>
   <v>       0.00344716       0.02471691      -0.00511966 </v>
   <v>      -0.02106117       0.02962406      -0.01547828 </v>
   <v>      -0.01104045       0.02261426      -0.00315365 </v>
   <v>      -0.00466195      -0.01914630       0.01034686 </v>
   <v>       0.00831162       0.01832470       0.00246872 </v>
   <v>      -0.04584666       0.03742392      -0.00536265 </v>
   <v>      -0.01640203      -0.02405952      -0.01218221 </v>
   <v>      -0.01469190       0.00031716      -0.01115074 </v>
   <v>      -0.02867590       0.01529299      -0.00751065 </v>
   <v>      -0.02941227      -0.00536261       0.00320825 </v>
   <v>      -0.00038292      -0.03216054      -0.00647304 </v>
   <v>      -0.00180040       0.02223835      -0.01180619 </v>
   <v>       0.01411477      -0.01590375      -0.00972311 </v>
   <v>      -0.00911154       0.01336219       0.00031520 </v>
   <v>      -0.02683442       0.00766200      -0.00892194 </v>
   <v>       0.02211657       0.01483630       0.00721970 </v>
   <v>      -0.00044005       0.00080157       0.00808376 </v>
   <v>       0.00732360       0.01816595       0.00986714 </v>
   <v>      -0.02776059       0.01070463      -0.00834317 </v>
   <v>       0.04987284       0.02269453      -0.00598103 </v>
   <v>      -0.00333133       0.02482673      -0.00867236 </v>
   <v>       0.03992267      -0.02253333       0.00963528 </v>
   <v>      -0.04500038       0.00734814       0.00393443 </v>
   <v>      -0.00865343      -0.05995607       0.01089515 </v>
   <v>       0.01995037      -0.00947724       0.01463897 </v>
   <v>      -0.00060360       0.02658850      -0.00216432 </v>
   <v>      -0.00487986      -0.00332509      -0.00401407 </v>
   <v>       0.03645287       0.00637044      -0.00509768 </v>
   <v>      -0.00864328      -0.00533912      -0.01008279 </v>
   <v>      -0.00572384      -0.01999295       0.01883397 </v>
   <v>      -0.01471931      -0.00420196       0.00206523 </v>
   <v>       0.05025545      -0.00419923       0.00284483 </v>
   <v>      -0.03912098      -0.01237573       0.00298348 </v>
   <v>      -0.00629341      -0.02045242      -0.01433643 </v>
   <v>       0.03378605       0.03827693      -0.00393212 </v>
   <v>       0.00836797       0.00029107       0.00554876 </v>
   <v>       0.01575347      -0.01937180      -0.00594170 </v>
   <v>       0.00428590       0.00212527       0.01452850 </v>
   <v>      -0.01042882      -0.01823056       0.01130513 </v>
   <v>      -0.00714444       0.00995807       0.01382110 </v>
   <v>      -0.00381866      -0.00607569       0.00125015 </v>
   <v>      -0.00224560      -0.00172655       0.00352413 </v>
   <v>      -0.02913570      -0.00235490      -0.00005667 </v>
   <v>      -0.05329314      -0.03058333      -0.00598138 </v>
   <v>      -0.02054987       0.01067353      -0.00885380 </v>
   <v>      -0.00320011      -0.00217721      -0.00053157 </v>
   <v>       0.02425195       0.00621969       0.00351102 </v>
   <v>      -0.00452171       0.01640164       0.00811887 </v>
   <v>       0.01825309       0.01322871       0.01263619 </v>
   <v>      -0.00842972      -0.03100104      -0.00339830 </v>
   <v>       0.01867206       0.01553000       0.00450185 </v>
   <v>       0.01181008       0.00345933      -0.00541423 </v>
   <v>      -0.00656545       0.06851189      -0.00486546 </v>
   <v>      -0.00238382      -0.00041346      -0.01022982 </v>
   <v>       0.00518254       0.00840969       0.00878877 </v>
   <v>       0.02750535      -0.02535374      -0.00834602 </v>
   <v>      -0.02415861       0.00280423      -0.00443398 </v>
   <v>       0.03690645      -0.03076280       0.00020994 </v>
   <v>       0.01061535      -0.04330681      -0.00754827 </v>
   <v>      -0.03902015      -0.00261264       0.00629041 </v>
   <v>       0.02663707       0.05747152       0.00336170 </v>
   <v>      -0.01000475      -0.00850282      -0.00100387 </v>
   <v>       0.00700537       0.02756435      -0.00819318 </v>
   <v>       0.04293489      -0.00419263       0.00676306 </v>
   <v>      -0.00327131       0.00615020      -0.00504370 </v>
   <v>       0.01784294      -0.02623643      -0.01375787 </v>
   <v>      -0.00436112      -0.02712607      -0.00660073 </v>
   <v>       0.00361497      -0.00106803      -0.00855287 </v>
   <v>       0.01987459       0.01479919      -0.01034568 </v>
   <v>       0.01038450      -0.00842438      -0.00431888 </v>
   <v>      -0.03527108       0.00472026       0.00756660 </v>
   <v>      -0.01341593      -0.00949230      -0.00212640 </v>
   <v>      -0.02274212      -0.01872599      -0.01199436 </v>
   <v>      -0.01035811      -0.00416975      -0.00987792 </v>
   <v>       0.02740119       0.00151514      -0.00999420 </v>
   <v>       0.02258693      -0.01663031       0.01789824 </v>
   <v>       0.00351286      -0.02066162      -0.00482119 </v>
   <v>       0.01641654       0.02845372      -0.00329525 </v>
   <v>      -0.00945131      -0.00309921       0.00567577 </v>
   <v>      -0.00498675      -0.01009199       0.01208128 </v>
   <v>       0.00579482      -0.00096918       0.00798059 </v>
   <v>      -0.00062101       0.00879483       0.00983032 </v>
   <v>       0.00330551      -0.01521204       0.00796100 </v>
   <v>      -0.00166041       0.00406991       0.00837647 </v>
   <v>       0.00577986       0.00668635       0.00428938 </v>
   <v>       0.01578896      -0.00021930       0.00412906 </v>
   <v>      -0.00468682       0.00118383      -0.00460543 </v>
   <v>       0.00755053      -0.01571688      -0.00636788 </v>
   <v>       0.00280560      -0.00048854       0.04684925 </v>
  </varray>
  <varray name="stress" >
   <v>     -13.10172376       3.89747337       0.00012936 </v>
   <v>       3.89747353     -17.43273860      -0.00591985 </v>
   <v>       0.00012947      -0.00592009      -0.23628712 </v>
  </varray>
  <energy>
   <i name="e_fr_energy">   -820.15814481 </i>
   <i name="e_wo_entrp">   -820.15779860 </i>
   <i name="e_0_energy">   -820.15797171 </i>
  </energy>
  <time name="totalsc"> 6746.94 6839.98</time>
 </calculation>
 <calculation>
  <scstep>
   <time name="dav">  303.59  307.77</time>
   <time name="total">  307.02  311.24</time>
   <energy>
    <i name="alphaZ">    175.06488379 </i>
    <i name="ewald">  36222.68909615 </i>
    <i name="hartreedc"> -48418.20397515 </i>
    <i name="XCdc">   1292.67668460 </i>
    <i name="pawpsdc">  37035.07040129 </i>
    <i name="pawaedc"> -37102.52746968 </i>
    <i name="eentropy">     -0.00034775 </i>
    <i name="bandstr">  -4363.11252176 </i>
    <i name="atom">  14345.53195627 </i>
    <i name="e_fr_energy">   -812.81129222 </i>
    <i name="e_wo_entrp">   -812.81094448 </i>
    <i name="e_0_energy">   -812.81111835 </i>
   </energy>
  </scstep>
  <scstep>
   <time name="dav">  330.32  334.91</time>
   <time name="total">  333.72  338.40</time>
   <energy>
    <i name="e_fr_energy">   -812.81131826 </i>
    <i name="e_wo_entrp">   -812.81097076 </i>
    <i name="e_0_energy">   -812.81114451 </i>
   </energy>
  </scstep>
  <scstep>
   <time name="dav">  336.91  341.50</time>
   <time name="total">  340.39  345.02</time>
   <energy>
    <i name="e_fr_energy">   -812.81130369 </i>
    <i name="e_wo_entrp">   -812.81095626 </i>
    <i name="e_0_energy">   -812.81112998 </i>
   </energy>
  </scstep>
  <scstep>
   <time name="dav">  317.56  322.12</time>
   <time name="total">  320.97  325.62</time>
   <energy>
    <i name="e_fr_energy">   -812.81129669 </i>
    <i name="e_wo_entrp">   -812.81094937 </i>
    <i name="e_0_energy">   -812.81112303 </i>
   </energy>
  </scstep>
  <scstep>
   <time name="dav">  281.77  285.60</time>
   <time name="total">  282.49  286.34</time>
   <energy>
    <i name="alphaZ">    175.06488379 </i>
    <i name="ewald">  36222.68909615 </i>
    <i name="hartreedc"> -48418.24264972 </i>
    <i name="XCdc">   1292.67751162 </i>
    <i name="pawpsdc">  37035.35556578 </i>
    <i name="pawaedc"> -37102.81283583 </i>
    <i name="eentropy">     -0.00034730 </i>
    <i name="bandstr">  -4363.07447747 </i>
    <i name="atom">  14345.53195627 </i>
    <i name="e_fr_energy">   -812.81129670 </i>
    <i name="e_wo_entrp">   -812.81094940 </i>
    <i name="e_0_energy">   -812.81112305 </i>
   </energy>
  </scstep>
  <structure>
   <crystal>
    <varray name="basis" >
     <v>      17.27103806       0.00000000       0.00000000 </v>
     <v>      -8.63551903      14.95715771       0.00000000 </v>
     <v>       0.00000000       0.00000000      15.00000000 </v>
    </varray>
    <i name="volume">   3874.88459904 </i>
    <varray name="rec_basis" >
     <v>       0.05790040       0.03342881       0.00000000 </v>
     <v>       0.00000000       0.06685762       0.00000000 </v>
     <v>       0.00000000       0.00000000       0.06666667 </v>
    </varray>
   </crystal>
   <varray name="positions" >
    <v>       0.99989937       0.99978129       0.50046125 </v>
    <v>       0.99925042       0.14220441       0.50036055 </v>
    <v>       0.99901972       0.28518095       0.50079024 </v>
    <v>       0.99925474       0.42839478       0.50076808 </v>
    <v>       0.99991457       0.57146393       0.50016578 </v>
    <v>       0.00137768       0.71482046       0.49998307 </v>
    <v>       0.00134604       0.85791672       0.50041515 </v>
    <v>       0.14427428       0.00148211       0.50093472 </v>
    <v>       0.14375088       0.14416822       0.50033361 </v>
    <v>       0.14217856       0.28535287       0.49950419 </v>
    <v>       0.14220888       0.42805583       0.49900029 </v>
    <v>       0.14378261       0.57087280       0.49888657 </v>
    <v>       0.14429396       0.71406445       0.49966121 </v>
    <v>       0.14428632       0.85777208       0.50071121 </v>
    <v>       0.28680536       0.00097096       0.50049673 </v>
    <v>       0.28754459       0.14580180       0.49984292 </v>
    <v>       0.28857470       0.29329046       0.49768601 </v>
    <v>       0.28504116       0.42810477       0.49596154 </v>
    <v>       0.28862206       0.56654263       0.49601055 </v>
    <v>       0.28756840       0.71303707       0.49761351 </v>
    <v>       0.28683305       0.85714088       0.49948666 </v>
    <v>       0.42938056       0.00046827       0.49922065 </v>
    <v>       0.42942275       0.14529163       0.49957101 </v>
    <v>       0.42942567       0.85566063       0.49760323 </v>
    <v>       0.57125233       0.99924442       0.49846187 </v>
    <v>       0.57128433       0.14369765       0.49937761 </v>
    <v>       0.57351819       0.29137381       0.49885597 </v>
    <v>       0.57355130       0.85381803       0.49692187 </v>
    <v>       0.71337036       0.99810776       0.49877533 </v>
    <v>       0.71374844       0.14271757       0.50018822 </v>
    <v>       0.71336534       0.28694637       0.50025283 </v>
    <v>       0.70895944       0.42788767       0.49839278 </v>
    <v>       0.70897443       0.85277247       0.49719070 </v>
    <v>       0.85597204       0.99842412       0.49937768 </v>
    <v>       0.85609042       0.14203459       0.50053963 </v>
    <v>       0.85606898       0.28561295       0.50136749 </v>
    <v>       0.85595015       0.42911628       0.50055404 </v>
    <v>       0.85626439       0.57231713       0.49926248 </v>
    <v>       0.85858375       0.71511150       0.49879514 </v>
    <v>       0.85622425       0.85552294       0.49880454 </v>
    <v>       0.04792273       0.09545686       0.50044088 </v>
    <v>       0.04649427       0.23733192       0.50029272 </v>
    <v>       0.04651060       0.38047037       0.50041067 </v>
    <v>       0.04794345       0.52379111       0.50004323 </v>
    <v>       0.04862618       0.66687643       0.49998682 </v>
    <v>       0.04887699       0.81011018       0.50049631 </v>
    <v>       0.04860400       0.95304529       0.50078873 </v>
    <v>       0.19183259       0.09686969       0.50046280 </v>
    <v>       0.19153664       0.23974744       0.49945002 </v>
    <v>       0.18916997       0.38017576       0.49840194 </v>
    <v>       0.19156047       0.52303452       0.49798122 </v>
    <v>       0.19186850       0.66625203       0.49867845 </v>
    <v>       0.19178156       0.80975605       0.50001331 </v>
    <v>       0.19176537       0.95327695       0.50088976 </v>
    <v>       0.33438426       0.09720620       0.50009432 </v>
    <v>       0.33878528       0.24256951       0.49859624 </v>
    <v>       0.33885559       0.66757952       0.49619517 </v>
    <v>       0.33440019       0.80850121       0.49821008 </v>
    <v>       0.33402040       0.95268061       0.49983677 </v>
    <v>       0.47648411       0.09625028       0.49937793 </v>
    <v>       0.47422023       0.24166964       0.49899636 </v>
    <v>       0.47424764       0.80413214       0.49658967 </v>
    <v>       0.47644324       0.95180245       0.49834509 </v>
    <v>       0.61835369       0.09501331       0.49935124 </v>
    <v>       0.61831873       0.23983789       0.49954858 </v>
    <v>       0.61831089       0.95016466       0.49797404 </v>
    <v>       0.76098882       0.09437105       0.49997466 </v>
    <v>       0.76097065       0.23828102       0.50089072 </v>
    <v>       0.76022084       0.38239302       0.49988469 </v>
    <v>       0.75919483       0.52883439       0.49773487 </v>
    <v>       0.76264578       0.66712974       0.49677623 </v>
    <v>       0.75915191       0.80197023       0.49711922 </v>
    <v>       0.76025276       0.94951358       0.49841318 </v>
    <v>       0.90358593       0.09379899       0.50017315 </v>
    <v>       0.90359563       0.23756256       0.50118199 </v>
    <v>       0.90357105       0.38130533       0.50120403 </v>
    <v>       0.90405191       0.52447386       0.50016648 </v>
    <v>       0.90563502       0.66729259       0.49931929 </v>
    <v>       0.90561738       0.80993361       0.49943094 </v>
    <v>       0.90403917       0.95110197       0.49960964 </v>
    <v>       0.42860605       0.28653652       0.49841113 </v>
    <v>       0.42866724       0.71363943       0.49574118 </v>
    <v>       0.71592052       0.57522462       0.49560617 </v>
    <v>       0.71587283       0.71227828       0.49555988 </v>
    <v>       0.33179496       0.38294404       0.49499850 </v>
    <v>       0.33182075       0.52003853       0.49443435 </v>
    <v>       0.61912406       0.38188518       0.49816279 </v>
    <v>       0.61917816       0.80896705       0.49650709 </v>
    <v>       0.51996517       0.57512725       0.56582506 </v>
    <v>       0.52186222       0.48770249       0.56286715 </v>
    <v>       0.52150531       0.53072566       0.60466391 </v>
   </varray>
  </structure>
  <varray name="forces" >
   <v>      -0.00230036       0.00588164      -0.01203456 </v>
   <v>      -0.00601528      -0.01177743       0.00639578 </v>
   <v>      -0.00677918       0.00580254      -0.00406151 </v>
   <v>      -0.01426252       0.00865178      -0.01341610 </v>
   <v>      -0.00316417       0.01271893      -0.00299320 </v>
   <v>      -0.01015503      -0.01089861       0.00990317 </v>
   <v>      -0.00589856       0.00596049       0.00102230 </v>
   <v>      -0.02110714       0.01692228      -0.00515387 </v>
   <v>      -0.00769575      -0.00827034      -0.00961823 </v>
   <v>      -0.00359876       0.00530719      -0.00803515 </v>
   <v>      -0.01151186       0.01166466      -0.00515959 </v>
   <v>      -0.00933736      -0.00826260       0.00342374 </v>
   <v>      -0.00298843      -0.01611875      -0.00559360 </v>
   <v>      -0.01153888       0.00412672      -0.01057573 </v>
   <v>       0.00537808       0.01166814      -0.00879801 </v>
   <v>      -0.00766175       0.01427838      -0.00070241 </v>
   <v>      -0.01228627       0.00050142      -0.00733291 </v>
   <v>       0.01074285       0.00917098       0.00772908 </v>
   <v>       0.00085831       0.00308508       0.00852564 </v>
   <v>       0.00222819       0.00112445       0.00819478 </v>
   <v>      -0.00311841       0.00616099      -0.00783118 </v>
   <v>       0.02032096       0.00573882      -0.00509535 </v>
   <v>       0.00680841       0.00739223      -0.00844407 </v>
   <v>       0.01712951      -0.00246443       0.00853109 </v>
   <v>      -0.00136153       0.00982294       0.00393648 </v>
   <v>       0.00432588      -0.02165638       0.00905612 </v>
   <v>       0.01226727      -0.00533313       0.01190769 </v>
   <v>       0.00296974       0.01235838      -0.00084123 </v>
   <v>       0.00064379       0.00205841      -0.00269667 </v>
   <v>       0.01333663      -0.00329101      -0.00565266 </v>
   <v>       0.00334451      -0.00835339      -0.01019451 </v>
   <v>       0.00262062      -0.01369676       0.01551672 </v>
   <v>      -0.00630493       0.00265096       0.00243720 </v>
   <v>       0.01424860      -0.00297734       0.00239114 </v>
   <v>      -0.01940039      -0.00923401       0.00153626 </v>
   <v>      -0.00455918      -0.01279186      -0.01418050 </v>
   <v>       0.01326196       0.01164854      -0.00488970 </v>
   <v>       0.00919107      -0.00633017       0.00444035 </v>
   <v>       0.01590168      -0.01300151      -0.00549860 </v>
   <v>       0.00829637       0.00073839       0.01149765 </v>
   <v>      -0.00642146      -0.01032462       0.00842103 </v>
   <v>      -0.00504650      -0.00127808       0.01137912 </v>
   <v>      -0.01315663       0.00874441      -0.00080801 </v>
   <v>      -0.01180636       0.00662925       0.00209211 </v>
   <v>      -0.01178544       0.00067157       0.00002964 </v>
   <v>      -0.02108804      -0.01049246      -0.00499868 </v>
   <v>      -0.01353417       0.01329977      -0.00854515 </v>
   <v>      -0.01135986       0.00385981      -0.00140819 </v>
   <v>       0.00053853      -0.00330685       0.00130999 </v>
   <v>      -0.00524456       0.01346590       0.00608229 </v>
   <v>       0.00102738       0.01100597       0.01123663 </v>
   <v>      -0.00738146      -0.01626557      -0.00270109 </v>
   <v>       0.00113116       0.00094821       0.00252268 </v>
   <v>      -0.00592370       0.01067610      -0.00593204 </v>
   <v>      -0.00360344       0.03453514      -0.00486114 </v>
   <v>      -0.00635248       0.00430186      -0.00900347 </v>
   <v>       0.00138475       0.00379140       0.00932462 </v>
   <v>       0.01513149      -0.00385655      -0.00627371 </v>
   <v>       0.00109215       0.00676983      -0.00548202 </v>
   <v>       0.01401868      -0.01734487       0.00014683 </v>
   <v>       0.00682319      -0.01736400      -0.00582073 </v>
   <v>      -0.01200257      -0.00105508       0.00650108 </v>
   <v>       0.01415468       0.01802107       0.00321549 </v>
   <v>       0.00078156      -0.00483859      -0.00023265 </v>
   <v>       0.00218326      -0.00194443      -0.00593812 </v>
   <v>       0.00988149       0.00060008       0.00546345 </v>
   <v>      -0.00555923      -0.00114454      -0.00467542 </v>
   <v>       0.00833519      -0.01645925      -0.01339270 </v>
   <v>       0.00718868      -0.00817415      -0.00505015 </v>
   <v>       0.00517592      -0.00178366      -0.00567936 </v>
   <v>       0.01272321       0.00584933      -0.00852792 </v>
   <v>       0.00697057       0.00144289      -0.00197659 </v>
   <v>      -0.00647467       0.00289916       0.00665077 </v>
   <v>      -0.00647410      -0.00819020      -0.00116986 </v>
   <v>      -0.01093272      -0.00931784      -0.01104265 </v>
   <v>      -0.00326482       0.00073067      -0.01040760 </v>
   <v>       0.01644601       0.00891370      -0.00859938 </v>
   <v>       0.01221279      -0.01787076       0.01599329 </v>
   <v>       0.00302969      -0.00907493      -0.00330695 </v>
   <v>       0.01633424       0.00974110      -0.00266613 </v>
   <v>       0.00000704      -0.00873723       0.00440407 </v>
   <v>      -0.00212639      -0.00605854       0.01140106 </v>
   <v>       0.00648644       0.00233358       0.00669253 </v>
   <v>       0.00589039       0.00272782       0.00806416 </v>
   <v>       0.00178072      -0.00401106       0.00681976 </v>
   <v>       0.00288491       0.00560414       0.00817883 </v>
   <v>      -0.00154739      -0.00292204       0.00578983 </v>
   <v>      -0.00101245      -0.00166864       0.00330652 </v>
   <v>      -0.00288570      -0.00170035      -0.00264291 </v>
   <v>       0.00429327      -0.01013482      -0.00155266 </v>
   <v>       0.00424805      -0.00322028       0.04002366 </v>
  </varray>
  <varray name="stress" >
   <v>     -13.09626483       3.90853863       0.00070217 </v>
   <v>       3.90853879     -17.41744943      -0.00683296 </v>
   <v>       0.00070229      -0.00683320      -0.23487174 </v>
  </varray>
  <energy>
   <i name="e_fr_energy">   -820.15871488 </i>
   <i name="e_wo_entrp">   -820.15836758 </i>
   <i name="e_0_energy">   -820.15854123 </i>
  </energy>
  <time name="totalsc"> 2130.21 2159.51</time>
 </calculation>
 <calculation>
  <scstep>
   <time name="dav">  300.61  304.72</time>
   <time name="total">  304.00  308.15</time>
   <energy>
    <i name="alphaZ">    175.06488379 </i>
    <i name="ewald">  36222.81319382 </i>
    <i name="hartreedc"> -48418.35190420 </i>
    <i name="XCdc">   1292.67841734 </i>
    <i name="pawpsdc">  37035.38707219 </i>
    <i name="pawaedc"> -37102.84435856 </i>
    <i name="eentropy">     -0.00034847 </i>
    <i name="bandstr">  -4363.09034641 </i>
    <i name="atom">  14345.53195627 </i>
    <i name="e_fr_energy">   -812.81143423 </i>
    <i name="e_wo_entrp">   -812.81108576 </i>
    <i name="e_0_energy">   -812.81126000 </i>
   </energy>
  </scstep>
  <scstep>
   <time name="dav">  328.98  333.56</time>
   <time name="total">  332.45  337.08</time>
   <energy>
    <i name="e_fr_energy">   -812.81144915 </i>
    <i name="e_wo_entrp">   -812.81110091 </i>
    <i name="e_0_energy">   -812.81127503 </i>
   </energy>
  </scstep>
  <scstep>
   <time name="dav">  335.72  340.50</time>
   <time name="total">  339.19  344.00</time>
   <energy>
    <i name="e_fr_energy">   -812.81144258 </i>
    <i name="e_wo_entrp">   -812.81109440 </i>
    <i name="e_0_energy">   -812.81126849 </i>
   </energy>
  </scstep>
  <scstep>
   <time name="dav">  309.40  313.65</time>
   <time name="total">  312.86  317.15</time>
   <energy>
    <i name="e_fr_energy">   -812.81143977 </i>
    <i name="e_wo_entrp">   -812.81109168 </i>
    <i name="e_0_energy">   -812.81126573 </i>
   </energy>
  </scstep>
  <scstep>
   <time name="dav">  275.63  279.51</time>
   <time name="total">  276.35  280.24</time>
   <energy>
    <i name="alphaZ">    175.06488379 </i>
    <i name="ewald">  36222.81319382 </i>
    <i name="hartreedc"> -48418.36741350 </i>
    <i name="XCdc">   1292.67885080 </i>
    <i name="pawpsdc">  37035.75108554 </i>
    <i name="pawaedc"> -37103.20843786 </i>
    <i name="eentropy">     -0.00034807 </i>
    <i name="bandstr">  -4363.07521055 </i>
    <i name="atom">  14345.53195627 </i>
    <i name="e_fr_energy">   -812.81143976 </i>
    <i name="e_wo_entrp">   -812.81109169 </i>
    <i name="e_0_energy">   -812.81126572 </i>
   </energy>
  </scstep>
  <structure>
   <crystal>
    <varray name="basis" >
     <v>      17.27103806       0.00000000       0.00000000 </v>
     <v>      -8.63551903      14.95715771       0.00000000 </v>
     <v>       0.00000000       0.00000000      15.00000000 </v>
    </varray>
    <i name="volume">   3874.88459904 </i>
    <varray name="rec_basis" >
     <v>       0.05790040       0.03342881       0.00000000 </v>
     <v>       0.00000000       0.06685762       0.00000000 </v>
     <v>       0.00000000       0.00000000       0.06666667 </v>
    </varray>
   </crystal>
   <varray name="positions" >
    <v>       0.99990090       0.99978726       0.50045484 </v>
    <v>       0.99924656       0.14219023       0.50036321 </v>
    <v>       0.99902682       0.28519239       0.50078788 </v>
    <v>       0.99925316       0.42840850       0.50076094 </v>
    <v>       0.99991538       0.57147441       0.50016432 </v>
[...]
   <v>      -0.00017595       0.00630430      -0.00289321 </v>
   <v>      -0.00013983       0.00247443       0.00023535 </v>
   <v>       0.00037114       0.00004298      -0.00165090 </v>
   <v>      -0.00016186      -0.00183062      -0.00721018 </v>
   <v>      -0.00654694       0.00372229      -0.00218678 </v>
   <v>      -0.00601492      -0.00091687       0.00321644 </v>
   <v>      -0.00057779       0.00772642       0.00129668 </v>
   <v>       0.00267168       0.00467624      -0.00331660 </v>
   <v>      -0.00315356       0.00048474      -0.00438554 </v>
   <v>       0.00015182      -0.00111841      -0.00095453 </v>
   <v>      -0.00137119      -0.00668424       0.00158390 </v>
   <v>      -0.00006940      -0.00230441       0.00041410 </v>
   <v>      -0.00248318      -0.00031613      -0.00210660 </v>
   <v>       0.00061242      -0.00129281      -0.00064291 </v>
   <v>       0.00196482       0.00429906      -0.00086659 </v>
   <v>      -0.00016916       0.00013872       0.00302709 </v>
   <v>      -0.00253127      -0.00341441       0.00371243 </v>
   <v>      -0.00604732      -0.00198318       0.00067531 </v>
   <v>      -0.00023391       0.00061953       0.00293391 </v>
   <v>       0.00082694      -0.00072137       0.00344026 </v>
   <v>       0.00164417       0.00086885      -0.00208966 </v>
   <v>       0.00266313       0.00054951      -0.00457712 </v>
   <v>      -0.00056960      -0.00130030      -0.00281561 </v>
   <v>      -0.00350144       0.00049752      -0.00452104 </v>
   <v>       0.00388998      -0.00178073       0.00187431 </v>
   <v>      -0.00164818      -0.00182947       0.00541483 </v>
   <v>      -0.00125518      -0.00393647      -0.00234604 </v>
   <v>      -0.00131223       0.00009057      -0.00366908 </v>
   <v>       0.00681323      -0.00319199      -0.00118781 </v>
   <v>       0.00154612       0.00152831      -0.00271017 </v>
   <v>      -0.00008643      -0.00011233       0.00002737 </v>
   <v>      -0.00049426      -0.00428606       0.00063133 </v>
   <v>       0.00513249       0.00114974      -0.00580960 </v>
   <v>       0.00554569       0.00021718      -0.00079932 </v>
   <v>       0.00393539      -0.00011743       0.00361028 </v>
   <v>       0.00069840      -0.00399034      -0.00077141 </v>
   <v>       0.00486043       0.00400939       0.00035267 </v>
   <v>       0.00359277       0.00103685       0.00217814 </v>
   <v>       0.00423285       0.00225029      -0.00345684 </v>
   <v>       0.00075630       0.00110397       0.00147660 </v>
   <v>      -0.00263275      -0.00016842      -0.00272943 </v>
   <v>      -0.00244288      -0.00335330       0.00004251 </v>
   <v>       0.00348456       0.00106054      -0.00213103 </v>
   <v>       0.00144895       0.00382516      -0.00279839 </v>
   <v>       0.00889548      -0.00187586      -0.00134039 </v>
   <v>       0.00061225      -0.00127571      -0.00032741 </v>
   <v>       0.00407735      -0.00400536       0.00760762 </v>
   <v>       0.00271770       0.00839247       0.00308728 </v>
   <v>       0.00589731       0.00769385       0.00384652 </v>
   <v>       0.00111935      -0.00483424      -0.00265562 </v>
   <v>      -0.00120348      -0.00311205       0.00280586 </v>
   <v>      -0.00210025      -0.00455515      -0.00173179 </v>
   <v>       0.00364163      -0.00497681      -0.00207350 </v>
   <v>       0.00260548      -0.00675604       0.04448066 </v>
  </varray>
  <varray name="stress" >
   <v>     -12.93415552       3.88104502       0.00193056 </v>
   <v>       3.88104524     -17.39640520      -0.00814358 </v>
   <v>       0.00193068      -0.00814380      -0.22972010 </v>
  </varray>
  <energy>
   <i name="e_fr_energy">   -820.16209320 </i>
   <i name="e_wo_entrp">   -820.16174984 </i>
   <i name="e_0_energy">   -820.16192152 </i>
  </energy>
  <time name="totalsc"> 2288.18 2320.56</time>
 </calculation>
 <calculation>
  <scstep>
   <time name="dav">  274.90  278.81</time>
   <time name="total">  278.31  282.25</time>
   <energy>
    <i name="alphaZ">    175.06488379 </i>
    <i name="ewald">  36229.11581789 </i>
    <i name="hartreedc"> -48424.75743922 </i>
    <i name="XCdc">   1292.71112249 </i>
    <i name="pawpsdc">  37041.97661134 </i>
    <i name="pawaedc"> -37109.43724045 </i>
    <i name="eentropy">     -0.00034177 </i>
    <i name="bandstr">  -4363.01952170 </i>
    <i name="atom">  14345.53195627 </i>
    <i name="e_fr_energy">   -812.81415135 </i>
    <i name="e_wo_entrp">   -812.81380958 </i>
    <i name="e_0_energy">   -812.81398046 </i>
   </energy>
  </scstep>
  <scstep>
   <time name="dav">  296.61  300.88</time>
   <time name="total">  300.05  304.36</time>
   <energy>
    <i name="e_fr_energy">   -812.81419749 </i>
    <i name="e_wo_entrp">   -812.81385585 </i>
    <i name="e_0_energy">   -812.81402667 </i>
   </energy>
  </scstep>
  <scstep>
   <time name="dav">  359.71  364.86</time>
   <time name="total">  363.17  368.37</time>
   <energy>
    <i name="e_fr_energy">   -812.81418954 </i>
    <i name="e_wo_entrp">   -812.81384780 </i>
    <i name="e_0_energy">   -812.81401867 </i>
   </energy>
  </scstep>
  <scstep>
   <time name="dav">  276.99  281.06</time>
   <time name="total">  280.38  284.56</time>
   <energy>
    <i name="e_fr_energy">   -812.81418929 </i>
    <i name="e_wo_entrp">   -812.81384748 </i>
    <i name="e_0_energy">   -812.81401839 </i>
   </energy>
  </scstep>
  <scstep>
   <time name="dav">  304.69  309.07</time>
   <time name="total">  308.14  312.56</time>
   <energy>
    <i name="e_fr_energy">   -812.81419035 </i>
    <i name="e_wo_entrp">   -812.81384857 </i>
    <i name="e_0_energy">   -812.81401946 </i>
   </energy>
  </scstep>
  <scstep>
   <time name="dav">  212.20  215.21</time>
   <time name="total">  212.91  215.95</time>
   <energy>
    <i name="alphaZ">    175.06488379 </i>
    <i name="ewald">  36229.11581789 </i>
    <i name="hartreedc"> -48424.78665664 </i>
    <i name="XCdc">   1292.71202211 </i>
    <i name="pawpsdc">  37042.38690771 </i>
    <i name="pawaedc"> -37109.84793087 </i>
    <i name="eentropy">     -0.00034184 </i>
    <i name="bandstr">  -4362.99084902 </i>
    <i name="atom">  14345.53195627 </i>
    <i name="e_fr_energy">   -812.81419059 </i>
    <i name="e_wo_entrp">   -812.81384875 </i>
    <i name="e_0_energy">   -812.81401967 </i>
   </energy>
  </scstep>
  <structure>
   <crystal>
    <varray name="basis" >
     <v>      17.27103806       0.00000000       0.00000000 </v>
     <v>      -8.63551903      14.95715771       0.00000000 </v>
     <v>       0.00000000       0.00000000      15.00000000 </v>
    </varray>
    <i name="volume">   3874.88459904 </i>
    <varray name="rec_basis" >
     <v>       0.05790040       0.03342881       0.00000000 </v>
     <v>       0.00000000       0.06685762       0.00000000 </v>
     <v>       0.00000000       0.00000000       0.06666667 </v>
    </varray>
   </crystal>
   <varray name="positions" >
    <v>       0.99990783       0.99986818       0.50005014 </v>
    <v>       0.99919683       0.14222845       0.50018387 </v>
    <v>       0.99897304       0.28520536       0.50000093 </v>
    <v>       0.99918485       0.42840457       0.49974404 </v>
    <v>       0.99991162       0.57152032       0.49977070 </v>
    <v>       0.00135185       0.71484286       0.49995351 </v>
    <v>       0.00136438       0.85802071       0.49997449 </v>
    <v>       0.14429719       0.00166932       0.49974086 </v>
    <v>       0.14372698       0.14427562       0.49977541 </v>
    <v>       0.14215886       0.28546152       0.49958916 </v>
    <v>       0.14215833       0.42814211       0.49922885 </v>
    <v>       0.14369933       0.57089765       0.49914691 </v>
    <v>       0.14425508       0.71411322       0.49946213 </v>
    <v>       0.14429191       0.85790469       0.49970791 </v>
    <v>       0.28687617       0.00115266       0.49921418 </v>
    <v>       0.28760550       0.14597317       0.49889235 </v>
    <v>       0.28857504       0.29339624       0.49779133 </v>
    <v>       0.28505616       0.42821254       0.49706791 </v>
    <v>       0.28861203       0.56663925       0.49742456 </v>
    <v>       0.28752973       0.71309272       0.49834976 </v>
    <v>       0.28683507       0.85724346       0.49900705 </v>
    <v>       0.42944268       0.00051558       0.49881698 </v>
    <v>       0.42952753       0.14535509       0.49898364 </v>
    <v>       0.42946913       0.85572531       0.49823745 </v>
    <v>       0.57129488       0.99926204       0.49867533 </v>
    <v>       0.57131391       0.14365045       0.49910101 </v>
    <v>       0.57359832       0.29135851       0.49904894 </v>
    <v>       0.57356338       0.85383989       0.49786779 </v>
    <v>       0.71337291       0.99807446       0.49891605 </v>
    <v>       0.71375521       0.14265870       0.49939511 </v>
    <v>       0.71340785       0.28689708       0.49929726 </v>
    <v>       0.70898972       0.42783958       0.49862574 </v>
    <v>       0.70895986       0.85275955       0.49783489 </v>
    <v>       0.85599169       0.99840429       0.49945020 </v>
    <v>       0.85601804       0.14198290       0.49984264 </v>
    <v>       0.85602838       0.28555678       0.49975589 </v>
    <v>       0.85599408       0.42911888       0.49951002 </v>
    <v>       0.85628389       0.57226292       0.49941608 </v>
    <v>       0.85863541       0.71508902       0.49912958 </v>
    <v>       0.85627353       0.85554048       0.49908340 </v>
    <v>       0.04789079       0.09552609       0.50014828 </v>
    <v>       0.04646543       0.23737718       0.50007520 </v>
    <v>       0.04646085       0.38052356       0.49975222 </v>
    <v>       0.04787693       0.52381068       0.49959685 </v>
    <v>       0.04859475       0.66692607       0.49982573 </v>
    <v>       0.04885261       0.81017812       0.49997850 </v>
    <v>       0.04862330       0.95317984       0.50000371 </v>
    <v>       0.19186721       0.09705400       0.49943767 </v>
    <v>       0.19152127       0.23985735       0.49932444 </v>
    <v>       0.18914929       0.38029212       0.49895061 </v>
    <v>       0.19152667       0.52312314       0.49870707 </v>
    <v>       0.19179805       0.66627848       0.49896676 </v>
    <v>       0.19177468       0.80984810       0.49939202 </v>
    <v>       0.19180967       0.95346158       0.49953736 </v>
    <v>       0.33448184       0.09740049       0.49902484 </v>
    <v>       0.33884465       0.24271529       0.49827776 </v>
    <v>       0.33882423       0.66765332       0.49764186 </v>
    <v>       0.33440969       0.80857152       0.49852916 </v>
    <v>       0.33405583       0.95280345       0.49903001 </v>
    <v>       0.47653987       0.09624866       0.49898039 </v>
    <v>       0.47429352       0.24168491       0.49894670 </v>
    <v>       0.47423208       0.80416342       0.49781436 </v>
    <v>       0.47652297       0.95187426       0.49851378 </v>
    <v>       0.61838443       0.09499218       0.49907741 </v>
    <v>       0.61836181       0.23980293       0.49917356 </v>
    <v>       0.61832230       0.95016444       0.49846536 </v>
    <v>       0.76095907       0.09432095       0.49945560 </v>
    <v>       0.76096992       0.23820377       0.49953761 </v>
    <v>       0.76026229       0.38235047       0.49916570 </v>
    <v>       0.75921582       0.52879463       0.49813864 </v>
    <v>       0.76271120       0.66714107       0.49729301 </v>
    <v>       0.75918982       0.80198201       0.49763620 </v>
    <v>       0.76025592       0.94950489       0.49875932 </v>
    <v>       0.90352979       0.09377204       0.49991787 </v>
    <v>       0.90353348       0.23751956       0.49994548 </v>
    <v>       0.90352583       0.38126487       0.49974241 </v>
    <v>       0.90409330       0.52447632       0.49967240 </v>
    <v>       0.90564632       0.66724277       0.49962929 </v>
    <v>       0.90564623       0.80994037       0.49950991 </v>
    <v>       0.90408136       0.95113462       0.49963172 </v>
    <v>       0.42867373       0.28658220       0.49855761 </v>
    <v>       0.42860752       0.71367265       0.49748903 </v>
    <v>       0.71599544       0.57522928       0.49624547 </v>
    <v>       0.71594773       0.71230271       0.49615568 </v>
    <v>       0.33179129       0.38304599       0.49584121 </v>
    <v>       0.33182702       0.52015245       0.49606416 </v>
    <v>       0.61917536       0.38186750       0.49879000 </v>
    <v>       0.61916767       0.80896186       0.49746804 </v>
    <v>       0.51919096       0.57367484       0.56577058 </v>
    <v>       0.52170646       0.48652966       0.56300845 </v>
    <v>       0.52171459       0.52984353       0.60466391 </v>
   </varray>
  </structure>
  <varray name="forces" >
   <v>       0.00341193       0.00449079      -0.00349141 </v>
   <v>      -0.00339136       0.00231122      -0.00389194 </v>
   <v>      -0.00474164       0.00471351       0.00039302 </v>
   <v>      -0.00338432       0.01243242      -0.00039808 </v>
   <v>       0.00224090       0.00325966      -0.00054199 </v>
   <v>      -0.00046327       0.01195698      -0.00251728 </v>
   <v>       0.00680093      -0.00289198      -0.00067403 </v>
   <v>      -0.00002422      -0.00345235      -0.00233140 </v>
   <v>      -0.00369048       0.00224729      -0.00033924 </v>
   <v>       0.00230816      -0.00337985      -0.00462630 </v>
   <v>       0.00337170       0.01081713       0.00015666 </v>
   <v>       0.00512225       0.00630253      -0.00186024 </v>
   <v>      -0.00145274       0.00428420      -0.00221628 </v>
   <v>      -0.00599105      -0.00070305       0.00022980 </v>
   <v>      -0.00017230      -0.00436306       0.00207886 </v>
   <v>      -0.00826751       0.00403254       0.00190558 </v>
   <v>      -0.00544957      -0.00159055       0.00176072 </v>
   <v>      -0.00838384       0.00837257      -0.00316773 </v>
   <v>      -0.00824942      -0.00441449       0.00371890 </v>
   <v>      -0.00533722       0.00722905       0.00283430 </v>
   <v>       0.00449740       0.00288393      -0.00146545 </v>
   <v>      -0.00037596      -0.00355226       0.00153252 </v>
   <v>      -0.01616820       0.00084252      -0.00275693 </v>
   <v>      -0.00549341      -0.01117072      -0.00005772 </v>
   <v>       0.00118709       0.00370813      -0.00159486 </v>
   <v>       0.00361933       0.00387146      -0.00307033 </v>
   <v>      -0.00935378      -0.00509169      -0.00186148 </v>
   <v>      -0.00502833      -0.00591810       0.00376576 </v>
   <v>      -0.00516309       0.00429267      -0.00160325 </v>
   <v>       0.00144215       0.00671895      -0.00099923 </v>
   <v>      -0.00710942      -0.00498662       0.00372496 </v>
   <v>       0.00524216      -0.00081603      -0.00380724 </v>
   <v>       0.00651729       0.00397450       0.00202253 </v>
   <v>      -0.01212969       0.00155856       0.00144916 </v>
   <v>       0.00368270       0.00505884      -0.00452238 </v>
   <v>       0.00114766       0.00075789       0.00168666 </v>
   <v>      -0.00494849      -0.00314930       0.00052327 </v>
   <v>      -0.00252447       0.00830836      -0.00257121 </v>
   <v>       0.00133453       0.00342983      -0.00000586 </v>
   <v>      -0.00514618      -0.00098565      -0.00164051 </v>
   <v>       0.00352630      -0.00354514      -0.00696293 </v>
   <v>      -0.01354000       0.00135333      -0.00236513 </v>
   <v>      -0.00899739      -0.00924716       0.00276222 </v>
   <v>      -0.00423089       0.00683337       0.00206665 </v>
   <v>       0.00387781       0.00399390      -0.00329907 </v>
   <v>      -0.00344446       0.00014962      -0.00411028 </v>
   <v>       0.00304424      -0.00269734      -0.00070488 </v>
   <v>      -0.00086258      -0.01095123       0.00182966 </v>
   <v>       0.00330954      -0.00292921      -0.00017545 </v>
   <v>       0.00411332       0.00519603      -0.00230698 </v>
   <v>       0.00587648       0.00044354      -0.00130992 </v>
   <v>       0.00191819       0.00151726      -0.00114072 </v>
   <v>      -0.00349624       0.00098057       0.00364370 </v>
   <v>      -0.00576386      -0.00818118       0.00384021 </v>
   <v>      -0.00400185       0.00307865       0.00060049 </v>
   <v>       0.00334814      -0.00334594       0.00232349 </v>
   <v>      -0.00432054      -0.00591959       0.00244817 </v>
   <v>       0.00687408       0.00412805      -0.00289825 </v>
   <v>       0.00659015      -0.00293756      -0.00438866 </v>
   <v>       0.00053060       0.00071431      -0.00211644 </v>
   <v>      -0.00300308       0.00527193      -0.00488150 </v>
   <v>       0.00259604       0.00166743       0.00181404 </v>
   <v>      -0.00653424      -0.00946389       0.00544537 </v>
   <v>      -0.00212655      -0.00172062      -0.00193534 </v>
   <v>       0.00589026      -0.00215476      -0.00318350 </v>
   <v>       0.01650671      -0.00430430      -0.00043928 </v>
   <v>      -0.00153439      -0.00315371      -0.00299045 </v>
   <v>      -0.00199251      -0.00378451      -0.00018317 </v>
   <v>       0.00062688      -0.00278021       0.00019929 </v>
   <v>       0.01245246       0.00537637      -0.00532782 </v>
   <v>       0.01169402       0.00095083      -0.00055007 </v>
   <v>       0.00436582       0.00389831       0.00336046 </v>
   <v>       0.00336263      -0.00979617      -0.00085828 </v>
   <v>       0.00652494       0.00293095       0.00037635 </v>
   <v>       0.00592134      -0.00080885       0.00218446 </v>
   <v>       0.00588675       0.00144730      -0.00329532 </v>
   <v>       0.00036786       0.00054529       0.00186218 </v>
   <v>      -0.00360677      -0.00541751      -0.00264724 </v>
   <v>      -0.00004314      -0.00489042      -0.00034039 </v>
   <v>       0.00543371      -0.00498972      -0.00290798 </v>
   <v>       0.00465251       0.00038428      -0.00256865 </v>
   <v>       0.01601281       0.00311464      -0.00110891 </v>
   <v>      -0.00651370      -0.00282576      -0.00075296 </v>
   <v>       0.00210083      -0.00713052       0.00730511 </v>
   <v>       0.00102826       0.01038578       0.00252275 </v>
   <v>       0.00749579       0.00367331       0.00407686 </v>
   <v>      -0.00357346      -0.00844138      -0.00251394 </v>
   <v>      -0.00198334      -0.00159833       0.00297270 </v>
   <v>      -0.00518429       0.00011416      -0.00555420 </v>
   <v>       0.00358515      -0.00488771      -0.00172756 </v>
   <v>       0.00575344      -0.01163631       0.04814078 </v>
  </varray>
  <varray name="stress" >
   <v>     -12.93131957       3.88272358       0.00273555 </v>
   <v>       3.88272381     -17.38905925      -0.00933840 </v>
   <v>       0.00273567      -0.00933864      -0.22862637 </v>
  </varray>
  <energy>
   <i name="e_fr_energy">   -820.16212128 </i>
   <i name="e_wo_entrp">   -820.16177945 </i>
   <i name="e_0_energy">   -820.16195037 </i>
  </energy>
  <time name="totalsc"> 2287.87 2320.43</time>
 </calculation>
 <calculation>
  <scstep>
   <time name="dav">  275.08  278.94</time>
   <time name="total">  278.42  282.38</time>
   <energy>
    <i name="alphaZ">    175.06488379 </i>
    <i name="ewald">  36229.21601650 </i>
    <i name="hartreedc"> -48424.90575439 </i>
    <i name="XCdc">   1292.71125620 </i>
    <i name="pawpsdc">  37042.40268681 </i>
    <i name="pawaedc"> -37109.86370978 </i>
    <i name="eentropy">     -0.00034201 </i>
    <i name="bandstr">  -4362.97120109 </i>
    <i name="atom">  14345.53195627 </i>
    <i name="e_fr_energy">   -812.81420769 </i>
    <i name="e_wo_entrp">   -812.81386568 </i>
    <i name="e_0_energy">   -812.81403668 </i>
   </energy>
  </scstep>
  <scstep>
   <time name="dav">  294.21  298.28</time>
   <time name="total">  297.56  301.72</time>
   <energy>
    <i name="e_fr_energy">   -812.81425673 </i>
    <i name="e_wo_entrp">   -812.81391469 </i>
    <i name="e_0_energy">   -812.81408571 </i>
   </energy>
  </scstep>
  <scstep>
