unknown system                          
           1
    17.271038    0.000000    0.000000
    -8.635519   14.957158    0.000000
     0.000000    0.000000   15.000000
   C    N    H    O 
    80     8     2     1
Direct configuration=     1
   0.99989724  0.99977298  0.50047019
   0.99925579  0.14222416  0.50035684
   0.99900982  0.28516500  0.50079354
   0.99925695  0.42837567  0.50077804
   0.99991344  0.57144935  0.50016780
   0.00138646  0.71483281  0.49997641
   0.00133548  0.85790490  0.50041357
   0.14428782  0.00145797  0.50093817
   0.14376780  0.14418374  0.50034145
   0.14218667  0.28535267  0.49951136
   0.14221997  0.42804597  0.49900512
   0.14380077  0.57087626  0.49888451
   0.14430455  0.71408520  0.49966538
   0.14428016  0.85775774  0.50071880
   0.28680260  0.00098122  0.50050299
   0.28754537  0.14579318  0.49984272
   0.28858722  0.29328551  0.49769174
   0.28502402  0.42809520  0.49595689
   0.28862205  0.56654211  0.49600535
   0.28755845  0.71302535  0.49760716
   0.28684511  0.85713398  0.49949203
   0.42934538  0.00045363  0.49922450
   0.42941660  0.14527561  0.49957659
   0.42941063  0.85567517  0.49759703
   0.57127510  0.99923968  0.49845934
   0.57130850  0.14373633  0.49937061
   0.57351010  0.29137992  0.49884656
   0.57354306  0.85380087  0.49692326
   0.71337415  0.99810991  0.49877791
   0.71372602  0.14271346  0.50019150
   0.71337189  0.28694982  0.50025932
   0.70896909  0.42790056  0.49838066
   0.70898401  0.85277518  0.49718938
   0.85594532  0.99842683  0.49937585
   0.85611627  0.14204258  0.50053771
   0.85607909  0.28562614  0.50137671
   0.85591893  0.42909159  0.50055657
   0.85625962  0.57231694  0.49925891
   0.85858120  0.71512400  0.49879896
   0.85622117  0.85552157  0.49879519
   0.04793444  0.09546862  0.50043361
   0.04649505  0.23732550  0.50028383
   0.04651469  0.38047429  0.50040986
   0.04794526  0.52379223  0.50004096
   0.04864322  0.66687794  0.49998686
   0.04891662  0.81012991  0.50050016
   0.04861204  0.95303840  0.50079442
   0.19183508  0.09687109  0.50046314
   0.19152108  0.23974343  0.49944776
   0.18916721  0.38016518  0.49839672
   0.19154600  0.52302599  0.49797310
   0.19188321  0.66627203  0.49868063
   0.19176612  0.80974603  0.50001042
   0.19175766  0.95327472  0.50089324
   0.33436583  0.09716200  0.50009745
   0.33878675  0.24256978  0.49860283
   0.33884998  0.66757409  0.49618952
   0.33439300  0.80851757  0.49821545
   0.33403299  0.95267880  0.49983962
   0.47647342  0.09627012  0.49937779
   0.47422827  0.24169757  0.49900121
   0.47427028  0.80413383  0.49658562
   0.47640983  0.95176538  0.49834293
   0.61836202  0.09501879  0.49935188
   0.61830592  0.23982011  0.49955385
   0.61828826  0.95016736  0.49796969
   0.76098867  0.09436708  0.49997790
   0.76096914  0.23829794  0.50089957
   0.76023203  0.38241052  0.49988894
   0.75919315  0.52883508  0.49774037
   0.76262991  0.66712020  0.49678289
   0.75914883  0.80197566  0.49712200
   0.76027095  0.94951053  0.49840831
   0.90359649  0.09380511  0.50017451
   0.90361438  0.23757464  0.50118970
   0.90357818  0.38130802  0.50121039
   0.90403611  0.52447288  0.50017291
   0.90562777  0.66730331  0.49930778
   0.90562208  0.80994694  0.49943404
   0.90402082  0.95108362  0.49961176
   0.42861233  0.28653852  0.49840748
   0.42867329  0.71364594  0.49573341
   0.71591759  0.57522524  0.49560104
   0.71587034  0.71227260  0.49555356
   0.33179802  0.38295385  0.49499338
   0.33182036  0.52003591  0.49442896
   0.61911867  0.38188087  0.49816003
   0.61916941  0.80896719  0.49650444
   0.51996741  0.57512649  0.56582802
   0.52186307  0.48771263  0.56287125
   0.52150390  0.53072597  0.60466391
Direct configuration=     2
   0.99989937  0.99978129  0.50046125
   0.99925042  0.14220441  0.50036055
   0.99901972  0.28518095  0.50079024
   0.99925474  0.42839478  0.50076808
   0.99991457  0.57146393  0.50016578
   0.00137768  0.71482046  0.49998307
   0.00134604  0.85791672  0.50041515
   0.14427428  0.00148211  0.50093472
   0.14375088  0.14416822  0.50033361
   0.14217856  0.28535287  0.49950419
   0.14220888  0.42805583  0.49900029
   0.14378261  0.57087280  0.49888657
   0.14429396  0.71406445  0.49966121
   0.14428632  0.85777208  0.50071121
   0.28680536  0.00097096  0.50049673
   0.28754459  0.14580180  0.49984292
   0.28857470  0.29329046  0.49768601
   0.28504116  0.42810477  0.49596154
   0.28862206  0.56654263  0.49601055
   0.28756840  0.71303707  0.49761351
   0.28683305  0.85714088  0.49948666
   0.42938056  0.00046827  0.49922065
   0.42942275  0.14529163  0.49957101
   0.42942567  0.85566063  0.49760323
   0.57125233  0.99924442  0.49846187
   0.57128433  0.14369765  0.49937761
   0.57351819  0.29137381  0.49885597
   0.57355130  0.85381803  0.49692187
   0.71337036  0.99810776  0.49877533
   0.71374844  0.14271757  0.50018822
   0.71336534  0.28694637  0.50025283
   0.70895944  0.42788767  0.49839278
   0.70897443  0.85277247  0.49719070
   0.85597204  0.99842412  0.49937768
   0.85609042  0.14203459  0.50053963
   0.85606898  0.28561295  0.50136749
   0.85595015  0.42911628  0.50055404
   0.85626439  0.57231713  0.49926248
   0.85858375  0.71511150  0.49879514
   0.85622425  0.85552294  0.49880454
   0.04792273  0.09545686  0.50044088
   0.04649427  0.23733192  0.50029272
   0.04651060  0.38047037  0.50041067
   0.04794345  0.52379111  0.50004323
   0.04862618  0.66687643  0.49998682
   0.04887699  0.81011018  0.50049631
   0.04860400  0.95304529  0.50078873
   0.19183259  0.09686969  0.50046280
   0.19153664  0.23974744  0.49945002
   0.18916997  0.38017576  0.49840194
   0.19156047  0.52303452  0.49798122
   0.19186850  0.66625203  0.49867845
   0.19178156  0.80975605  0.50001331
   0.19176537  0.95327695  0.50088976
   0.33438426  0.09720620  0.50009432
   0.33878528  0.24256951  0.49859624
   0.33885559  0.66757952  0.49619517
   0.33440019  0.80850121  0.49821008
   0.33402040  0.95268061  0.49983677
   0.47648411  0.09625028  0.49937793
   0.47422023  0.24166964  0.49899636
   0.47424764  0.80413214  0.49658967
   0.47644324  0.95180245  0.49834509
   0.61835369  0.09501331  0.49935124
   0.61831873  0.23983789  0.49954858
   0.61831089  0.95016466  0.49797404
   0.76098882  0.09437105  0.49997466
   0.76097065  0.23828102  0.50089072
   0.76022084  0.38239302  0.49988469
   0.75919483  0.52883439  0.49773487
   0.76264578  0.66712974  0.49677623
   0.75915191  0.80197023  0.49711922
   0.76025276  0.94951358  0.49841318
   0.90358593  0.09379899  0.50017315
   0.90359563  0.23756256  0.50118199
   0.90357105  0.38130533  0.50120403
   0.90405191  0.52447386  0.50016648
   0.90563502  0.66729259  0.49931929
   0.90561738  0.80993361  0.49943094
   0.90403917  0.95110197  0.49960964
   0.42860605  0.28653652  0.49841113
   0.42866724  0.71363943  0.49574118
   0.71592052  0.57522462  0.49560617
   0.71587283  0.71227828  0.49555988
   0.33179496  0.38294404  0.49499850
   0.33182075  0.52003853  0.49443435
   0.61912406  0.38188518  0.49816279
   0.61917816  0.80896705  0.49650709
   0.51996517  0.57512725  0.56582506
   0.52186222  0.48770249  0.56286715
   0.52150531  0.53072566  0.60466391
Direct configuration=     3
   0.99990090  0.99978726  0.50045484
   0.99924656  0.14219023  0.50036321
   0.99902682  0.28519239  0.50078788
   0.99925316  0.42840850  0.50076094
   0.99991538  0.57147441  0.50016432
   0.00137138  0.71481160  0.49998784
   0.00135361  0.85792521  0.50041629
   0.14426456  0.00149944  0.50093224
   0.14373873  0.14415708  0.50032799
   0.14217274  0.28535302  0.49949904
   0.14220092  0.42806291  0.49899682
   0.14376957  0.57087032  0.49888805
   0.14428636  0.71404956  0.49965822
   0.14429075  0.85778238  0.50070576
   0.28680734  0.00096360  0.50049225
   0.28754403  0.14580799  0.49984307
   0.28856572  0.29329400  0.49768189
   0.28505347  0.42811164  0.49596487
   0.28862207  0.56654300  0.49601428
   0.28757554  0.71304548  0.49761806
   0.28682440  0.85714584  0.49948281
   0.42940581  0.00047878  0.49921789
   0.42942716  0.14530313  0.49956701
   0.42943646  0.85565020  0.49760768
   0.57123599  0.99924783  0.49846369
   0.57126698  0.14366989  0.49938264
   0.57352399  0.29136942  0.49886273
   0.57355721  0.85383034  0.49692087
   0.71336763  0.99810622  0.49877348
   0.71376453  0.14272052  0.50018587
   0.71336063  0.28694390  0.50024817
   0.70895252  0.42787841  0.49840147
   0.70896756  0.85277052  0.49719166
   0.85599122  0.99842218  0.49937899
   0.85607187  0.14202886  0.50054101
   0.85606172  0.28560348  0.50136087
   0.85597256  0.42913400  0.50055223
   0.85626781  0.57231726  0.49926504
   0.85858558  0.71510253  0.49879239
   0.85622646  0.85552393  0.49881125
   0.04791433  0.09544842  0.50044610
   0.04649371  0.23733653  0.50029910
   0.04650766  0.38046756  0.50041125
   0.04794215  0.52379031  0.50004485
   0.04861396  0.66687533  0.49998680
   0.04884854  0.81009602  0.50049355
   0.04859823  0.95305023  0.50078464
   0.19183080  0.09686868  0.50046256
   0.19154780  0.23975032  0.49945164
   0.18917195  0.38018335  0.49840569
   0.19157085  0.52304065  0.49798706
   0.19185794  0.66623768  0.49867688
   0.19179264  0.80976324  0.50001539
   0.19177091  0.95327855  0.50088726
   0.33439749  0.09723792  0.50009207
   0.33878423  0.24256932  0.49859152
   0.33885961  0.66758341  0.49619923
   0.33440535  0.80848947  0.49820622
   0.33401136  0.95268191  0.49983472
   0.47649179  0.09623603  0.49937803
   0.47421447  0.24164959  0.49899287
   0.47423138  0.80413093  0.49659257
   0.47646723  0.95182906  0.49834665
   0.61834771  0.09500937  0.49935077
   0.61832792  0.23985065  0.49954479
   0.61832714  0.95016272  0.49797717
   0.76098893  0.09437389  0.49997233
   0.76097173  0.23826887  0.50088437
   0.76021281  0.38238046  0.49988165
   0.75919603  0.52883390  0.49773092
   0.76265718  0.66713659  0.49677145
   0.75915413  0.80196633  0.49711723
   0.76023971  0.94951576  0.49841667
   0.90357835  0.09379459  0.50017216
   0.90358218  0.23755389  0.50117645
   0.90356593  0.38130340  0.50119947
   0.90406324  0.52447456  0.50016187
   0.90564023  0.66728489  0.49932755
   0.90561401  0.80992405  0.49942871
   0.90405234  0.95111515  0.49960812
   0.42860154  0.28653509  0.49841375
   0.42866291  0.71363476  0.49574676
   0.71592262  0.57522417  0.49560985
   0.71587461  0.71228235  0.49556442
   0.33179276  0.38293699  0.49500217
   0.33182103  0.52004042  0.49443821
   0.61912792  0.38188827  0.49816477
   0.61918444  0.80896694  0.49650900
   0.51996357  0.57512780  0.56582293
   0.52186161  0.48769521  0.56286421
   0.52150632  0.53072543  0.60466391
Direct configuration=     4
   0.99990086  0.99979017  0.50044456
   0.99923548  0.14218616  0.50036926
   0.99901766  0.28519095  0.50078457
   0.99924421  0.42840882  0.50074949
   0.99991926  0.57148238  0.50016165
   0.00135804  0.71480448  0.49999669
   0.00134502  0.85792619  0.50041669
   0.14425960  0.00150752  0.50092762
   0.14373446  0.14415507  0.50032018
   0.14217658  0.28535956  0.49949289
   0.14220172  0.42807218  0.49899300
   0.14376416  0.57086180  0.49889125
   0.14427871  0.71404056  0.49965346
   0.14427743  0.85777968  0.50069658
   0.28681900  0.00098395  0.50048458
   0.28754507  0.14582136  0.49984205
   0.28855949  0.29329189  0.49767580
   0.28506155  0.42811796  0.49597210
   0.28862498  0.56654659  0.49602219
   0.28757319  0.71304032  0.49762490
   0.28683148  0.85714979  0.49947588
   0.42941239  0.00047802  0.49921358
   0.42943600  0.14530367  0.49955943
   0.42944543  0.85565515  0.49761501
   0.57125331  0.99925772  0.49846726
   0.57127132  0.14366376  0.49939019
   0.57352962  0.29136612  0.49887254
   0.57356374  0.85383641  0.49692059
   0.71337181  0.99811015  0.49877151
   0.71376480  0.14271411  0.50018052
   0.71336269  0.28693520  0.50023888
   0.70895207  0.42786822  0.49841435
   0.70896759  0.85277535  0.49719400
   0.85599028  0.99841995  0.49938100
   0.85605888  0.14202153  0.50054186
   0.85605412  0.28559453  0.50134803
   0.85597729  0.42913517  0.50054743
   0.85627132  0.57230914  0.49926868
   0.85859337  0.71509294  0.49878757
   0.85623426  0.85552413  0.49882059
   0.04790712  0.09544168  0.50045270
   0.04648786  0.23733144  0.50030855
   0.04650110  0.38048085  0.50040975
   0.04793442  0.52379942  0.50004622
   0.04861073  0.66687695  0.49998686
   0.04884054  0.81009355  0.50048937
   0.04859621  0.95306327  0.50077697
   0.19182218  0.09687440  0.50046095
   0.19153781  0.23974400  0.49945202
   0.18917316  0.38019457  0.49841049
   0.19157091  0.52304990  0.49799676
   0.19184770  0.66622808  0.49867468
   0.19178605  0.80975900  0.50001694
   0.19176696  0.95329086  0.50088166
   0.33440520  0.09725724  0.50008764
   0.33878065  0.24257481  0.49858380
   0.33886042  0.66758522  0.49620789
   0.33441546  0.80849360  0.49820129
   0.33402380  0.95268942  0.49982935
   0.47649029  0.09622503  0.49937813
   0.47421539  0.24164309  0.49898823
   0.47423007  0.80413042  0.49659855
   0.47647570  0.95183146  0.49834951
   0.61835001  0.09500618  0.49935084
   0.61832202  0.23983844  0.49954022
   0.61832583  0.95016497  0.49798165
   0.76098210  0.09437028  0.49996820
   0.76096969  0.23825745  0.50087232
   0.76022164  0.38237981  0.49987762
   0.75919967  0.52883203  0.49772682
   0.76266603  0.66713872  0.49676440
   0.75916097  0.80197118  0.49711629
   0.76024440  0.94951765  0.49842238
   0.90357185  0.09378753  0.50017146
   0.90357455  0.23754874  0.50116675
   0.90356674  0.38130582  0.50118981
   0.90407822  0.52448533  0.50015456
   0.90563843  0.66726827  0.49934140
   0.90561427  0.80991996  0.49942626
   0.90406637  0.95111744  0.49960593
   0.42859955  0.28652515  0.49841732
   0.42866001  0.71363083  0.49575691
   0.71592972  0.57522751  0.49561550
   0.71588159  0.71228279  0.49557114
   0.33179374  0.38293715  0.49500798
   0.33182744  0.52004615  0.49444561
   0.61912153  0.38188212  0.49817060
   0.61917761  0.80896511  0.49651172
   0.51996056  0.57512543  0.56582100
   0.52186037  0.48768781  0.56286430
   0.52150815  0.53072151  0.60466391
Direct configuration=     5
   0.99990080  0.99979584  0.50042453
   0.99921388  0.14217824  0.50038106
   0.99899978  0.28518814  0.50077811
   0.99922675  0.42840946  0.50072718
   0.99992683  0.57149793  0.50015645
   0.00133202  0.71479059  0.50001395
   0.00132827  0.85792811  0.50041745
   0.14424992  0.00152329  0.50091861
   0.14372613  0.14415114  0.50030496
   0.14218407  0.28537230  0.49948089
   0.14220327  0.42809026  0.49898555
   0.14375361  0.57084517  0.49889748
   0.14426377  0.71402300  0.49964417
   0.14425146  0.85777441  0.50067868
   0.28684174  0.00102365  0.50046962
   0.28754708  0.14584743  0.49984006
   0.28854736  0.29328778  0.49766394
   0.28507730  0.42813029  0.49598620
   0.28863066  0.56655358  0.49603764
   0.28756859  0.71303025  0.49763822
   0.28684530  0.85715750  0.49946236
   0.42942522  0.00047654  0.49920518
   0.42945325  0.14530472  0.49954464
   0.42946293  0.85566482  0.49762931
   0.57128710  0.99927703  0.49847423
   0.57127978  0.14365181  0.49940490
   0.57354060  0.29135970  0.49889168
   0.57357649  0.85384826  0.49692004
   0.71337997  0.99811780  0.49876767
   0.71376533  0.14270161  0.50017009
   0.71336670  0.28691822  0.50022075
   0.70895119  0.42784835  0.49843946
   0.70896764  0.85278477  0.49719858
   0.85598844  0.99841561  0.49938493
   0.85603354  0.14200723  0.50054353
   0.85603929  0.28557709  0.50132297
   0.85598653  0.42913746  0.50053808
   0.85627815  0.57229329  0.49927577
   0.85860857  0.71507424  0.49877816
   0.85624946  0.85552454  0.49883880
   0.04789307  0.09542854  0.50046558
   0.04647643  0.23732149  0.50032697
   0.04648830  0.38050676  0.50040684
   0.04791933  0.52381717  0.50004889
   0.04860442  0.66688011  0.49998698
   0.04882493  0.81008874  0.50048120
   0.04859226  0.95308872  0.50076202
   0.19180538  0.09688554  0.50045782
   0.19151832  0.23973168  0.49945276
   0.18917553  0.38021644  0.49841985
   0.19157103  0.52306793  0.49801568
   0.19182771  0.66620935  0.49867041
   0.19177319  0.80975073  0.50001996
   0.19175927  0.95331488  0.50087074
   0.33442025  0.09729494  0.50007901
   0.33877368  0.24258552  0.49856874
   0.33886200  0.66758876  0.49622478
   0.33443518  0.80850166  0.49819165
   0.33404805  0.95270405  0.49981889
   0.47648735  0.09620357  0.49937833
   0.47421719  0.24163041  0.49897916
   0.47422751  0.80412940  0.49661020
   0.47649223  0.95183614  0.49835511
   0.61835450  0.09499997  0.49935096
   0.61831051  0.23981461  0.49953131
   0.61832327  0.95016935  0.49799041
   0.76096877  0.09436323  0.49996014
   0.76096572  0.23823517  0.50084882
   0.76023887  0.38237855  0.49986976
   0.75920676  0.52882839  0.49771883
   0.76268331  0.66714287  0.49675065
   0.75917432  0.80198066  0.49711447
   0.76025355  0.94952133  0.49843350
   0.90355916  0.09377376  0.50017007
   0.90355967  0.23753870  0.50114784
   0.90356832  0.38131054  0.50117097
   0.90410741  0.52450634  0.50014029
   0.90563491  0.66723586  0.49936841
   0.90561477  0.80991200  0.49942148
   0.90409373  0.95112191  0.49960166
   0.42859565  0.28650578  0.49842429
   0.42865435  0.71362315  0.49577672
   0.71594356  0.57523403  0.49562652
   0.71589520  0.71228366  0.49558424
   0.33179564  0.38293746  0.49501931
   0.33183994  0.52005732  0.49446003
   0.61910907  0.38187011  0.49818196
   0.61916429  0.80896153  0.49651703
   0.51995469  0.57512081  0.56581724
   0.52185796  0.48767335  0.56286446
   0.52151172  0.53071387  0.60466391
Direct configuration=     6
   0.99990342  0.99980228  0.50041117
   0.99920646  0.14217516  0.50039269
   0.99899256  0.28519114  0.50077404
   0.99922023  0.42842350  0.50071134
   0.99993326  0.57151014  0.50015201
   0.00133118  0.71478928  0.50002833
   0.00132694  0.85793865  0.50041481
   0.14424611  0.00153104  0.50091032
   0.14370886  0.14415180  0.50029741
   0.14217796  0.28537777  0.49947782
   0.14219943  0.42810194  0.49898487
   0.14374234  0.57084529  0.49890406
   0.14425984  0.71402699  0.49963793
   0.14424650  0.85777895  0.50066553
   0.28684499  0.00104375  0.50045791
   0.28753829  0.14585982  0.49983541
   0.28854126  0.29328656  0.49765664
   0.28507797  0.42813692  0.49599925
   0.28863528  0.56656098  0.49605316
   0.28756050  0.71302764  0.49764641
   0.28684877  0.85715826  0.49945195
   0.42942714  0.00046571  0.49919947
   0.42946042  0.14529681  0.49953231
   0.42947195  0.85567510  0.49763878
   0.57129485  0.99927336  0.49848047
   0.57127973  0.14364512  0.49941319
   0.57353457  0.29134810  0.49890275
   0.57356731  0.85384425  0.49692312
   0.71337817  0.99811268  0.49876708
   0.71375231  0.14268996  0.50015970
   0.71336785  0.28690564  0.50020449
   0.70895289  0.42784270  0.49845392
   0.70896866  0.85278431  0.49720351
   0.85598980  0.99840627  0.49938800
   0.85603209  0.14199952  0.50054119
   0.85603928  0.28557941  0.50130019
   0.85599430  0.42914307  0.50052719
   0.85627814  0.57227559  0.49927981
   0.85861608  0.71506806  0.49877168
   0.85625796  0.85552623  0.49884764
   0.04788684  0.09543821  0.50047022
   0.04647004  0.23732630  0.50033782
   0.04648216  0.38050970  0.50039939
   0.04791319  0.52381573  0.50004761
   0.04860300  0.66688834  0.49998765
   0.04881232  0.81008986  0.50047620
   0.04858749  0.95308504  0.50074909
   0.19181000  0.09690039  0.50045270
   0.19150779  0.23973508  0.49944762
   0.18918007  0.38022641  0.49842408
   0.19157127  0.52306930  0.49802897
   0.19182727  0.66620611  0.49866849
   0.19176741  0.80974964  0.50001703
   0.19176131  0.95332812  0.50085929
   0.33442647  0.09730820  0.50007041
   0.33877228  0.24259441  0.49855858
   0.33885587  0.66758348  0.49624131
   0.33443610  0.80850463  0.49818772
   0.33405532  0.95271562  0.49980750
   0.47649662  0.09620718  0.49937782
   0.47422733  0.24163336  0.49897550
   0.47424115  0.80412860  0.49662155
   0.47650857  0.95183505  0.49836032
   0.61837194  0.09500552  0.49935282
   0.61831716  0.23980111  0.49952863
   0.61833611  0.95017957  0.49799546
   0.76096211  0.09435350  0.49995371
   0.76096065  0.23822608  0.50082782
   0.76024366  0.38236945  0.49986551
   0.75920774  0.52881702  0.49771875
   0.76269643  0.66714305  0.49674372
   0.75918090  0.80198699  0.49711814
   0.76025844  0.94952168  0.49844096
   0.90354326  0.09376912  0.50017157
   0.90354998  0.23752965  0.50113309
   0.90355499  0.38129616  0.50115226
   0.90410695  0.52449955  0.50013113
   0.90562699  0.66722167  0.49938739
   0.90561468  0.80990031  0.49942024
   0.90408563  0.95111358  0.49959934
   0.42859587  0.28649381  0.49842715
   0.42866084  0.71362990  0.49579364
   0.71595619  0.57523329  0.49563322
   0.71591240  0.71229080  0.49559167
   0.33179478  0.38293935  0.49502776
   0.33185088  0.52006913  0.49447374
   0.61911072  0.38186053  0.49819599
   0.61916633  0.80896555  0.49652028
   0.51994955  0.57510903  0.56581916
   0.52185574  0.48766398  0.56286728
   0.52151454  0.53071035  0.60466391
Direct configuration=     7
   0.99990594  0.99980848  0.50039829
   0.99919930  0.14217219  0.50040391
   0.99898560  0.28519404  0.50077011
   0.99921394  0.42843705  0.50069607
   0.99993946  0.57152192  0.50014774
   0.00133038  0.71478802  0.50004219
   0.00132567  0.85794882  0.50041225
   0.14424243  0.00153852  0.50090233
   0.14369221  0.14415243  0.50029014
   0.14217207  0.28538304  0.49947486
   0.14219572  0.42811320  0.49898422
   0.14373147  0.57084540  0.49891040
   0.14425605  0.71403084  0.49963191
   0.14424171  0.85778334  0.50065285
   0.28684812  0.00106315  0.50044662
   0.28752981  0.14587178  0.49983091
   0.28853538  0.29328539  0.49764959
   0.28507862  0.42814332  0.49601184
   0.28863975  0.56656811  0.49606814
   0.28755270  0.71302513  0.49765430
   0.28685211  0.85715900  0.49944190
   0.42942899  0.00045527  0.49919396
   0.42946735  0.14528919  0.49952042
   0.42948065  0.85568503  0.49764791
   0.57130233  0.99926983  0.49848648
   0.57127968  0.14363868  0.49942120
   0.57352876  0.29133691  0.49891343
   0.57355846  0.85384038  0.49692609
   0.71337644  0.99810774  0.49876652
   0.71373975  0.14267873  0.50014967
   0.71336895  0.28689350  0.50018880
   0.70895452  0.42783726  0.49846787
   0.70896964  0.85278386  0.49720826
   0.85599112  0.99839726  0.49939097
   0.85603068  0.14199209  0.50053893
   0.85603927  0.28558165  0.50127821
   0.85600179  0.42914849  0.50051669
   0.85627813  0.57225852  0.49928370
   0.85862332  0.71506211  0.49876543
   0.85626617  0.85552786  0.49885616
   0.04788083  0.09544755  0.50047470
   0.04646388  0.23733093  0.50034830
   0.04647624  0.38051253  0.50039219
   0.04790727  0.52381434  0.50004638
   0.04860162  0.66689627  0.49998830
   0.04880015  0.81009095  0.50047137
   0.04858288  0.95308150  0.50073662
   0.19181446  0.09691472  0.50044776
   0.19149762  0.23973837  0.49944267
   0.18918446  0.38023602  0.49842817
   0.19157150  0.52307061  0.49804179
   0.19182684  0.66620298  0.49866663
   0.19176183  0.80974858  0.50001421
   0.19176328  0.95334090  0.50084825
   0.33443246  0.09732099  0.50006212
   0.33877093  0.24260298  0.49854877
   0.33884996  0.66757840  0.49625725
   0.33443699  0.80850750  0.49818392
   0.33406233  0.95272677  0.49979652
   0.47650556  0.09621066  0.49937733
   0.47423711  0.24163621  0.49897197
   0.47425432  0.80412783  0.49663251
   0.47652434  0.95183401  0.49836535
   0.61838876  0.09501088  0.49935460
   0.61832357  0.23978809  0.49952605
   0.61834850  0.95018943  0.49800033
   0.76095568  0.09434411  0.49994750
   0.76095577  0.23821732  0.50080757
   0.76024829  0.38236067  0.49986141
   0.75920868  0.52880605  0.49771867
   0.76270909  0.66714323  0.49673703
   0.75918725  0.80199310  0.49712168
   0.76026317  0.94952201  0.49844816
   0.90352792  0.09376465  0.50017301
   0.90354063  0.23752091  0.50111885
   0.90354212  0.38128229  0.50113422
   0.90410651  0.52449300  0.50012228
   0.90561936  0.66720799  0.49940569
   0.90561460  0.80988903  0.49941904
   0.90407781  0.95110554  0.49959711
   0.42859608  0.28648226  0.49842990
   0.42866711  0.71363641  0.49580997
   0.71596837  0.57523257  0.49563967
   0.71592899  0.71229768  0.49559883
   0.33179395  0.38294116  0.49503591
   0.33186144  0.52008053  0.49448697
   0.61911232  0.38185128  0.49820952
   0.61916831  0.80896943  0.49652342
   0.51994460  0.57509766  0.56582102
   0.52185359  0.48765494  0.56287001
   0.52151725  0.53070696  0.60466391
Direct configuration=     8
   0.99989913  0.99980988  0.50038413
   0.99918795  0.14218311  0.50042081
   0.99897769  0.28519890  0.50076503
   0.99920355  0.42843382  0.50067664
   0.99993615  0.57152542  0.50014143
   0.00132965  0.71479583  0.50006111
   0.00132284  0.85794730  0.50040433
   0.14424737  0.00154916  0.50088878
   0.14368186  0.14416873  0.50028467
   0.14215884  0.28539334  0.49947783
   0.14218910  0.42811262  0.49898914
   0.14372944  0.57085146  0.49892030
   0.14426164  0.71404493  0.49962508
   0.14424533  0.85779666  0.50063652
   0.28684591  0.00107219  0.50043008
   0.28753007  0.14588379  0.49981989
   0.28853208  0.29329440  0.49764226
   0.28507744  0.42815342  0.49603006
   0.28864307  0.56657420  0.49609351
   0.28755141  0.71302779  0.49766228
   0.28684584  0.85716492  0.49942823
   0.42943811  0.00045448  0.49918769
   0.42947202  0.14528887  0.49950433
   0.42948539  0.85568117  0.49765810
   0.57131508  0.99926941  0.49849592
   0.57129035  0.14363621  0.49942763
   0.57353121  0.29132357  0.49892380
   0.57356113  0.85384034  0.49693497
   0.71338317  0.99810161  0.49876901
   0.71374536  0.14267596  0.50013342
   0.71337348  0.28688455  0.50016633
   0.70895685  0.42782618  0.49848086
   0.70897271  0.85278156  0.49721677
   0.85598435  0.99838965  0.49939532
   0.85602342  0.14198534  0.50053089
   0.85603158  0.28557161  0.50124361
   0.85599433  0.42913365  0.50049770
   0.85627072  0.57224226  0.49928797
   0.85862561  0.71505672  0.49876025
   0.85626480  0.85551768  0.49886076
   0.04787024  0.09545676  0.50047422
   0.04645481  0.23733952  0.50035849
   0.04646865  0.38051558  0.50037679
   0.04790526  0.52381893  0.50004023
   0.04860689  0.66690667  0.49999049
   0.04879876  0.81010056  0.50046721
   0.04858229  0.95308440  0.50071828
   0.19180853  0.09692569  0.50043762
   0.19148747  0.23974799  0.49943014
   0.18918054  0.38024308  0.49843152
   0.19156826  0.52307568  0.49805803
   0.19182356  0.66621226  0.49866684
   0.19176456  0.80976043  0.50000278
   0.19176621  0.95334893  0.50082941
   0.33443134  0.09732867  0.50004760
   0.33877298  0.24260957  0.49853798
   0.33885235  0.66758387  0.49628300
   0.33443513  0.80851162  0.49818342
   0.33405549  0.95273153  0.49977776
   0.47651170  0.09620498  0.49937509
   0.47424218  0.24163036  0.49897137
   0.47426283  0.80413203  0.49665051
   0.47653308  0.95182920  0.49837326
   0.61838343  0.09500071  0.49935853
   0.61832900  0.23977996  0.49952695
   0.61835217  0.95018203  0.49800501
   0.76095324  0.09433313  0.49993848
   0.76095456  0.23821200  0.50077582
   0.76024719  0.38235004  0.49985634
   0.75920981  0.52878743  0.49772660
   0.76272172  0.66714010  0.49673340
   0.75919555  0.80199560  0.49713252
   0.76026272  0.94951329  0.49845614
   0.90352384  0.09375692  0.50017866
   0.90353780  0.23751846  0.50109944
   0.90353549  0.38127887  0.50110391
   0.90410688  0.52448098  0.50011300
   0.90561937  0.66719761  0.49942614
   0.90561859  0.80988737  0.49941975
   0.90407332  0.95109941  0.49959570
   0.42859783  0.28647832  0.49843009
   0.42866819  0.71363825  0.49583497
   0.71598357  0.57522805  0.49564610
   0.71595314  0.71230688  0.49560487
   0.33178765  0.38294396  0.49504708
   0.33187151  0.52009322  0.49450973
   0.61912047  0.38183711  0.49823418
   0.61917648  0.80897656  0.49652711
   0.51993662  0.57507986  0.56582271
   0.52185018  0.48764392  0.56287692
   0.52152152  0.53069723  0.60466391
Direct configuration=     9
   0.99988268  0.99981326  0.50034999
   0.99916059  0.14220944  0.50046160
   0.99895861  0.28521063  0.50075280
   0.99917847  0.42842603  0.50062977
   0.99992817  0.57153387  0.50012621
   0.00132788  0.71481468  0.50010675
   0.00131601  0.85794363  0.50038521
   0.14425930  0.00157484  0.50085609
   0.14365691  0.14420804  0.50027148
   0.14212693  0.28541819  0.49948497
   0.14217313  0.42811124  0.49900103
   0.14372456  0.57086606  0.49894418
   0.14427511  0.71407893  0.49960858
   0.14425406  0.85782881  0.50059713
   0.28684058  0.00109399  0.50039017
   0.28753071  0.14591278  0.49979329
   0.28852413  0.29331616  0.49762456
   0.28507460  0.42817779  0.49607400
   0.28865109  0.56658888  0.49615473
   0.28754831  0.71303418  0.49768152
   0.28683070  0.85717919  0.49939527
   0.42946012  0.00045257  0.49917258
   0.42948329  0.14528812  0.49946552
   0.42949685  0.85567188  0.49768269
   0.57134586  0.99926841  0.49851868
   0.57131611  0.14363024  0.49944315
   0.57353710  0.29129137  0.49894883
   0.57356755  0.85384023  0.49695638
   0.71339940  0.99808684  0.49877500
   0.71375892  0.14266928  0.50009420
   0.71338441  0.28686294  0.50011212
   0.70896247  0.42779945  0.49851218
   0.70898011  0.85277599  0.49723729
   0.85596803  0.99837128  0.49940584
   0.85600588  0.14196905  0.50051150
   0.85601302  0.28554740  0.50116012
   0.85597634  0.42909784  0.50045190
   0.85625284  0.57220302  0.49929825
   0.85863115  0.71504374  0.49874777
   0.85626151  0.85549312  0.49887185
   0.04784468  0.09547899  0.50047307
   0.04643293  0.23736024  0.50038308
   0.04645033  0.38052295  0.50033962
   0.04790040  0.52383001  0.50002541
   0.04861961  0.66693177  0.49999578
   0.04879541  0.81012374  0.50045716
   0.04858088  0.95309139  0.50067404
   0.19179421  0.09695214  0.50041316
   0.19146298  0.23977122  0.49939991