  95  95   0   0
  0.4078826E+02  0.1727104E-08  0.1727104E-08  0.1500000E-08  0.5000000E-15
  1.000000000000000E-004
  CAR 
 unknown system                          
      5.82014883    -24.10201756  301     -2.74507130      1.00000000
    -24.102  0.0000E+00  0.0000E+00  0.0000E+00  0.0000E+00
    -24.002  0.0000E+00  0.0000E+00  0.0000E+00  0.0000E+00
    -23.903  0.0000E+00  0.0000E+00  0.0000E+00  0.0000E+00
    -23.803  0.0000E+00  0.0000E+00  0.0000E+00  0.0000E+00
    -23.703  0.0000E+00  0.0000E+00  0.0000E+00  0.0000E+00
    -23.603  0.0000E+00  0.0000E+00  0.0000E+00  0.0000E+00
    -23.504  0.0000E+00  0.0000E+00  0.0000E+00  0.0000E+00
    -23.404  0.0000E+00  0.0000E+00  0.0000E+00  0.0000E+00
    -23.304  0.0000E+00  0.0000E+00  0.0000E+00  0.0000E+00
    -23.204  0.0000E+00  0.0000E+00  0.0000E+00  0.0000E+00
    -23.105  0.0000E+00  0.0000E+00  0.0000E+00  0.0000E+00
    -23.005  0.4471E-15  0.4475E-15  0.4459E-16  0.4463E-16
    -22.905  0.1789E-07  0.1789E-07  0.1784E-08  0.1785E-08
    -22.805  0.3492E-03  0.3492E-03  0.3483E-04  0.3483E-04
    -22.706  0.8103E-02  0.8103E-02  0.8430E-03  0.8430E-03
    -22.606  0.1574E-02  0.1574E-02  0.9999E-03  0.9999E-03
    -22.506  0.2503E-04  0.2503E-04  0.1002E-02  0.1002E-02
    -22.406  0.5600E-02  0.5600E-02  0.1561E-02  0.1561E-02
    -22.307  0.1338E-01  0.1337E-01  0.2895E-02  0.2895E-02
    -22.207  0.1067E-02  0.1066E-02  0.3001E-02  0.3001E-02
    -22.107  0.4351E-02  0.4351E-02  0.3435E-02  0.3435E-02
    -22.007  0.5622E-02  0.5622E-02  0.3996E-02  0.3996E-02
    -21.908  0.5623E-04  0.5623E-04  0.4002E-02  0.4002E-02
    -21.808  0.4011E-02  0.4011E-02  0.4402E-02  0.4402E-02
    -21.708  0.9805E-02  0.9805E-02  0.5380E-02  0.5380E-02
    -21.609  0.8899E-02  0.8899E-02  0.6267E-02  0.6267E-02
    -21.509  0.3281E-02  0.3281E-02  0.6595E-02  0.6595E-02
    -21.409  0.1010E-01  0.1010E-01  0.7602E-02  0.7602E-02
    -21.309  0.1973E-02  0.1973E-02  0.7799E-02  0.7799E-02
    -21.210  0.9009E-02  0.9009E-02  0.8698E-02  0.8698E-02
    -21.110  0.4113E-02  0.4113E-02  0.9108E-02  0.9108E-02
    -21.010  0.7910E-02  0.7910E-02  0.9897E-02  0.9897E-02
    -20.910  0.4643E-02  0.4643E-02  0.1036E-01  0.1036E-01
    -20.811  0.9053E-02  0.9053E-02  0.1126E-01  0.1126E-01
    -20.711  0.5117E-02  0.5117E-02  0.1177E-01  0.1177E-01
    -20.611  0.4829E-02  0.4829E-02  0.1226E-01  0.1226E-01
    -20.511  0.3692E-02  0.3692E-02  0.1262E-01  0.1262E-01
    -20.412  0.9711E-02  0.9711E-02  0.1359E-01  0.1359E-01
    -20.312  0.8845E-02  0.8845E-02  0.1447E-01  0.1447E-01
    -20.212  0.9172E-02  0.9171E-02  0.1539E-01  0.1539E-01
    -20.112  0.2620E-02  0.2620E-02  0.1565E-01  0.1565E-01
    -20.013  0.7358E-02  0.7358E-02  0.1638E-01  0.1638E-01
    -19.913  0.1200E-02  0.1200E-02  0.1650E-01  0.1650E-01
    -19.813  0.4856E-02  0.4856E-02  0.1699E-01  0.1699E-01
    -19.713  0.1169E-01  0.1169E-01  0.1815E-01  0.1815E-01
    -19.614  0.1380E-01  0.1380E-01  0.1953E-01  0.1953E-01
    -19.514  0.3630E-02  0.3630E-02  0.1989E-01  0.1989E-01
    -19.414  0.5789E-02  0.5789E-02  0.2047E-01  0.2047E-01
    -19.314  0.3375E-02  0.3375E-02  0.2081E-01  0.2081E-01
    -19.215  0.1205E-01  0.1205E-01  0.2201E-01  0.2201E-01
    -19.115  0.4854E-02  0.4854E-02  0.2249E-01  0.2249E-01
    -19.015  0.9112E-04  0.9112E-04  0.2250E-01  0.2250E-01
    -18.916  0.2810E-02  0.2810E-02  0.2278E-01  0.2278E-01
    -18.816  0.1339E-01  0.1339E-01  0.2412E-01  0.2412E-01
    -18.716  0.1244E-01  0.1244E-01  0.2536E-01  0.2536E-01
    -18.616  0.8531E-02  0.8531E-02  0.2621E-01  0.2621E-01
    -18.517  0.6815E-02  0.6815E-02  0.2689E-01  0.2689E-01
    -18.417  0.8799E-02  0.8799E-02  0.2777E-01  0.2777E-01
    -18.317  0.5644E-02  0.5644E-02  0.2833E-01  0.2833E-01
    -18.217  0.2149E-02  0.2149E-02  0.2854E-01  0.2854E-01
    -18.118  0.6652E-02  0.6652E-02  0.2921E-01  0.2921E-01
    -18.018  0.7759E-02  0.7759E-02  0.2998E-01  0.2998E-01
    -17.918  0.5629E-02  0.5628E-02  0.3054E-01  0.3054E-01
    -17.818  0.7467E-02  0.7467E-02  0.3129E-01  0.3129E-01
    -17.719  0.5263E-02  0.5263E-02  0.3181E-01  0.3181E-01
    -17.619  0.1474E-01  0.1474E-01  0.3328E-01  0.3328E-01
    -17.519  0.1688E-01  0.1688E-01  0.3497E-01  0.3497E-01
    -17.419  0.7470E-02  0.7470E-02  0.3571E-01  0.3571E-01
    -17.320  0.1587E-02  0.1587E-02  0.3587E-01  0.3587E-01
    -17.220  0.6455E-02  0.6455E-02  0.3651E-01  0.3651E-01
    -17.120  0.6983E-02  0.6983E-02  0.3721E-01  0.3721E-01
    -17.020  0.8441E-02  0.8441E-02  0.3805E-01  0.3805E-01
    -16.921  0.8157E-02  0.8157E-02  0.3886E-01  0.3886E-01
    -16.821  0.5209E-02  0.5209E-02  0.3938E-01  0.3938E-01
    -16.721  0.6577E-02  0.6577E-02  0.4004E-01  0.4004E-01
    -16.621  0.8715E-02  0.8715E-02  0.4091E-01  0.4091E-01
    -16.522  0.2051E-01  0.2051E-01  0.4295E-01  0.4295E-01
    -16.422  0.5459E-02  0.5459E-02  0.4350E-01  0.4350E-01
    -16.322  0.1298E-04  0.1298E-04  0.4350E-01  0.4350E-01
    -16.223  0.1040E-05  0.1041E-05  0.4350E-01  0.4350E-01
    -16.123  0.8903E-03  0.8903E-03  0.4359E-01  0.4359E-01
    -16.023  0.5684E-02  0.5684E-02  0.4416E-01  0.4416E-01
    -15.923  0.2000E-02  0.2000E-02  0.4436E-01  0.4436E-01
    -15.824  0.5434E-02  0.5434E-02  0.4490E-01  0.4490E-01
    -15.724  0.2582E-02  0.2582E-02  0.4515E-01  0.4515E-01
    -15.624  0.8245E-02  0.8245E-02  0.4598E-01  0.4598E-01
    -15.524  0.4793E-02  0.4793E-02  0.4646E-01  0.4646E-01
    -15.425  0.7742E-02  0.7742E-02  0.4723E-01  0.4723E-01
    -15.325  0.8339E-02  0.8339E-02  0.4806E-01  0.4806E-01
    -15.225  0.1127E-01  0.1127E-01  0.4918E-01  0.4918E-01
    -15.125  0.1170E-01  0.1170E-01  0.5035E-01  0.5035E-01
    -15.026  0.7873E-02  0.7873E-02  0.5114E-01  0.5114E-01
    -14.926  0.4365E-02  0.4365E-02  0.5157E-01  0.5157E-01
    -14.826  0.9779E-02  0.9779E-02  0.5255E-01  0.5255E-01
    -14.726  0.5842E-02  0.5842E-02  0.5313E-01  0.5313E-01
    -14.627  0.9129E-02  0.9129E-02  0.5404E-01  0.5404E-01
    -14.527  0.1380E-01  0.1380E-01  0.5542E-01  0.5542E-01
    -14.427  0.7236E-02  0.7236E-02  0.5614E-01  0.5614E-01
    -14.327  0.1215E-01  0.1215E-01  0.5735E-01  0.5735E-01
    -14.228  0.5474E-02  0.5474E-02  0.5789E-01  0.5789E-01
    -14.128  0.5116E-02  0.5116E-02  0.5840E-01  0.5840E-01
    -14.028  0.4059E-02  0.4059E-02  0.5881E-01  0.5881E-01
    -13.928  0.4833E-02  0.4833E-02  0.5929E-01  0.5929E-01
    -13.829  0.6581E-02  0.6581E-02  0.5995E-01  0.5995E-01
    -13.729  0.6178E-02  0.6178E-02  0.6056E-01  0.6056E-01
    -13.629  0.1191E-01  0.1191E-01  0.6175E-01  0.6175E-01
    -13.530  0.1035E-01  0.1035E-01  0.6278E-01  0.6278E-01
    -13.430  0.5687E-02  0.5687E-02  0.6335E-01  0.6335E-01
    -13.330  0.5529E-02  0.5529E-02  0.6390E-01  0.6390E-01
    -13.230  0.5929E-02  0.5929E-02  0.6449E-01  0.6449E-01
    -13.131  0.3989E-03  0.3990E-03  0.6453E-01  0.6453E-01
    -13.031  0.6254E-02  0.6254E-02  0.6516E-01  0.6516E-01
    -12.931  0.6995E-02  0.6995E-02  0.6586E-01  0.6586E-01
    -12.831  0.5203E-02  0.5203E-02  0.6637E-01  0.6637E-01
    -12.732  0.1350E-01  0.1350E-01  0.6772E-01  0.6772E-01
    -12.632  0.1196E-01  0.1196E-01  0.6891E-01  0.6891E-01
    -12.532  0.1208E-01  0.1208E-01  0.7012E-01  0.7012E-01
    -12.432  0.1029E-01  0.1029E-01  0.7114E-01  0.7114E-01
    -12.333  0.6730E-02  0.6730E-02  0.7182E-01  0.7182E-01
    -12.233  0.1949E-02  0.1949E-02  0.7201E-01  0.7201E-01
    -12.133  0.8458E-02  0.8458E-02  0.7285E-01  0.7285E-01
    -12.033  0.6149E-02  0.6149E-02  0.7347E-01  0.7347E-01
    -11.934  0.3425E-02  0.3425E-02  0.7381E-01  0.7381E-01
    -11.834  0.5739E-02  0.5739E-02  0.7438E-01  0.7438E-01
    -11.734  0.1189E-01  0.1189E-01  0.7557E-01  0.7557E-01
    -11.634  0.1064E-01  0.1064E-01  0.7663E-01  0.7663E-01
    -11.535  0.1128E-01  0.1128E-01  0.7775E-01  0.7775E-01
    -11.435  0.1198E-01  0.1198E-01  0.7895E-01  0.7895E-01
    -11.335  0.1486E-01  0.1486E-01  0.8043E-01  0.8043E-01
    -11.235  0.7737E-02  0.7737E-02  0.8120E-01  0.8120E-01
    -11.136  0.1006E-01  0.1006E-01  0.8221E-01  0.8221E-01
    -11.036  0.9158E-02  0.9158E-02  0.8312E-01  0.8312E-01
    -10.936  0.7606E-02  0.7606E-02  0.8388E-01  0.8388E-01
    -10.837  0.8418E-02  0.8418E-02  0.8472E-01  0.8472E-01
    -10.737  0.9839E-02  0.9839E-02  0.8570E-01  0.8570E-01
    -10.637  0.3184E-02  0.3184E-02  0.8602E-01  0.8602E-01
    -10.537  0.2358E-02  0.2358E-02  0.8625E-01  0.8625E-01
    -10.438  0.9151E-02  0.9151E-02  0.8717E-01  0.8717E-01
    -10.338  0.1308E-01  0.1308E-01  0.8847E-01  0.8847E-01
    -10.238  0.1770E-01  0.1770E-01  0.9024E-01  0.9024E-01
    -10.138  0.1486E-01  0.1486E-01  0.9172E-01  0.9172E-01
    -10.039  0.2169E-01  0.2169E-01  0.9388E-01  0.9388E-01
     -9.939  0.1049E-01  0.1049E-01  0.9493E-01  0.9493E-01
     -9.839  0.1871E-01  0.1871E-01  0.9679E-01  0.9679E-01
     -9.739  0.1695E-01  0.1695E-01  0.9848E-01  0.9848E-01
     -9.640  0.1677E-01  0.1677E-01  0.1002E+00  0.1002E+00
     -9.540  0.2521E-01  0.2521E-01  0.1027E+00  0.1027E+00
     -9.440  0.1546E-01  0.1546E-01  0.1042E+00  0.1042E+00
     -9.340  0.1968E-01  0.1968E-01  0.1062E+00  0.1062E+00
     -9.241  0.1478E-01  0.1478E-01  0.1077E+00  0.1077E+00
     -9.141  0.2543E-01  0.2543E-01  0.1102E+00  0.1102E+00
     -9.041  0.2371E-01  0.2371E-01  0.1126E+00  0.1126E+00
     -8.941  0.2729E-01  0.2729E-01  0.1153E+00  0.1153E+00
     -8.842  0.1642E-01  0.1642E-01  0.1169E+00  0.1169E+00
     -8.742  0.1933E-01  0.1933E-01  0.1188E+00  0.1188E+00
     -8.642  0.1934E-01  0.1934E-01  0.1208E+00  0.1208E+00
     -8.542  0.9574E-02  0.9574E-02  0.1217E+00  0.1217E+00
     -8.443  0.2174E-01  0.2174E-01  0.1239E+00  0.1239E+00
     -8.343  0.2295E-01  0.2295E-01  0.1262E+00  0.1262E+00
     -8.243  0.2293E-01  0.2293E-01  0.1285E+00  0.1285E+00
     -8.144  0.1430E-01  0.1430E-01  0.1299E+00  0.1299E+00
     -8.044  0.1618E-01  0.1618E-01  0.1315E+00  0.1315E+00
     -7.944  0.1308E-01  0.1308E-01  0.1328E+00  0.1328E+00
     -7.844  0.1571E-01  0.1571E-01  0.1344E+00  0.1344E+00
     -7.745  0.1120E-01  0.1120E-01  0.1355E+00  0.1355E+00
     -7.645  0.7556E-02  0.7556E-02  0.1363E+00  0.1363E+00
     -7.545  0.1648E-01  0.1648E-01  0.1379E+00  0.1379E+00
     -7.445  0.1787E-01  0.1787E-01  0.1397E+00  0.1397E+00
     -7.346  0.1808E-01  0.1808E-01  0.1415E+00  0.1415E+00
     -7.246  0.2004E-01  0.2004E-01  0.1435E+00  0.1435E+00
     -7.146  0.1771E-01  0.1771E-01  0.1452E+00  0.1452E+00
     -7.046  0.1838E-01  0.1838E-01  0.1471E+00  0.1471E+00
     -6.947  0.7067E-02  0.7067E-02  0.1478E+00  0.1478E+00
     -6.847  0.9717E-02  0.9717E-02  0.1488E+00  0.1488E+00
     -6.747  0.1287E-01  0.1287E-01  0.1500E+00  0.1500E+00
     -6.647  0.1291E-01  0.1291E-01  0.1513E+00  0.1513E+00
     -6.548  0.7477E-02  0.7477E-02  0.1521E+00  0.1521E+00
     -6.448  0.7761E-02  0.7761E-02  0.1528E+00  0.1528E+00
     -6.348  0.3013E-01  0.3013E-01  0.1558E+00  0.1558E+00
     -6.248  0.1710E-01  0.1710E-01  0.1576E+00  0.1576E+00
     -6.149  0.1035E-01  0.1035E-01  0.1586E+00  0.1586E+00
     -6.049  0.7579E-02  0.7579E-02  0.1593E+00  0.1593E+00
     -5.949  0.1795E-01  0.1795E-01  0.1611E+00  0.1611E+00
     -5.849  0.1202E-01  0.1202E-01  0.1623E+00  0.1623E+00
     -5.750  0.3689E-02  0.3689E-02  0.1627E+00  0.1627E+00
     -5.650  0.7630E-02  0.7630E-02  0.1635E+00  0.1635E+00
     -5.550  0.3574E-02  0.3574E-02  0.1638E+00  0.1638E+00
     -5.451  0.6074E-02  0.6074E-02  0.1644E+00  0.1644E+00
     -5.351  0.4582E-02  0.4582E-02  0.1649E+00  0.1649E+00
     -5.251  0.9671E-02  0.9671E-02  0.1658E+00  0.1658E+00
     -5.151  0.2498E-01  0.2498E-01  0.1683E+00  0.1683E+00
     -5.052  0.2034E-01  0.2034E-01  0.1704E+00  0.1704E+00
     -4.952  0.1580E-01  0.1580E-01  0.1719E+00  0.1719E+00
     -4.852  0.1152E-01  0.1152E-01  0.1731E+00  0.1731E+00
     -4.752  0.1593E-02  0.1593E-02  0.1732E+00  0.1732E+00
     -4.653  0.5451E-03  0.5451E-03  0.1733E+00  0.1733E+00
     -4.553  0.1327E-01  0.1327E-01  0.1746E+00  0.1746E+00
     -4.453  0.1654E-01  0.1654E-01  0.1763E+00  0.1763E+00
     -4.353  0.8980E-02  0.8980E-02  0.1772E+00  0.1772E+00
     -4.254  0.1806E-01  0.1806E-01  0.1790E+00  0.1790E+00
     -4.154  0.1792E-01  0.1792E-01  0.1808E+00  0.1808E+00
     -4.054  0.7426E-02  0.7426E-02  0.1815E+00  0.1815E+00
     -3.954  0.5008E-02  0.5008E-02  0.1820E+00  0.1820E+00
     -3.855  0.1987E-02  0.1987E-02  0.1822E+00  0.1822E+00
     -3.755  0.5096E-03  0.5095E-03  0.1823E+00  0.1823E+00
     -3.655  0.8376E-03  0.8377E-03  0.1823E+00  0.1823E+00
     -3.555  0.2971E-02  0.2971E-02  0.1826E+00  0.1826E+00
     -3.456  0.5922E-02  0.5922E-02  0.1832E+00  0.1832E+00
     -3.356  0.4897E-03  0.4897E-03  0.1833E+00  0.1833E+00
     -3.256  0.2110E-02  0.2110E-02  0.1835E+00  0.1835E+00
     -3.157  0.2009E-03  0.2009E-03  0.1835E+00  0.1835E+00
     -3.057  0.3609E-03  0.3609E-03  0.1835E+00  0.1835E+00
     -2.957  0.4216E-02  0.4216E-02  0.1840E+00  0.1840E+00
     -2.857  0.4357E-03  0.4356E-03  0.1840E+00  0.1840E+00
     -2.758  0.7275E-07  0.7273E-07  0.1840E+00  0.1840E+00
     -2.658  0.5758E-07  0.5760E-07  0.1840E+00  0.1840E+00
     -2.558  0.3952E-03  0.3953E-03  0.1840E+00  0.1840E+00
     -2.458  0.4219E-02  0.4219E-02  0.1845E+00  0.1845E+00
     -2.359  0.3986E-03  0.3986E-03  0.1845E+00  0.1845E+00
     -2.259  0.6260E-07  0.6258E-07  0.1845E+00  0.1845E+00
     -2.159  0.1075E-03  0.1075E-03  0.1845E+00  0.1845E+00
     -2.059  0.4251E-02  0.4251E-02  0.1849E+00  0.1849E+00
     -1.960  0.3152E-02  0.3152E-02  0.1852E+00  0.1852E+00
     -1.860  0.3683E-02  0.3683E-02  0.1856E+00  0.1856E+00
     -1.760  0.3589E-02  0.3589E-02  0.1860E+00  0.1860E+00
     -1.660  0.2637E-03  0.2636E-03  0.1860E+00  0.1860E+00
     -1.561  0.2886E-02  0.2886E-02  0.1863E+00  0.1863E+00
     -1.461  0.6511E-02  0.6511E-02  0.1869E+00  0.1869E+00
     -1.361  0.4559E-02  0.4559E-02  0.1874E+00  0.1874E+00
     -1.261  0.1132E-02  0.1132E-02  0.1875E+00  0.1875E+00
     -1.162  0.3614E-02  0.3614E-02  0.1879E+00  0.1879E+00
     -1.062  0.1333E-01  0.1333E-01  0.1892E+00  0.1892E+00
     -0.962  0.1473E-01  0.1473E-01  0.1907E+00  0.1907E+00
     -0.862  0.6388E-02  0.6388E-02  0.1913E+00  0.1913E+00
     -0.763  0.1111E-01  0.1111E-01  0.1924E+00  0.1924E+00
     -0.663  0.8655E-02  0.8655E-02  0.1933E+00  0.1933E+00
     -0.563  0.5984E-02  0.5984E-02  0.1939E+00  0.1939E+00
     -0.464  0.4484E-02  0.4484E-02  0.1943E+00  0.1943E+00
     -0.364  0.8214E-02  0.8214E-02  0.1951E+00  0.1951E+00
     -0.264  0.8270E-02  0.8270E-02  0.1960E+00  0.1960E+00
     -0.164  0.1121E-01  0.1121E-01  0.1971E+00  0.1971E+00
     -0.065  0.9556E-02  0.9556E-02  0.1980E+00  0.1980E+00
      0.035  0.1126E-01  0.1126E-01  0.1992E+00  0.1992E+00
      0.135  0.6859E-02  0.6859E-02  0.1998E+00  0.1998E+00
      0.235  0.1595E-02  0.1595E-02  0.2000E+00  0.2000E+00
      0.334  0.1567E-02  0.1568E-02  0.2002E+00  0.2002E+00
      0.434  0.6156E-02  0.6156E-02  0.2008E+00  0.2008E+00
      0.534  0.8759E-02  0.8759E-02  0.2016E+00  0.2016E+00
      0.634  0.8764E-02  0.8764E-02  0.2025E+00  0.2025E+00
      0.733  0.2907E-02  0.2907E-02  0.2028E+00  0.2028E+00
      0.833  0.6498E-02  0.6498E-02  0.2035E+00  0.2035E+00
      0.933  0.7876E-02  0.7876E-02  0.2042E+00  0.2042E+00
      1.033  0.1101E-01  0.1101E-01  0.2053E+00  0.2053E+00
      1.132  0.4613E-02  0.4613E-02  0.2058E+00  0.2058E+00
      1.232  0.7864E-02  0.7864E-02  0.2066E+00  0.2066E+00
      1.332  0.1693E-01  0.1693E-01  0.2083E+00  0.2083E+00
      1.432  0.2046E-01  0.2045E-01  0.2103E+00  0.2103E+00
      1.531  0.1196E-01  0.1196E-01  0.2115E+00  0.2115E+00
      1.631  0.6784E-02  0.6784E-02  0.2122E+00  0.2122E+00
      1.731  0.5223E-02  0.5223E-02  0.2127E+00  0.2127E+00
      1.831  0.1010E-01  0.1010E-01  0.2137E+00  0.2137E+00
      1.930  0.1368E-01  0.1368E-01  0.2151E+00  0.2151E+00
      2.030  0.2878E-01  0.2878E-01  0.2179E+00  0.2179E+00
      2.130  0.1535E-01  0.1535E-01  0.2195E+00  0.2195E+00
      2.229  0.7949E-02  0.7949E-02  0.2203E+00  0.2203E+00
      2.329  0.1946E-01  0.1946E-01  0.2222E+00  0.2222E+00
      2.429  0.2495E-01  0.2496E-01  0.2247E+00  0.2247E+00
      2.529  0.1431E-01  0.1431E-01  0.2261E+00  0.2261E+00
      2.628  0.7982E-02  0.7982E-02  0.2269E+00  0.2269E+00
      2.728  0.1234E-01  0.1234E-01  0.2282E+00  0.2282E+00
      2.828  0.2877E-01  0.2877E-01  0.2310E+00  0.2310E+00
      2.928  0.5380E-01  0.5380E-01  0.2364E+00  0.2364E+00
      3.027  0.2695E-01  0.2695E-01  0.2391E+00  0.2391E+00
      3.127  0.9751E-02  0.9751E-02  0.2400E+00  0.2400E+00
      3.227  0.1296E-01  0.1296E-01  0.2413E+00  0.2413E+00
      3.327  0.1306E-01  0.1306E-01  0.2426E+00  0.2426E+00
      3.426  0.2664E-01  0.2664E-01  0.2453E+00  0.2453E+00
      3.526  0.2141E-01  0.2141E-01  0.2474E+00  0.2474E+00
      3.626  0.7836E-02  0.7837E-02  0.2482E+00  0.2482E+00
      3.726  0.1827E-01  0.1828E-01  0.2500E+00  0.2500E+00
      3.825  0.2505E-01  0.2504E-01  0.2525E+00  0.2525E+00
      3.925  0.3267E-01  0.3267E-01  0.2558E+00  0.2558E+00
      4.025  0.1585E-01  0.1586E-01  0.2574E+00  0.2574E+00
      4.125  0.1530E-01  0.1525E-01  0.2589E+00  0.2589E+00
      4.224  0.1917E-01  0.1829E-01  0.2608E+00  0.2607E+00
      4.324  0.2476E-01  0.2752E-01  0.2633E+00  0.2635E+00
      4.424  0.1447E-01  0.1422E-01  0.2647E+00  0.2649E+00
      4.524  0.2626E-02  0.1116E-02  0.2650E+00  0.2650E+00
      4.623  0.9107E-04  0.6669E-06  0.2650E+00  0.2650E+00
      4.723  0.4895E-08  0.3182E-12  0.2650E+00  0.2650E+00
      4.823  0.1286E-15  0.0000E+00  0.2650E+00  0.2650E+00
      4.922  0.0000E+00  0.0000E+00  0.2650E+00  0.2650E+00
      5.022  0.0000E+00  0.0000E+00  0.2650E+00  0.2650E+00
      5.122  0.0000E+00  0.0000E+00  0.2650E+00  0.2650E+00
      5.222  0.0000E+00  0.0000E+00  0.2650E+00  0.2650E+00
      5.321  0.0000E+00  0.0000E+00  0.2650E+00  0.2650E+00
      5.421  0.0000E+00  0.0000E+00  0.2650E+00  0.2650E+00
      5.521  0.0000E+00  0.0000E+00  0.2650E+00  0.2650E+00
      5.621  0.0000E+00  0.0000E+00  0.2650E+00  0.2650E+00
      5.720  0.0000E+00  0.0000E+00  0.2650E+00  0.2650E+00
      5.820  0.0000E+00  0.0000E+00  0.2650E+00  0.2650E+00
