 vasp.6.4.2 20Jul23 (build Aug 26 2025 15:10:52) complex                        
  
 executed on             LinuxIFC date 2025.12.02  12:58:03
 running   50 mpi-ranks, on    1 nodes
 each image running on   10 cores
 distrk:  each k-point on    5 cores,    2 groups
 distr:  one band on NCORE=   1 cores,    5 groups


--------------------------------------------------------------------------------------------------------


 INCAR:
   ENCUT = 520
   EDIFF = 1E-6
   NELM = 200
   ALGO = Normal
   ISMEAR = 0
   SIGMA = 0.05
   LASPH = .TRUE.
   ADDGRID = .TRUE.
   LREAL = Auto
   ISYM = 0
   ISPIN = 2
   MAGMOM = 95*0.6
   IMIX = 4
   AMIX = 0.20
   BMIX = 1E-4
   AMIX_MAG = 0.80
   BMIX_MAG = 1E-4
   IBRION = 3
   IOPT = 7
   IMAGES = 5
   SPRING = -5
   LCLIMB = .TRUE.
   ISIF = 2
   EDIFFG = -0.03
   NSW = 1000
   IVDW = 12
   ISTART = 0
   ICHARG = 2
   LWAVE = .FALSE.
   LCHARG = .FALSE.
   KPAR = 2

 POTCAR:    PAW_PBE C 08Apr2002                   
 POTCAR:    PAW_PBE H 15Jun2001                   
 POTCAR:    PAW_PBE N 08Apr2002                   
 POTCAR:    PAW_PBE O 08Apr2002                   
 -----------------------------------------------------------------------------
|                                                                             |
|           W    W    AA    RRRRR   N    N  II  N    N   GGGG   !!!           |
|           W    W   A  A   R    R  NN   N  II  NN   N  G    G  !!!           |
|           W    W  A    A  R    R  N N  N  II  N N  N  G       !!!           |
|           W WW W  AAAAAA  RRRRR   N  N N  II  N  N N  G  GGG   !            |
|           WW  WW  A    A  R   R   N   NN  II  N   NN  G    G                |
|           W    W  A    A  R    R  N    N  II  N    N   GGGG   !!!           |
|                                                                             |
|     For optimal performance we recommend to set                             |
|       NCORE = 2 up to number-of-cores-per-socket                            |
|     NCORE specifies how many cores store one orbital (NPAR=cpu/NCORE).      |
|     This setting can greatly improve the performance of VASP for DFT.       |
|     The default, NCORE=1 might be grossly inefficient on modern             |
|     multi-core architectures or massively parallel machines. Do your        |
|     own testing! More info at https://www.vasp.at/wiki/index.php/NCORE      |
|     Unfortunately you need to use the default for GW and RPA                |
|     calculations (for HF NCORE is supported but not extensively tested      |
|     yet).                                                                   |
|                                                                             |
 -----------------------------------------------------------------------------

 POTCAR:    PAW_PBE C 08Apr2002                   
   SHA256 =  253f7b50bb8d59471dbedb8285d89021f4a42ed1a2c5d38a03a736e69125dd95 C/POTCAR              
   COPYR  = (c) Copyright 08Apr2002 Georg Kresse                                                    
   COPYR  = This file is part of the software VASP. Any use, copying, and all other rights are regul
   COPYR  = If you do not have a valid VASP license, you may not use, copy or distribute this file. 
   VRHFIN =C: s2p2                                                                                  
   LEXCH  = PE                                                                                      
   EATOM  =   147.1560 eV,   10.8157 Ry                                                             
                                                                                                    
   TITEL  = PAW_PBE C 08Apr2002                                                                     
   LULTRA =        F    use ultrasoft PP ?                                                          
   IUNSCR =        1    unscreen: 0-lin 1-nonlin 2-no                                               
   RPACOR =    1.200    partial core radius                                                         
   POMASS =   12.011; ZVAL   =    4.000    mass and valenz                                          
   RCORE  =    1.500    outmost cutoff radius                                                       
   RWIGS  =    1.630; RWIGS  =    0.863    wigner-seitz radius (au A)                               
   ENMAX  =  400.000; ENMIN  =  300.000 eV                                                          
   ICORE  =        2    local potential                                                             
   LCOR   =        T    correct aug charges                                                         
   LPAW   =        T    paw PP                                                                      
   EAUG   =  644.873                                                                                
   DEXC   =    0.000                                                                                
   RMAX   =    1.529    core radius for proj-oper                                                   
   RAUG   =    1.300    factor for augmentation sphere                                              
   RDEP   =    1.501    radius for radial grids                                                     
   RDEPT  =    1.300    core radius for aug-charge                                                  
                                                                                                    
   Atomic configuration                                                                             
    4 entries                                                                                       
     n  l   j            E        occ.                                                              
     1  0  0.50      -273.3789   2.0000                                                             
     2  0  0.50       -13.7508   2.0000                                                             
     2  1  0.50        -5.2854   2.0000                                                             
     3  2  1.50        -5.4423   0.0000                                                             
   Description                                                                                      
     l       E           TYP  RCUT    TYP  RCUT                                                     
     0    -13.7508458     23  1.200                                                                 
     0     -8.2022199     23  1.200                                                                 
     1     -5.2854383     23  1.500                                                                 
     1     34.0145650     23  1.500                                                                 
     2     -5.4423304      7  1.500                                                                 
  local pseudopotential read in
  partial core-charges read in
  partial kinetic energy density read in
  atomic valenz-charges read in
  non local Contribution for L=           0  read in
    real space projection operators read in
  non local Contribution for L=           0  read in
    real space projection operators read in
  non local Contribution for L=           1  read in
    real space projection operators read in
  non local Contribution for L=           1  read in
    real space projection operators read in
    PAW grid and wavefunctions read in
 
   number of l-projection  operators is LMAX  =           4
   number of lm-projection operators is LMMAX =           8
 
 POTCAR:    PAW_PBE H 15Jun2001                   
   SHA256 =  030f79b5d3ab3cf0e668861823c8fb652ff669f3e15e46930bd03bfd63a607b6 H/POTCAR              
   COPYR  = (c) Copyright 15Jun2001 Georg Kresse                                                    
   COPYR  = This file is part of the software VASP. Any use, copying, and all other rights are regul
   COPYR  = If you do not have a valid VASP license, you may not use, copy or distribute this file. 
   VRHFIN =H: ultrasoft test                                                                        
   LEXCH  = PE                                                                                      
   EATOM  =    12.4884 eV,    0.9179 Ry                                                             
                                                                                                    
   TITEL  = PAW_PBE H 15Jun2001                                                                     
   LULTRA =        F    use ultrasoft PP ?                                                          
   IUNSCR =        0    unscreen: 0-lin 1-nonlin 2-no                                               
   RPACOR =    0.000    partial core radius                                                         
   POMASS =    1.000; ZVAL   =    1.000    mass and valenz                                          
   RCORE  =    1.100    outmost cutoff radius                                                       
   RWIGS  =    0.700; RWIGS  =    0.370    wigner-seitz radius (au A)                               
   ENMAX  =  250.000; ENMIN  =  200.000 eV                                                          
   RCLOC  =    0.701    cutoff for local pot                                                        
   LCOR   =        T    correct aug charges                                                         
   LPAW   =        T    paw PP                                                                      
   EAUG   =  400.000                                                                                
   RMAX   =    1.123    core radius for proj-oper                                                   
   RAUG   =    1.200    factor for augmentation sphere                                              
   RDEP   =    1.112    radius for radial grids                                                     
   RDEPT  =    0.926    core radius for aug-charge                                                  
                                                                                                    
   Atomic configuration                                                                             
    2 entries                                                                                       
     n  l   j            E        occ.                                                              
     1  0  0.50        -6.4927   1.0000                                                             
     2  1  0.50        -3.4015   0.0000                                                             
   Description                                                                                      
     l       E           TYP  RCUT    TYP  RCUT                                                     
     0     -6.4927494     23  1.100                                                                 
     0      6.8029130     23  1.100                                                                 
     1     -4.0817478     23  1.100                                                                 
  local pseudopotential read in
  atomic valenz-charges read in
  non local Contribution for L=           0  read in
    real space projection operators read in
  non local Contribution for L=           0  read in
    real space projection operators read in
  non local Contribution for L=           1  read in
    real space projection operators read in
    PAW grid and wavefunctions read in
 
   number of l-projection  operators is LMAX  =           3
   number of lm-projection operators is LMMAX =           5
 
 POTCAR:    PAW_PBE N 08Apr2002                   
   SHA256 =  e053789ff3a61a86a1b75d8a110fcc91f86041011e7b0817c7c99e4e8a6349d7 N/POTCAR              
   COPYR  = (c) Copyright 08Apr2002 Georg Kresse                                                    
   COPYR  = This file is part of the software VASP. Any use, copying, and all other rights are regul
   COPYR  = If you do not have a valid VASP license, you may not use, copy or distribute this file. 
   VRHFIN =N: s2p3                                                                                  
   LEXCH  = PE                                                                                      
   EATOM  =   264.5486 eV,   19.4438 Ry                                                             
                                                                                                    
   TITEL  = PAW_PBE N 08Apr2002                                                                     
   LULTRA =        F    use ultrasoft PP ?                                                          
   IUNSCR =        1    unscreen: 0-lin 1-nonlin 2-no                                               
   RPACOR =    1.200    partial core radius                                                         
   POMASS =   14.001; ZVAL   =    5.000    mass and valenz                                          
   RCORE  =    1.500    outmost cutoff radius                                                       
   RWIGS  =    1.400; RWIGS  =    0.741    wigner-seitz radius (au A)                               
   ENMAX  =  400.000; ENMIN  =  300.000 eV                                                          
   ICORE  =        2    local potential                                                             
   LCOR   =        T    correct aug charges                                                         
   LPAW   =        T    paw PP                                                                      
   EAUG   =  627.112                                                                                
   DEXC   =    0.000                                                                                
   RMAX   =    1.529    core radius for proj-oper                                                   
   RAUG   =    1.300    factor for augmentation sphere                                              
   RDEP   =    1.514    radius for radial grids                                                     
   RDEPT  =    1.338    core radius for aug-charge                                                  
                                                                                                    
   Atomic configuration                                                                             
    4 entries                                                                                       
     n  l   j            E        occ.                                                              
     1  0  0.50      -384.7179   2.0000                                                             
     2  0  0.50       -18.5828   2.0000                                                             
     2  1  0.50        -7.0898   3.0000                                                             
     3  2  1.50        -6.8029   0.0000                                                             
   Description                                                                                      
     l       E           TYP  RCUT    TYP  RCUT                                                     
     0    -18.5828119     23  1.200                                                                 
     0    -13.5018863     23  1.200                                                                 
     1     -7.0897853     23  1.500                                                                 
     1      9.5240782     23  1.500                                                                 
     2     -6.8029130      7  1.500                                                                 
  local pseudopotential read in
  partial core-charges read in
  partial kinetic energy density read in
  atomic valenz-charges read in
  non local Contribution for L=           0  read in
    real space projection operators read in
  non local Contribution for L=           0  read in
    real space projection operators read in
  non local Contribution for L=           1  read in
    real space projection operators read in
  non local Contribution for L=           1  read in
    real space projection operators read in
    PAW grid and wavefunctions read in
 
   number of l-projection  operators is LMAX  =           4
   number of lm-projection operators is LMMAX =           8
 
 POTCAR:    PAW_PBE O 08Apr2002                   
   SHA256 =  818f92134a0a090dccd8ba1447fa70422a3b330e708bb4f08108d8ae51209ddf O/POTCAR              
   COPYR  = (c) Copyright 08Apr2002 Georg Kresse                                                    
   COPYR  = This file is part of the software VASP. Any use, copying, and all other rights are regul
   COPYR  = If you do not have a valid VASP license, you may not use, copy or distribute this file. 
   VRHFIN =O: s2p4                                                                                  
   LEXCH  = PE                                                                                      
   EATOM  =   432.3788 eV,   31.7789 Ry                                                             
                                                                                                    
   TITEL  = PAW_PBE O 08Apr2002                                                                     
   LULTRA =        F    use ultrasoft PP ?                                                          
   IUNSCR =        1    unscreen: 0-lin 1-nonlin 2-no                                               
   RPACOR =    1.200    partial core radius                                                         
   POMASS =   16.000; ZVAL   =    6.000    mass and valenz                                          
   RCORE  =    1.520    outmost cutoff radius                                                       
   RWIGS  =    1.550; RWIGS  =    0.820    wigner-seitz radius (au A)                               
   ENMAX  =  400.000; ENMIN  =  300.000 eV                                                          
   ICORE  =        2    local potential                                                             
   LCOR   =        T    correct aug charges                                                         
   LPAW   =        T    paw PP                                                                      
   EAUG   =  605.392                                                                                
   DEXC   =    0.000                                                                                
   RMAX   =    1.553    core radius for proj-oper                                                   
   RAUG   =    1.300    factor for augmentation sphere                                              
   RDEP   =    1.550    radius for radial grids                                                     
   RDEPT  =    1.329    core radius for aug-charge                                                  
                                                                                                    
   Atomic configuration                                                                             
    4 entries                                                                                       
     n  l   j            E        occ.                                                              
     1  0  0.50      -514.6923   2.0000                                                             
     2  0  0.50       -23.9615   2.0000                                                             
     2  1  0.50        -9.0305   4.0000                                                             
     3  2  1.50        -9.5241   0.0000                                                             
   Description                                                                                      
     l       E           TYP  RCUT    TYP  RCUT                                                     
     0    -23.9615318     23  1.200                                                                 
     0     -9.5240782     23  1.200                                                                 
     1     -9.0304911     23  1.520                                                                 
     1      8.1634956     23  1.520                                                                 
     2     -9.5240782      7  1.500                                                                 
  local pseudopotential read in
  partial core-charges read in
  partial kinetic energy density read in
  kinetic energy density of atom read in
  atomic valenz-charges read in
  non local Contribution for L=           0  read in
    real space projection operators read in
  non local Contribution for L=           0  read in
    real space projection operators read in
  non local Contribution for L=           1  read in
    real space projection operators read in
  non local Contribution for L=           1  read in
    real space projection operators read in
    PAW grid and wavefunctions read in
 
   number of l-projection  operators is LMAX  =           4
   number of lm-projection operators is LMMAX =           8
 
 Optimization of the real space projectors (new method)

 maximal supplied QI-value         = 25.13
 optimisation between [QCUT,QGAM] = [ 11.56, 23.12] = [ 37.43,149.72] Ry 
 Optimized for a Real-space Cutoff    1.04 Angstroem

   l    n(q)    QCUT    max X(q) W(low)/X(q) W(high)/X(q)  e(spline) 
   0      7    11.561   115.676    0.20E-03    0.60E-03    0.21E-06
   0      7    11.561    87.132    0.20E-03    0.59E-03    0.21E-06
   1      7    11.561     4.429    0.23E-03    0.35E-03    0.15E-06
   1      7    11.561     2.733    0.18E-03    0.25E-03    0.12E-06
 Optimization of the real space projectors (new method)

 maximal supplied QI-value         = 34.20
 optimisation between [QCUT,QGAM] = [ 11.63, 23.26] = [ 37.87,151.49] Ry 
 Optimized for a Real-space Cutoff    1.14 Angstroem

   l    n(q)    QCUT    max X(q) W(low)/X(q) W(high)/X(q)  e(spline) 
   0      8    11.629    19.460    0.27E-03    0.65E-03    0.17E-06
   0      8    11.629    12.209    0.25E-03    0.62E-03    0.16E-06
   1      7    11.629     4.655    0.29E-03    0.85E-04    0.19E-06
 Optimization of the real space projectors (new method)

 maximal supplied QI-value         = 25.13
 optimisation between [QCUT,QGAM] = [ 11.56, 23.12] = [ 37.43,149.72] Ry 
 Optimized for a Real-space Cutoff    1.25 Angstroem

   l    n(q)    QCUT    max X(q) W(low)/X(q) W(high)/X(q)  e(spline) 
   0      9    11.561    79.467    0.52E-04    0.16E-03    0.37E-06
   0      9    11.561    66.151    0.51E-04    0.16E-03    0.37E-06
   1      8    11.561    18.886    0.46E-03    0.28E-03    0.80E-06
   1      8    11.561    13.488    0.47E-03    0.29E-03    0.82E-06
 Optimization of the real space projectors (new method)

 maximal supplied QI-value         = 24.76
 optimisation between [QCUT,QGAM] = [ 11.64, 23.27] = [ 37.91,151.63] Ry 
 Optimized for a Real-space Cutoff    1.04 Angstroem

   l    n(q)    QCUT    max X(q) W(low)/X(q) W(high)/X(q)  e(spline) 
   0      7    11.635    20.381    0.14E-03    0.49E-03    0.18E-06
   0      7    11.635    15.268    0.16E-03    0.52E-03    0.19E-06
   1      7    11.635     5.964    0.30E-03    0.44E-03    0.22E-06
   1      7    11.635     5.382    0.27E-03    0.34E-03    0.19E-06
  PAW_PBE C 08Apr2002                   :
 energy of atom  1       EATOM= -147.1560
 kinetic energy error for atom=    0.0071 (will be added to EATOM!!)
  PAW_PBE H 15Jun2001                   :
 energy of atom  2       EATOM=  -12.4884
 kinetic energy error for atom=    0.0014 (will be added to EATOM!!)
  PAW_PBE N 08Apr2002                   :
 energy of atom  3       EATOM= -264.5486
 kinetic energy error for atom=    0.0125 (will be added to EATOM!!)
  PAW_PBE O 08Apr2002                   :
 energy of atom  4       EATOM= -432.3788
 kinetic energy error for atom=    0.0208 (will be added to EATOM!!)
 
 
 POSCAR: C    H    N    O
  positions in direct lattice
  velocities in cartesian coordinates
 exchange correlation table for  LEXCH =        8
   RHO(1)=    0.500       N(1)  =     2000
   RHO(2)=  100.500       N(2)  =     4000

 VTST: version 4.1, (05/19/21)

 CHAIN: initializing optimizer
 
 OPT: Using FIRE optimizer
 OPT: FIRE, Init
 OPT: FIRE, MAXMOVE       0.20000
 OPT: FIRE, TIMESTEP      0.10000
 OPT: FIRE, FTIMEMAX      1.00000
 OPT: FIRE, FTIMEINC      1.10000
 OPT: FIRE, FTIMEDEC      0.50000
 OPT: FIRE, FALPHADEC     0.99000
 OPT: FIRE, FALPHA        0.10000
 OPT: FIRE, FNMIN         5
 
 CHAIN: Read ICHAIN            0
 CHAIN: Running the NEB
 NEB:          SPRING     -5.000000
 NEB:          LCLIMB      T
 NEB:     LTANGENTOLD      F
 NEB:           LDNEB      F
 NEB:        LDNEBORG      F
 NEB:        LNEBCELL      F
 NEB:          EFIRST      0.000000
 NEB:           ELAST      0.000000
 
 POSCAR: C    H    N    O
  positions in direct lattice
  No initial velocities read in
 
 POSCAR: C    H    N    O
  positions in direct lattice
  No initial velocities read in
 
 POSCAR: C    H    N    O
  positions in direct lattice
  No initial velocities read in
 
 POSCAR: C    H    N    O
  positions in direct lattice
  No initial velocities read in
 


--------------------------------------------------------------------------------------------------------


 ion  position               nearest neighbor table
   1  0.001  0.001  0.500-  51 1.43  45 1.43  84 1.43
   2  0.001  0.143  0.500-  46 1.42  78 1.42  45 1.43
   3  0.001  0.286  0.500-  79 1.42  46 1.42  47 1.42
   4  0.001  0.429  0.500-  47 1.42  80 1.42  48 1.43
   5  0.001  0.572  0.500-  49 1.43  48 1.43  81 1.43
   6  0.002  0.715  0.500-  49 1.43  50 1.43  82 1.43
   7  0.002  0.858  0.500-  51 1.43  50 1.43  83 1.43
   8  0.145  0.002  0.500-  52 1.43  58 1.43  51 1.43
   9  0.145  0.144  0.500-  52 1.43  53 1.43  45 1.43
  10  0.143  0.286  0.500-  54 1.42  53 1.42  46 1.42
  11  0.143  0.428  0.500-  54 1.42  55 1.42  47 1.42
  12  0.145  0.572  0.500-  56 1.43  55 1.43  48 1.43
  13  0.145  0.715  0.500-  56 1.43  49 1.43  57 1.43
  14  0.145  0.858  0.500-  57 1.43  58 1.43  50 1.43
  15  0.288  0.002  0.500-  58 1.42  63 1.43  59 1.44
  16  0.288  0.147  0.500-  52 1.43  59 1.43  60 1.44
  17  0.288  0.293  0.500-  91 1.35  53 1.44  60 1.48
  18  0.285  0.428  0.500-  91 1.37  92 1.37  54 1.43
  19  0.288  0.566  0.500-  92 1.35  55 1.44  61 1.48
  20  0.288  0.713  0.500-  56 1.43  62 1.43  61 1.44
  21  0.288  0.858  0.500-  57 1.43  63 1.43  62 1.44
  22  0.431  0.001  0.500-  63 1.43  67 1.43  64 1.43
  23  0.431  0.146  0.500-  59 1.43  64 1.43  65 1.44
  24  0.431  0.287  0.500-  85 1.09  60 1.40  65 1.40
  25  0.430  0.715  0.500-  88 1.09  61 1.40  66 1.40
  26  0.431  0.857  0.500-  62 1.43  67 1.43  66 1.44
  27  0.573  0.001  0.500-  67 1.42  68 1.42  70 1.43
  28  0.573  0.144  0.500-  64 1.42  68 1.42  69 1.43
  29  0.577  0.290  0.500-  93 1.35  69 1.43  65 1.46
  30  0.577  0.858  0.500-  94 1.35  70 1.43  66 1.46
  31  0.716  0.001  0.500-  70 1.42  77 1.42  71 1.42
  32  0.716  0.143  0.500-  71 1.42  72 1.42  68 1.43
  33  0.716  0.286  0.500-  69 1.42  73 1.42  72 1.42
  34  0.712  0.426  0.500-  93 1.35  73 1.43  74 1.47
  35  0.716  0.572  0.500-  87 1.09  74 1.39  75 1.42
  36  0.716  0.715  0.500-  86 1.09  76 1.39  75 1.42
  37  0.712  0.858  0.500-  94 1.35  77 1.43  76 1.47
  38  0.858  0.000  0.500-  78 1.42  84 1.43  77 1.43
  39  0.858  0.143  0.500-  71 1.42  79 1.42  78 1.43
  40  0.858  0.286  0.500-  72 1.42  79 1.42  80 1.43
  41  0.858  0.429  0.500-  80 1.42  81 1.43  73 1.43
  42  0.857  0.572  0.500-  81 1.43  82 1.43  74 1.44
  43  0.859  0.715  0.500-  82 1.42  83 1.42  75 1.43
  44  0.857  0.857  0.500-  84 1.43  83 1.43  76 1.44
  45  0.049  0.096  0.500-   2 1.43   1 1.43   9 1.43
  46  0.048  0.238  0.500-   2 1.42   3 1.42  10 1.42
  47  0.048  0.381  0.500-   4 1.42   3 1.42  11 1.42
  48  0.049  0.524  0.500-   4 1.43   5 1.43  12 1.43
  49  0.050  0.667  0.500-   6 1.43   5 1.43  13 1.43
  50  0.049  0.810  0.500-   6 1.43   7 1.43  14 1.43
  51  0.050  0.953  0.500-   7 1.43   1 1.43   8 1.43
  52  0.193  0.097  0.500-   9 1.43   8 1.43  16 1.43
  53  0.192  0.240  0.500-  10 1.42   9 1.43  17 1.44
  54  0.190  0.381  0.500-  10 1.42  11 1.42  18 1.43
  55  0.192  0.523  0.500-  11 1.42  12 1.43  19 1.44
  56  0.193  0.667  0.500-  12 1.43  13 1.43  20 1.43
  57  0.193  0.810  0.500-  21 1.43  14 1.43  13 1.43
  58  0.193  0.954  0.500-  15 1.42  14 1.43   8 1.43
  59  0.336  0.098  0.500-  23 1.43  16 1.43  15 1.44
  60  0.337  0.243  0.500-  24 1.40  16 1.44  17 1.48
  61  0.337  0.665  0.500-  25 1.40  20 1.44  19 1.48
  62  0.336  0.809  0.500-  26 1.43  20 1.43  21 1.44
  63  0.335  0.953  0.500-  22 1.43  15 1.43  21 1.43
  64  0.478  0.096  0.500-  28 1.42  22 1.43  23 1.43
  65  0.479  0.242  0.500-  24 1.40  23 1.44  29 1.46
  66  0.479  0.809  0.500-  25 1.40  26 1.44  30 1.46
  67  0.478  0.953  0.500-  27 1.42  22 1.43  26 1.43
  68  0.620  0.096  0.500-  27 1.42  28 1.42  32 1.43
  69  0.621  0.239  0.500-  33 1.42  29 1.43  28 1.43
  70  0.621  0.953  0.500-  31 1.42  30 1.43  27 1.43
  71  0.763  0.096  0.500-  39 1.42  32 1.42  31 1.42
  72  0.763  0.238  0.500-  40 1.42  32 1.42  33 1.42
  73  0.763  0.381  0.500-  33 1.42  41 1.43  34 1.43
  74  0.761  0.524  0.500-  35 1.39  42 1.44  34 1.47
  75  0.763  0.667  0.500-  36 1.42  35 1.42  43 1.43
  76  0.761  0.808  0.500-  36 1.39  44 1.44  37 1.47
  77  0.763  0.953  0.500-  31 1.42  38 1.43  37 1.43
  78  0.906  0.095  0.500-  38 1.42   2 1.42  39 1.43
  79  0.905  0.238  0.500-   3 1.42  39 1.42  40 1.42
  80  0.906  0.382  0.500-  41 1.42   4 1.42  40 1.43
  81  0.906  0.525  0.500-  42 1.43  41 1.43   5 1.43
  82  0.906  0.667  0.500-  43 1.42  42 1.43   6 1.43
  83  0.906  0.810  0.500-  43 1.42  44 1.43   7 1.43
  84  0.906  0.953  0.500-  44 1.43  38 1.43   1 1.43
  85  0.469  0.360  0.500-  24 1.09
  86  0.643  0.677  0.500-  36 1.09
  87  0.643  0.537  0.500-  35 1.09
  88  0.469  0.680  0.500-  25 1.09
  89  0.464  0.560  0.500-  95 0.98
  90  0.463  0.474  0.500-  95 0.98
  91  0.332  0.383  0.500-  17 1.35  18 1.37
  92  0.332  0.520  0.500-  19 1.35  18 1.37
  93  0.622  0.381  0.500-  34 1.35  29 1.35
  94  0.622  0.813  0.500-  37 1.35  30 1.35
  95  0.507  0.539  0.500-  89 0.98  90 0.98
 

IMPORTANT INFORMATION: All symmetrisations will be switched off!
NOSYMM: (Re-)initialisation of all symmetry stuff for point group C_1.


----------------------------------------------------------------------------------------

                                     Primitive cell                                     

  volume of cell :    3874.8846

  direct lattice vectors                    reciprocal lattice vectors
    17.271038055  0.000000000  0.000000000     0.057900399  0.033428811  0.000000000
    -8.635519028 14.957157706  0.000000000     0.000000000  0.066857622  0.000000000
     0.000000000  0.000000000 15.000000000     0.000000000  0.000000000  0.066666667

  length of vectors
    17.271038055 17.271038055 15.000000000     0.066857622  0.066857622  0.066666667

  position of ions in fractional coordinates (direct lattice)
     0.001383003  0.000626008  0.500092555
     0.000862060  0.143081698  0.499977714
     0.000524606  0.285926013  0.499883981
     0.000866952  0.429118304  0.499975534
     0.001359023  0.572082106  0.500067468
     0.001738126  0.714938019  0.500102540
     0.001783414  0.858203100  0.500093483
     0.145173560  0.001792631  0.500016929
     0.144726567  0.144471592  0.499945695
     0.142859757  0.285917081  0.499825554
     0.142818852  0.428287870  0.499888273
     0.144713175  0.571570331  0.500001871
     0.145140902  0.714698540  0.500049717
     0.145073344  0.858209429  0.500023588
     0.288045421  0.001827010  0.499965263
     0.288351606  0.146507264  0.499954880
     0.287639829  0.292613052  0.499932749
     0.285379746  0.428354908  0.499913752
     0.287625146  0.566354910  0.499978401
     0.288332438  0.713232247  0.500028030
     0.288042998  0.857619428  0.500006215
     0.430572480  0.000980233  0.499974500
     0.431234880  0.145600331  0.499920836
     0.430503506  0.287174968  0.499991318
     0.430442513  0.714674462  0.500108453
     0.431249779  0.857047948  0.500056233
     0.572894809  0.000557205  0.500024441
     0.572893111  0.143712688  0.499951292
     0.576590662  0.290212848  0.499951670
     0.576591252  0.857721881  0.500134212
     0.715792178  0.000958449  0.500104793
     0.715640025  0.143485711  0.499995379
     0.715826974  0.286187451  0.499949120
     0.711828251  0.425681279  0.500007934
     0.716102698  0.572421194  0.500122165
     0.716128918  0.715062125  0.500259560
     0.711856859  0.857518547  0.500205628
     0.858165031  0.000237908  0.500189215
     0.858163271  0.143299916  0.500028377
     0.858178775  0.286183197  0.499964775
     0.858162371  0.429262567  0.500011712
     0.857370195  0.571501788  0.500112286
     0.858806832  0.715086114  0.500137205
     0.857411081  0.857251005  0.500185460
     0.049182897  0.096074189  0.500005049
     0.047729232  0.238091356  0.499864034
     0.047726336  0.380974772  0.499894845
     0.049162819  0.524432594  0.500012979
     0.049522858  0.667419813  0.500074541
     0.049426470  0.810384524  0.500071472
     0.049570582  0.953488992  0.500076146
     0.192799370  0.097230276  0.499979972
     0.191710189  0.239979334  0.499879809
     0.189731658  0.380555194  0.499857620
     0.191705348  0.523061842  0.499958578
     0.192764084  0.666886664  0.500025226
     0.192764827  0.810321813  0.500027139
     0.192783584  0.953802089  0.499998134
     0.335862385  0.098235735  0.499935838
     0.336911873  0.243058879  0.499969475
     0.336868702  0.665204470  0.500028362
     0.335844286  0.809031524  0.500035159
     0.335186708  0.953305363  0.499979494
     0.477904775  0.096486580  0.499930006
     0.478732510  0.241554710  0.499952597
     0.478711549  0.808538280  0.500106776
     0.477912401  0.952834471  0.500016532
     0.620207164  0.095786867  0.499993058
     0.621056796  0.239287447  0.499933116
     0.621054109  0.953117511  0.500076144
     0.763295876  0.096180585  0.500045378
     0.763334521  0.238453219  0.499968885
     0.762674735  0.381027831  0.499982952
     0.760827774  0.523975186  0.500065610
     0.762949823  0.667153535  0.500182321
     0.760871793  0.808240143  0.500240835
     0.762695732  0.953007991  0.500185588
     0.905610957  0.095271952  0.500079132
     0.905486839  0.238376367  0.499951372
     0.905615130  0.381660035  0.499989341
     0.905814887  0.524618012  0.500074099
     0.905861444  0.667025272  0.500136565
     0.905902374  0.810228530  0.500141226
     0.905853216  0.952582407  0.500183047
     0.468763941  0.359859968  0.500043177
     0.643202784  0.677217112  0.500272692
     0.643170841  0.537363319  0.500118178
     0.468671062  0.680210682  0.500158442
     0.463812332  0.559974909  0.500002955
     0.463029942  0.474389716  0.499994187
     0.331657668  0.382931985  0.499941072
     0.331672544  0.520074943  0.499961427
     0.621836203  0.380544106  0.499991401
     0.621850406  0.812646693  0.500185462
     0.507120257  0.538746137  0.500000046

  ion indices of the primitive-cell ions
   primitive index   ion index
                 1           1
                 2           2
                 3           3
                 4           4
                 5           5
                 6           6
                 7           7
                 8           8
                 9           9
                10          10
                11          11
                12          12
                13          13
                14          14
                15          15
                16          16
                17          17
                18          18
                19          19
                20          20
                21          21
                22          22
                23          23
                24          24
                25          25
                26          26
                27          27
                28          28
                29          29
                30          30
                31          31
                32          32
                33          33
                34          34
                35          35
                36          36
                37          37
                38          38
                39          39
                40          40
                41          41
                42          42
                43          43
                44          44
                45          45
                46          46
                47          47
                48          48
                49          49
                50          50
                51          51
                52          52
                53          53
                54          54
                55          55
                56          56
                57          57
                58          58
                59          59
                60          60
                61          61
                62          62
                63          63
                64          64
                65          65
                66          66
                67          67
                68          68
                69          69
                70          70
                71          71
                72          72
                73          73
                74          74
                75          75
                76          76
                77          77
                78          78
                79          79
                80          80
                81          81
                82          82
                83          83
                84          84
                85          85
                86          86
                87          87
                88          88
                89          89
                90          90
                91          91
                92          92
                93          93
                94          94
                95          95

----------------------------------------------------------------------------------------

 
 
 KPOINTS: Automatic mesh                          

Automatic generation of k-mesh.
 Grid dimensions read from file:
 generate k-points for:    2    2    1

 Generating k-lattice:

  Cartesian coordinates                     Fractional coordinates (reciprocal lattice)
     0.028950200  0.016714406  0.000000000     0.500000000  0.000000000  0.000000000
     0.000000000  0.033428811  0.000000000     0.000000000  0.500000000  0.000000000
     0.000000000  0.000000000  0.066666667     0.000000000  0.000000000  1.000000000

  Length of vectors
     0.033428811  0.033428811  0.066666667

  Shift w.r.t. Gamma in fractional coordinates (k-lattice)
     0.000000000  0.000000000  0.000000000

 
 Subroutine IBZKPT returns following result:
 ===========================================
 
 Found      4 irreducible k-points:
 
 Following reciprocal coordinates:
            Coordinates               Weight
  0.000000  0.000000  0.000000      1.000000
  0.500000  0.000000  0.000000      1.000000
  0.000000  0.500000  0.000000      1.000000
  0.500000  0.500000  0.000000      1.000000
 
 Following cartesian coordinates:
            Coordinates               Weight
  0.000000  0.000000  0.000000      1.000000
  0.028950  0.016714  0.000000      1.000000
  0.000000  0.033429  0.000000      1.000000
  0.028950  0.050143  0.000000      1.000000
 


--------------------------------------------------------------------------------------------------------




 Dimension of arrays:
   k-points           NKPTS =      4   k-points in BZ     NKDIM =      4   number of bands    NBANDS=    265
   number of dos      NEDOS =    301   number of ions     NIONS =     95
   non local maximal  LDIM  =      4   non local SUM 2l+1 LMDIM =      8
   total plane-waves  NPLWV = 774144
   max r-space proj   IRMAX =   1673   max aug-charges    IRDMAX=  20933
   dimension x,y,z NGX =    96 NGY =   96 NGZ =   84
   dimension x,y,z NGXF=   192 NGYF=  192 NGZF=  168
   support grid    NGXF=   384 NGYF=  384 NGZF=  336
   ions per type =              84   6   4   1
   NGX,Y,Z   is equivalent  to a cutoff of   9.24,  9.24,  9.31 a.u.
   NGXF,Y,Z  is equivalent  to a cutoff of  18.48, 18.48, 18.62 a.u.

 SYSTEM =  unknown system                          
 POSCAR =  C    H    N    O                        

 Startparameter for this run:
   NWRITE =      2    write-flag & timer
   PREC   = normal    normal or accurate (medium, high low for compatibility)
   ISTART =      0    job   : 0-new  1-cont  2-samecut
   ICHARG =      2    charge: 1-file 2-atom 10-const
   ISPIN  =      2    spin polarized calculation?
   LNONCOLLINEAR =      F non collinear calculations
   LSORBIT =      F    spin-orbit coupling
   INIWAV =      1    electr: 0-lowe 1-rand  2-diag
   LASPH  =      T    aspherical Exc in radial PAW
 Electronic Relaxation 1
   ENCUT  =  520.0 eV  38.22 Ry    6.18 a.u.  32.11 32.11 27.89*2*pi/ulx,y,z
   ENINI  =  520.0     initial cutoff
   ENAUG  =  644.9 eV  augmentation charge cutoff
   NELM   =    200;   NELMIN=  2; NELMDL= -5     # of ELM steps 
   EDIFF  = 0.1E-05   stopping-criterion for ELM
   LREAL  =      T    real-space projection
   NLSPLINE    = F    spline interpolate recip. space projectors
   LCOMPAT=      F    compatible to vasp.4.4
   GGA_COMPAT  = T    GGA compatible to vasp.4.4-vasp.4.6
   LMAXPAW     = -100 max onsite density
   LMAXMIX     =    2 max onsite mixed and CHGCAR
   VOSKOWN=      0    Vosko Wilk Nusair interpolation
   ROPT   =   -0.00050  -0.00050  -0.00050  -0.00050
 Ionic relaxation
   EDIFFG = -.3E-01   stopping-criterion for IOM
   NSW    =   1000    number of steps for IOM
   NBLOCK =      1;   KBLOCK =   1000    inner block; outer block 
   IBRION =      3    ionic relax: 0-MD 1-quasi-New 2-CG
   NFREE  =      0    steps in history (QN), initial steepest desc. (CG)
   ISIF   =      2    stress and relaxation
   IWAVPR =     11    prediction:  0-non 1-charg 2-wave 3-comb
   ISYM   =      0    0-nonsym 1-usesym 2-fastsym
   LCORR  =      T    Harris-Foulkes like correction to forces

   POTIM  = 0.5000    time-step for ionic-motion
   TEIN   =    0.0    initial temperature
   TEBEG  =    0.0;   TEEND  =   0.0 temperature during run
   SMASS  =  -3.00    Nose mass-parameter (am)
   estimated Nose-frequenzy (Omega)   =  0.10E-29 period in steps = 0.13E+47 mass=  -0.682E-26a.u.
   SCALEE = 1.0000    scale energy and forces
   NPACO  =    256;   APACO  = 10.0  distance and # of slots for P.C.
   PSTRESS=    0.0 pullay stress

  Mass of Ions in am
   POMASS =  12.01  1.00 14.00 16.00
  Ionic Valenz
   ZVAL   =   4.00  1.00  5.00  6.00
  Atomic Wigner-Seitz radii
   RWIGS  =  -1.00 -1.00 -1.00 -1.00
  virtual crystal weights 
   VCA    =   1.00  1.00  1.00  1.00
   NELECT =     368.0000    total number of electrons
   NUPDOWN=      -1.0000    fix difference up-down

 DOS related values:
   EMIN   =  10.00;   EMAX   =-10.00  energy-range for DOS
   EFERMI =   0.00;   METHOD = LEGACY      
   ISMEAR =     0;   SIGMA  =   0.05  broadening in eV -4-tet -1-fermi 0-gaus

 Electronic relaxation 2 (details)
   IALGO  =     38    algorithm
   LDIAG  =      T    sub-space diagonalisation (order eigenvalues)
   LSUBROT=      F    optimize rotation matrix (better conditioning)
   TURBO    =      0    0=normal 1=particle mesh
   IRESTART =      0    0=no restart 2=restart with 2 vectors
   NREBOOT  =      0    no. of reboots
   NMIN     =      0    reboot dimension
   EREF     =   0.00    reference energy to select bands
   IMIX   =      4    mixing-type and parameters
     AMIX     =   0.20;   BMIX     =  0.00
     AMIX_MAG =   0.80;   BMIX_MAG =  0.00
     AMIN     =   0.10
     WC   =   100.;   INIMIX=   1;  MIXPRE=   1;  MAXMIX= -45

 Intra band minimization:
   WEIMIN = 0.0010     energy-eigenvalue tresh-hold
   EBREAK =  0.94E-09  absolut break condition
   DEPER  =   0.30     relativ break condition  

   TIME   =   0.40     timestep for ELM

  volume/ion in A,a.u.               =      40.79       275.25
  Fermi-wavevector in a.u.,A,eV,Ry     =   0.746915  1.411465  7.590446  0.557882
  Thomas-Fermi vector in A             =   1.842848
 
 Write flags
   LWAVE        =      F    write WAVECAR
   LDOWNSAMPLE  =      F    k-point downsampling of WAVECAR
   LCHARG       =      F    write CHGCAR
   LVTOT        =      F    write LOCPOT, total local potential
   LVHAR        =      F    write LOCPOT, Hartree potential only
   LELF         =      F    write electronic localiz. function (ELF)
   LORBIT       =      0    0 simple, 1 ext, 2 COOP (PROOUT), +10 PAW based schemes


 Dipole corrections
   LMONO  =      F    monopole corrections only (constant potential shift)
   LDIPOL =      F    correct potential (dipole corrections)
   IDIPOL =      0    1-x, 2-y, 3-z, 4-all directions 
   EPSILON=  1.0000000 bulk dielectric constant

 Exchange correlation treatment:
   GGA     =    --    GGA type
   LEXCH   =     8    internal setting for exchange type
   LIBXC   =     F    Libxc                    
   VOSKOWN =     0    Vosko Wilk Nusair interpolation
   LHFCALC =     F    Hartree Fock is set to
   LHFONE  =     F    Hartree Fock one center treatment
   AEXX    =    0.0000 exact exchange contribution

 Linear response parameters
   LEPSILON=     F    determine dielectric tensor
   LRPA    =     F    only Hartree local field effects (RPA)
   LNABLA  =     F    use nabla operator in PAW spheres
   LVEL    =     F    velocity operator in full k-point grid
   CSHIFT  =0.1000    complex shift for real part using Kramers Kronig
   OMEGAMAX=  -1.0    maximum frequency
   DEG_THRESHOLD= 0.2000000E-02 threshold for treating states as degnerate
   RTIME   =   -0.100 relaxation time in fs
  (WPLASMAI=    0.000 imaginary part of plasma frequency in eV, 0.658/RTIME)
   DFIELD  = 0.0000000 0.0000000 0.0000000 field for delta impulse in time
 
  Optional k-point grid parameters
   LKPOINTS_OPT  =     F    use optional k-point grid
   KPOINTS_OPT_MODE=     1    mode for optional k-point grid
 
 Orbital magnetization related:
   ORBITALMAG=     F  switch on orbital magnetization
   LCHIMAG   =     F  perturbation theory with respect to B field
   DQ        =  0.001000  dq finite difference perturbation B field
   LLRAUG    =     F  two centre corrections for induced B field
   LBONE     =     F  B-component reconstruction in AE one-centre
   LVGVCALC  =     T  calculate vGv susceptibility
   LVGVAPPL  =     F  apply vGv susceptibility instead of pGv for G=0

 Random number generation:
   RANDOM_GENERATOR = DEFAULT
   PCG_SEED         = not used


--------------------------------------------------------------------------------------------------------


 quickmin algorithm: (dynamic with friction)
   using selective dynamics as specified on POSCAR
 charge density and potential will be updated during run
 spin polarized calculation
 Variant of blocked Davidson
 Davidson routine will perform the subspace rotation
 perform sub-space diagonalisation
    after iterative eigenvector-optimisation
 modified Broyden-mixing scheme, WC =      100.0
 initial mixing is a Kerker type mixing with AMIX =  0.2000 and BMIX =      0.0001
 Hartree-type preconditioning will be used
 using additional bands           81
 real space projection scheme for non local part
 use partial core corrections
 calculate Harris-corrections to forces 
   (improved forces if not selfconsistent)
 use gradient corrections 
 use of overlap-Matrix (Vanderbilt PP)
 Gauss-broadening in eV      SIGMA  =   0.05


--------------------------------------------------------------------------------------------------------


  energy-cutoff  :      520.00
  volume of cell :     3874.88
      direct lattice vectors                 reciprocal lattice vectors
    17.271038055  0.000000000  0.000000000     0.057900399  0.033428811  0.000000000
    -8.635519028 14.957157706  0.000000000     0.000000000  0.066857622  0.000000000
     0.000000000  0.000000000 15.000000000     0.000000000  0.000000000  0.066666667

  length of vectors
    17.271038055 17.271038055 15.000000000     0.066857622  0.066857622  0.066666667


 
 k-points in units of 2pi/SCALE and weight: Automatic mesh                          
   0.00000000  0.00000000  0.00000000       0.250
   0.02895020  0.01671441  0.00000000       0.250
   0.00000000  0.03342881  0.00000000       0.250
   0.02895020  0.05014322  0.00000000       0.250
 
 k-points in reciprocal lattice and weights: Automatic mesh                          
   0.00000000  0.00000000  0.00000000       0.250
   0.50000000  0.00000000  0.00000000       0.250
   0.00000000  0.50000000  0.00000000       0.250
   0.50000000  0.50000000  0.00000000       0.250
 
 position of ions in fractional coordinates (direct lattice) 
   0.00138300  0.00062601  0.50009255
   0.00086206  0.14308170  0.49997771
   0.00052461  0.28592601  0.49988398
   0.00086695  0.42911830  0.49997553
   0.00135902  0.57208211  0.50006747
   0.00173813  0.71493802  0.50010254
   0.00178341  0.85820310  0.50009348
   0.14517356  0.00179263  0.50001693
   0.14472657  0.14447159  0.49994569
   0.14285976  0.28591708  0.49982555
   0.14281885  0.42828787  0.49988827
   0.14471318  0.57157033  0.50000187
   0.14514090  0.71469854  0.50004972
   0.14507334  0.85820943  0.50002359
   0.28804542  0.00182701  0.49996526
   0.28835161  0.14650726  0.49995488
   0.28763983  0.29261305  0.49993275
   0.28537975  0.42835491  0.49991375
   0.28762515  0.56635491  0.49997840
   0.28833244  0.71323225  0.50002803
   0.28804300  0.85761943  0.50000622
   0.43057248  0.00098023  0.49997450
   0.43123488  0.14560033  0.49992084
   0.43050351  0.28717497  0.49999132
   0.43044251  0.71467446  0.50010845
   0.43124978  0.85704795  0.50005623
   0.57289481  0.00055721  0.50002444
   0.57289311  0.14371269  0.49995129
   0.57659066  0.29021285  0.49995167
   0.57659125  0.85772188  0.50013421
   0.71579218  0.00095845  0.50010479
   0.71564003  0.14348571  0.49999538
   0.71582697  0.28618745  0.49994912
   0.71182825  0.42568128  0.50000793
   0.71610270  0.57242119  0.50012216
   0.71612892  0.71506212  0.50025956
   0.71185686  0.85751855  0.50020563
   0.85816503  0.00023791  0.50018922
   0.85816327  0.14329992  0.50002838
   0.85817877  0.28618320  0.49996478
   0.85816237  0.42926257  0.50001171
   0.85737019  0.57150179  0.50011229
   0.85880683  0.71508611  0.50013720
   0.85741108  0.85725101  0.50018546
   0.04918290  0.09607419  0.50000505
   0.04772923  0.23809136  0.49986403
   0.04772634  0.38097477  0.49989484
   0.04916282  0.52443259  0.50001298
   0.04952286  0.66741981  0.50007454
   0.04942647  0.81038452  0.50007147
   0.04957058  0.95348899  0.50007615
   0.19279937  0.09723028  0.49997997
   0.19171019  0.23997933  0.49987981
   0.18973166  0.38055519  0.49985762
   0.19170535  0.52306184  0.49995858
   0.19276408  0.66688666  0.50002523
   0.19276483  0.81032181  0.50002714
   0.19278358  0.95380209  0.49999813
   0.33586239  0.09823573  0.49993584
   0.33691187  0.24305888  0.49996947
   0.33686870  0.66520447  0.50002836
   0.33584429  0.80903152  0.50003516
   0.33518671  0.95330536  0.49997949
   0.47790478  0.09648658  0.49993001
   0.47873251  0.24155471  0.49995260
   0.47871155  0.80853828  0.50010678
   0.47791240  0.95283447  0.50001653
   0.62020716  0.09578687  0.49999306
   0.62105680  0.23928745  0.49993312
   0.62105411  0.95311751  0.50007614
   0.76329588  0.09618058  0.50004538
   0.76333452  0.23845322  0.49996888
   0.76267474  0.38102783  0.49998295
   0.76082777  0.52397519  0.50006561
   0.76294982  0.66715353  0.50018232
   0.76087179  0.80824014  0.50024084
   0.76269573  0.95300799  0.50018559
   0.90561096  0.09527195  0.50007913
   0.90548684  0.23837637  0.49995137
   0.90561513  0.38166004  0.49998934
   0.90581489  0.52461801  0.50007410
   0.90586144  0.66702527  0.50013657
   0.90590237  0.81022853  0.50014123
   0.90585322  0.95258241  0.50018305
   0.46876394  0.35985997  0.50004318
   0.64320278  0.67721711  0.50027269
   0.64317084  0.53736332  0.50011818
   0.46867106  0.68021068  0.50015844
   0.46381233  0.55997491  0.50000295
   0.46302994  0.47438972  0.49999419
   0.33165767  0.38293198  0.49994107
   0.33167254  0.52007494  0.49996143
   0.62183620  0.38054411  0.49999140
   0.62185041  0.81264669  0.50018546
   0.50712026  0.53874614  0.50000005
 
 position of ions in cartesian coordinates  (Angst):
   0.01847999  0.00936330  7.50138832
  -1.22069605  2.14009552  7.49966572
  -2.46005903  4.27664047  7.49825971
  -3.69068612  6.41839015  7.49963301
  -4.91675417  8.55672228  7.50101201
  -6.14384163 10.69344071  7.50153810
  -7.38022779 12.83627912  7.50140224
   2.49181779  0.02681266  7.50025394
   1.25199086  2.16088439  7.49918542
  -0.00170609  4.27650688  7.49738331
  -1.23185822  6.40596922  7.49832410
  -2.43645971  8.54906757  7.50002806
  -3.66505880 10.68985877  7.50074576
  -4.90551661 12.83637378  7.50035382
   4.95906625  0.02732688  7.49947895
   3.71496530  2.19133226  7.49932320
   2.44097285  4.37665956  7.49899124
   1.22973750  6.40697191  7.49870629
   0.07681624  8.47105971  7.49967601
  -1.17933014 10.66792720  7.50042045
  -2.43118731 12.82754904  7.50009323
   7.42796886  0.01466150  7.49961749
   6.19053959  2.17776711  7.49881254
   4.95533753  4.29532128  7.49986977
   1.26260411 10.68949864  7.50162679
   0.04707749 12.81900133  7.50084350
   9.88967630  0.00833421  7.50036662
   8.65342506  2.14953334  7.49926937
   7.45218069  4.34075934  7.49927505
   2.55145584 12.82908144  7.50201318
  12.35419725  0.01433567  7.50157190
  11.12077252  2.14613841  7.49993069
   9.89169772  4.28055084  7.49923680
   8.61803403  6.36698202  7.50011901
   7.42468284  8.56179407  7.50183247
   6.19335722 10.69529697  7.50389340
   4.88938917 12.82604014  7.50308442
  14.81934644  0.00355843  7.50283823
  13.58390136  2.14335945  7.50042566
  12.35029783  4.28048721  7.49947163
  11.11444989  6.42054792  7.50017568
   9.87245870  8.54804236  7.50168429
   8.65734574 10.69565579  7.50205807
   7.40557204 12.82203848  7.50278190
   0.01978920  1.43699680  7.50007574
  -1.23170905  3.56116996  7.49796051
  -2.46563152  5.69829974  7.49842267
  -3.67965473  7.84402101  7.50019468
  -4.90820532  9.98270340  7.50111812
  -6.14444454 12.12104913  7.50107208
  -7.37773692 14.26148523  7.50114219
   2.49021136  1.45428857  7.49969958
   1.23868787  3.58940874  7.49819713
  -0.00942893  5.69202405  7.49786429
  -1.20596013  7.82351846  7.49937868
  -2.42967665  9.97472901  7.50037839
  -3.66830077 12.12011115  7.50040709
  -4.90700347 14.26616827  7.49997202
   4.95237548  1.46932738  7.49903758
   3.71987820  3.63546999  7.49954212
   0.07368631  9.94956817  7.50042543
  -1.18602767 12.10081210  7.50052738
  -2.44326422 14.25873866  7.49969241
   7.42069986  1.44316499  7.49895009
   6.18225710  3.61297190  7.49928896
   1.28569768 12.09343456  7.50160164
   0.02582306 14.25169546  7.50024799
   9.88445222  1.43269927  7.49989587
   8.65992426  3.57906009  7.49899674
   2.49558474 14.25592893  7.50114217
  12.35234285  1.43858817  7.50068067
  11.12441226  3.56658240  7.49953327
   9.88181129  5.69909335  7.49974429
   8.61548776  7.83717949  7.50098415
   7.41571838  9.97872063  7.50273481
   6.16147257 12.08897528  7.50361253
   4.94282838 14.25429082  7.50278382
  14.81811854  1.42499762  7.50118698
  13.58019400  3.56543292  7.49927058
  12.34508089  5.70854934  7.49984011
  11.11401456  7.84679433  7.50111148
   9.88505804  9.97680219  7.50204848
   8.64913049 12.11871590  7.50211839
   7.41898186 14.24792529  7.50274571
   4.98846227  5.38248230  7.50064766
   5.26065850 10.12924315  7.50409038
   6.46781690  8.03742790  7.50177267
   2.22046347 10.17401844  7.50237664
   3.17484646  8.37563302  7.50004432
   3.90040633  7.09552179  7.49991280
   2.42125576  5.72757409  7.49911609
   1.23721206  7.77884294  7.49942141
   7.45356087  5.69185820  7.49987102
   3.72237604 12.15488474  7.50278194
   4.10614074  8.05811093  7.50000068
 


--------------------------------------------------------------------------------------------------------


 k-point   1 :   0.0000 0.0000 0.0000  plane waves:  104449
 k-point   2 :   0.5000 0.0000 0.0000  plane waves:  104264
 k-point   3 :   0.0000 0.5000 0.0000  plane waves:  104264
 k-point   4 :   0.5000 0.5000 0.0000  plane waves:  104264

 maximum and minimum number of plane-waves per node :    104449   104264

 maximum number of plane-waves:    104449
 maximum index in each direction: 
   IXMAX=   32   IYMAX=   32   IZMAX=   27
   IXMIN=  -32   IYMIN=  -32   IZMIN=  -27


 serial   3D FFT for wavefunctions
 parallel 3D FFT for charge:
    minimum data exchange during FFTs selected (reduces bandwidth)


 total amount of memory used by VASP MPI-rank0  1122555. kBytes
=======================================================================

   base      :      30000. kBytes
   nonlr-proj:       8928. kBytes
   fftplans  :     185212. kBytes
   grid      :     184190. kBytes
   one-center:        583. kBytes
   wavefun   :     713642. kBytes
 
     INWAV:  cpu time      0.0001: real time      0.0001
 Broyden mixing: mesh for mixing (old mesh)
   NGX = 65   NGY = 65   NGZ = 55
  (NGX  =192   NGY  =192   NGZ  =168)
  gives a total of 232375 points

 initial charge density was supplied:
 charge density of overlapping atoms calculated
 number of electron     368.0000000 magnetization      57.0000000
 keeping initial charge density in first step


--------------------------------------------------------------------------------------------------------


 Maximum index for non-local projection operator         1577
 Maximum index for augmentation-charges         4052 (set IRDMAX)


--------------------------------------------------------------------------------------------------------


 First call to EWALD:  gamma=   0.113
 Maximum number of real-space cells 3x 3x 3
 Maximum number of reciprocal cells 3x 3x 3

    FEWALD:  cpu time      0.0046: real time      0.0046


--------------------------------------- Ionic step        1  -------------------------------------------




--------------------------------------- Iteration      1(   1)  ---------------------------------------


    POTLOK:  cpu time      2.9379: real time      2.9917
    SETDIJ:  cpu time      2.4518: real time      2.4618
     EDDAV:  cpu time    106.3465: real time    107.0197
       DOS:  cpu time      0.0023: real time      0.0172
    --------------------------------------------
      LOOP:  cpu time    111.7386: real time    112.4906

 eigenvalue-minimisations  :  4590
 total energy-change (2. order) : 0.3279382E+04  (-0.1375865E+05)
 number of electron     368.0000000 magnetization      57.0000000
 augmentation part      368.0000000 magnetization      57.0000000

 Free energy of the ion-electron system (eV)
  ---------------------------------------------------
  alpha Z        PSCENC =       175.60570339
  Ewald energy   TEWEN  =     36628.64605847
  -Hartree energ DENC   =    -47038.51223973
  -exchange      EXHF   =         0.00000000
  -V(xc)+E(xc)   XCENC  =      1231.37726174
  PAW double counting   =     10290.17603344   -10344.35078173
  entropy T*S    EENTRO =        -0.03678510
  eigenvalues    EBANDS =     -1589.45450295
  atomic energy  EATOM  =     13925.93113153
  Solvation  Ediel_sol  =         0.00000000
  ---------------------------------------------------
  free energy    TOTEN  =      3279.38187906 eV

  energy without entropy =     3279.41866416  energy(sigma->0) =     3279.40027161


--------------------------------------------------------------------------------------------------------




--------------------------------------- Iteration      1(   2)  ---------------------------------------


     EDDAV:  cpu time    135.0623: real time    136.0007
       DOS:  cpu time      0.0011: real time      0.0149
    --------------------------------------------
      LOOP:  cpu time    135.0635: real time    136.0156

 eigenvalue-minimisations  :  6410
 total energy-change (2. order) :-0.3513966E+04  (-0.3309683E+04)
 number of electron     368.0000000 magnetization      57.0000000
 augmentation part      368.0000000 magnetization      57.0000000

 Free energy of the ion-electron system (eV)
  ---------------------------------------------------
  alpha Z        PSCENC =       175.60570339
  Ewald energy   TEWEN  =     36628.64605847
  -Hartree energ DENC   =    -47038.51223973
  -exchange      EXHF   =         0.00000000
  -V(xc)+E(xc)   XCENC  =      1231.37726174
  PAW double counting   =     10290.17603344   -10344.35078173
  entropy T*S    EENTRO =        -0.00007894
  eigenvalues    EBANDS =     -5103.45678854
  atomic energy  EATOM  =     13925.93113153
  Solvation  Ediel_sol  =         0.00000000
  ---------------------------------------------------
  free energy    TOTEN  =      -234.58370038 eV

  energy without entropy =     -234.58362144  energy(sigma->0) =     -234.58366091


--------------------------------------------------------------------------------------------------------




--------------------------------------- Iteration      1(   3)  ---------------------------------------


     EDDAV:  cpu time    117.6708: real time    118.4569
       DOS:  cpu time      0.0013: real time      0.0155
    --------------------------------------------
      LOOP:  cpu time    117.6721: real time    118.4724

 eigenvalue-minimisations  :  5330
 total energy-change (2. order) :-0.6186859E+03  (-0.6158442E+03)
 number of electron     368.0000000 magnetization      57.0000000
 augmentation part      368.0000000 magnetization      57.0000000

 Free energy of the ion-electron system (eV)
  ---------------------------------------------------
  alpha Z        PSCENC =       175.60570339
  Ewald energy   TEWEN  =     36628.64605847
  -Hartree energ DENC   =    -47038.51223973
  -exchange      EXHF   =         0.00000000
  -V(xc)+E(xc)   XCENC  =      1231.37726174
  PAW double counting   =     10290.17603344   -10344.35078173
  entropy T*S    EENTRO =        -0.00002188
  eigenvalues    EBANDS =     -5722.14276357
  atomic energy  EATOM  =     13925.93113153
  Solvation  Ediel_sol  =         0.00000000
  ---------------------------------------------------
  free energy    TOTEN  =      -853.26961834 eV

  energy without entropy =     -853.26959646  energy(sigma->0) =     -853.26960740


--------------------------------------------------------------------------------------------------------




--------------------------------------- Iteration      1(   4)  ---------------------------------------


     EDDAV:  cpu time    117.0278: real time    117.8630
       DOS:  cpu time      0.0011: real time      0.0144
    --------------------------------------------
      LOOP:  cpu time    117.0289: real time    117.8773

 eigenvalue-minimisations  :  5350
 total energy-change (2. order) :-0.2196804E+02  (-0.2188446E+02)
 number of electron     368.0000000 magnetization      57.0000000
 augmentation part      368.0000000 magnetization      57.0000000

 Free energy of the ion-electron system (eV)
  ---------------------------------------------------
  alpha Z        PSCENC =       175.60570339
  Ewald energy   TEWEN  =     36628.64605847
  -Hartree energ DENC   =    -47038.51223973
  -exchange      EXHF   =         0.00000000
  -V(xc)+E(xc)   XCENC  =      1231.37726174
  PAW double counting   =     10290.17603344   -10344.35078173
  entropy T*S    EENTRO =        -0.00006841
  eigenvalues    EBANDS =     -5744.11075328
  atomic energy  EATOM  =     13925.93113153
  Solvation  Ediel_sol  =         0.00000000
  ---------------------------------------------------
  free energy    TOTEN  =      -875.23765458 eV

  energy without entropy =     -875.23758617  energy(sigma->0) =     -875.23762037


--------------------------------------------------------------------------------------------------------




--------------------------------------- Iteration      1(   5)  ---------------------------------------


     EDDAV:  cpu time    129.1263: real time    130.0335
       DOS:  cpu time      0.0013: real time      0.0149
    CHARGE:  cpu time      7.8632: real time      7.9085
    MIXING:  cpu time      0.1520: real time      0.1545
    --------------------------------------------
      LOOP:  cpu time    137.1430: real time    138.1114

 eigenvalue-minimisations  :  6040
 total energy-change (2. order) :-0.6476593E+00  (-0.6468227E+00)
 number of electron     367.9999997 magnetization      12.2004918
 augmentation part       10.7794067 magnetization      11.2819167

 Broyden mixing:
  rms(total) = 0.51338E+01    rms(broyden)= 0.51332E+01
  rms(prec ) = 0.55809E+01
  weight for this iteration     100.00

 Free energy of the ion-electron system (eV)
  ---------------------------------------------------
  alpha Z        PSCENC =       175.60570339
  Ewald energy   TEWEN  =     36628.64605847
  -Hartree energ DENC   =    -47038.51223973
  -exchange      EXHF   =         0.00000000
  -V(xc)+E(xc)   XCENC  =      1231.37726174
  PAW double counting   =     10290.17603344   -10344.35078173
  entropy T*S    EENTRO =        -0.00007287
  eigenvalues    EBANDS =     -5744.75840808
  atomic energy  EATOM  =     13925.93113153
  Solvation  Ediel_sol  =         0.00000000
  ---------------------------------------------------
  free energy    TOTEN  =      -875.88531384 eV

  energy without entropy =     -875.88524097  energy(sigma->0) =     -875.88527740


--------------------------------------------------------------------------------------------------------




--------------------------------------- Iteration      1(   6)  ---------------------------------------


    POTLOK:  cpu time      3.3505: real time      3.4268
    SETDIJ:  cpu time      3.7371: real time      3.7576
     EDDAV:  cpu time    116.6588: real time    117.4025
       DOS:  cpu time      0.0012: real time      0.0167
    CHARGE:  cpu time      7.9876: real time      8.0362
    MIXING:  cpu time      0.1229: real time      0.1235
    --------------------------------------------
      LOOP:  cpu time    131.8580: real time    132.7634

 eigenvalue-minimisations  :  5170
 total energy-change (2. order) : 0.1633696E+02  (-0.2109852E+01)
 number of electron     367.9999997 magnetization      -5.7416066
 augmentation part       10.3970719 magnetization      -5.7322362

 Broyden mixing:
  rms(total) = 0.33408E+01    rms(broyden)= 0.33407E+01
  rms(prec ) = 0.36710E+01
  weight for this iteration     100.00

 eigenvalues of (default mixing * dielectric matrix)
  average eigenvalue GAMMA=   1.4251
  1.4251

 Free energy of the ion-electron system (eV)
  ---------------------------------------------------
  alpha Z        PSCENC =       175.60570339
  Ewald energy   TEWEN  =     36628.64605847
  -Hartree energ DENC   =    -47484.28090987
  -exchange      EXHF   =         0.00000000
  -V(xc)+E(xc)   XCENC  =      1241.46311381
  PAW double counting   =     13979.99283897   -14037.96455291
  entropy T*S    EENTRO =        -0.00000190
  eigenvalues    EBANDS =     -5288.94173404
  atomic energy  EATOM  =     13925.93113153
  Solvation  Ediel_sol  =         0.00000000
  ---------------------------------------------------
  free energy    TOTEN  =      -859.54835257 eV

  energy without entropy =     -859.54835066  energy(sigma->0) =     -859.54835161


--------------------------------------------------------------------------------------------------------




--------------------------------------- Iteration      1(   7)  ---------------------------------------


    POTLOK:  cpu time      3.4214: real time      3.4967
    SETDIJ:  cpu time      3.6159: real time      3.6328
     EDDAV:  cpu time    111.6655: real time    112.3808
       DOS:  cpu time      0.0013: real time      0.0761
    CHARGE:  cpu time      7.9414: real time      7.9911
    MIXING:  cpu time      0.1944: real time      0.1952
    --------------------------------------------
      LOOP:  cpu time    126.8399: real time    127.7725

 eigenvalue-minimisations  :  5000
 total energy-change (2. order) : 0.2107454E+02  (-0.3154605E+01)
 number of electron     367.9999998 magnetization       1.2622853
 augmentation part        9.9346288 magnetization       1.2637354

 Broyden mixing:
  rms(total) = 0.20231E+01    rms(broyden)= 0.20230E+01
  rms(prec ) = 0.21428E+01
  weight for this iteration     100.00

 eigenvalues of (default mixing * dielectric matrix)
  average eigenvalue GAMMA=   2.4610
  1.2989  3.6231

 Free energy of the ion-electron system (eV)
  ---------------------------------------------------
  alpha Z        PSCENC =       175.60570339
  Ewald energy   TEWEN  =     36628.64605847
  -Hartree energ DENC   =    -48069.11981169
  -exchange      EXHF   =         0.00000000
  -V(xc)+E(xc)   XCENC  =      1262.40874085
  PAW double counting   =     20734.97268051   -20797.28415426
  entropy T*S    EENTRO =        -0.00000002
  eigenvalues    EBANDS =     -4699.63415910
  atomic energy  EATOM  =     13925.93113153
  Solvation  Ediel_sol  =         0.00000000
  ---------------------------------------------------
  free energy    TOTEN  =      -838.47381031 eV

  energy without entropy =     -838.47381029  energy(sigma->0) =     -838.47381030


--------------------------------------------------------------------------------------------------------




--------------------------------------- Iteration      1(   8)  ---------------------------------------


    POTLOK:  cpu time      3.3583: real time      3.4057
    SETDIJ:  cpu time      3.7151: real time      3.7327
     EDDAV:  cpu time    113.7310: real time    114.4723
       DOS:  cpu time      0.0010: real time      0.0157
    CHARGE:  cpu time      7.8902: real time      7.9318
    MIXING:  cpu time      0.1057: real time      0.1062
    --------------------------------------------
      LOOP:  cpu time    128.8014: real time    129.6643

 eigenvalue-minimisations  :  5100
 total energy-change (2. order) : 0.4727057E+01  (-0.2211184E+01)
 number of electron     367.9999998 magnetization      -0.3208865
 augmentation part        9.5882641 magnetization      -0.3222137

 Broyden mixing:
  rms(total) = 0.81951E+00    rms(broyden)= 0.81940E+00
  rms(prec ) = 0.83977E+00
  weight for this iteration     100.00

 eigenvalues of (default mixing * dielectric matrix)
  average eigenvalue GAMMA=   2.4019
  4.3573  1.3537  1.4945

 Free energy of the ion-electron system (eV)
  ---------------------------------------------------
  alpha Z        PSCENC =       175.60570339
  Ewald energy   TEWEN  =     36628.64605847
  -Hartree energ DENC   =    -48585.76614002
  -exchange      EXHF   =         0.00000000
  -V(xc)+E(xc)   XCENC  =      1282.14677024
  PAW double counting   =     30919.56801178   -30985.47225260
  entropy T*S    EENTRO =        -0.00000000
  eigenvalues    EBANDS =     -4194.40603601
  atomic energy  EATOM  =     13925.93113153
  Solvation  Ediel_sol  =         0.00000000
  ---------------------------------------------------
  free energy    TOTEN  =      -833.74675321 eV

  energy without entropy =     -833.74675321  energy(sigma->0) =     -833.74675321


--------------------------------------------------------------------------------------------------------




--------------------------------------- Iteration      1(   9)  ---------------------------------------


    POTLOK:  cpu time      3.3268: real time      3.3677
    SETDIJ:  cpu time      3.7410: real time      3.7574
     EDDAV:  cpu time    112.9984: real time    113.7097
       DOS:  cpu time      0.0010: real time      0.0148
    CHARGE:  cpu time      7.9506: real time      8.0024
    MIXING:  cpu time      0.1353: real time      0.1393
    --------------------------------------------
      LOOP:  cpu time    128.1533: real time    128.9915

 eigenvalue-minimisations  :  5100
 total energy-change (2. order) :-0.1439366E-01  (-0.9206295E-01)
 number of electron     367.9999998 magnetization      -0.0143060
 augmentation part        9.5751997 magnetization      -0.0143918

 Broyden mixing:
  rms(total) = 0.38782E+00    rms(broyden)= 0.38780E+00
  rms(prec ) = 0.40746E+00
  weight for this iteration     100.00

 eigenvalues of (default mixing * dielectric matrix)
  average eigenvalue GAMMA=   2.4070
  4.6989  1.0866  1.2299  2.6124

 Free energy of the ion-electron system (eV)
  ---------------------------------------------------
  alpha Z        PSCENC =       175.60570339
  Ewald energy   TEWEN  =     36628.64605847
  -Hartree energ DENC   =    -48587.80994144
  -exchange      EXHF   =         0.00000000
  -V(xc)+E(xc)   XCENC  =      1282.89110290
  PAW double counting   =     34704.41121904   -34770.26536334
  entropy T*S    EENTRO =        -0.00000000
  eigenvalues    EBANDS =     -4193.17105742
  atomic energy  EATOM  =     13925.93113153
  Solvation  Ediel_sol  =         0.00000000
  ---------------------------------------------------
  free energy    TOTEN  =      -833.76114687 eV

  energy without entropy =     -833.76114687  energy(sigma->0) =     -833.76114687


--------------------------------------------------------------------------------------------------------




--------------------------------------- Iteration      1(  10)  ---------------------------------------


    POTLOK:  cpu time      3.3310: real time      3.3898
    SETDIJ:  cpu time      3.7257: real time      3.7412
     EDDAV:  cpu time    109.8229: real time    110.5253
       DOS:  cpu time      0.0010: real time      0.0146
    CHARGE:  cpu time      7.9379: real time      7.9868
    MIXING:  cpu time      0.1434: real time      0.1441
    --------------------------------------------
      LOOP:  cpu time    124.9619: real time    125.8018

 eigenvalue-minimisations  :  4890
 total energy-change (2. order) : 0.1343164E+00  (-0.4129056E-01)
 number of electron     367.9999998 magnetization       0.0179996
 augmentation part        9.6094401 magnetization       0.0180408

 Broyden mixing:
  rms(total) = 0.11519E+00    rms(broyden)= 0.11518E+00
  rms(prec ) = 0.12616E+00
  weight for this iteration     100.00

 eigenvalues of (default mixing * dielectric matrix)
  average eigenvalue GAMMA=   2.3340
  4.7554  3.1573  0.9772  1.2607  1.5196

 Free energy of the ion-electron system (eV)
  ---------------------------------------------------
  alpha Z        PSCENC =       175.60570339
  Ewald energy   TEWEN  =     36628.64605847
  -Hartree energ DENC   =    -48522.72254695
  -exchange      EXHF   =         0.00000000
  -V(xc)+E(xc)   XCENC  =      1280.97275531
  PAW double counting   =     36709.14114658   -36774.45202452
  entropy T*S    EENTRO =        -0.00000000
  eigenvalues    EBANDS =     -4256.74905428
  atomic energy  EATOM  =     13925.93113153
  Solvation  Ediel_sol  =         0.00000000
  ---------------------------------------------------
  free energy    TOTEN  =      -833.62683048 eV

  energy without entropy =     -833.62683048  energy(sigma->0) =     -833.62683048


--------------------------------------------------------------------------------------------------------




--------------------------------------- Iteration      1(  11)  ---------------------------------------


    POTLOK:  cpu time      3.3617: real time      3.4051
    SETDIJ:  cpu time      3.7552: real time      3.7727
     EDDAV:  cpu time    109.2963: real time    110.0204
       DOS:  cpu time      0.0010: real time      0.0152
    CHARGE:  cpu time      7.9627: real time      8.0144
    MIXING:  cpu time      0.1422: real time      0.1431
    --------------------------------------------
      LOOP:  cpu time    124.5191: real time    125.3709

 eigenvalue-minimisations  :  4920
 total energy-change (2. order) : 0.2030637E-01  (-0.9995634E-02)
 number of electron     367.9999998 magnetization       0.0053936
 augmentation part        9.6141252 magnetization       0.0051460

 Broyden mixing:
  rms(total) = 0.26631E-01    rms(broyden)= 0.26610E-01
  rms(prec ) = 0.30334E-01
  weight for this iteration     100.00

 eigenvalues of (default mixing * dielectric matrix)
  average eigenvalue GAMMA=   2.1885
  4.7483  3.1995  1.7351  1.0009  1.1818  1.2653

 Free energy of the ion-electron system (eV)
  ---------------------------------------------------
  alpha Z        PSCENC =       175.60570339
  Ewald energy   TEWEN  =     36628.64605847
  -Hartree energ DENC   =    -48499.69227406
  -exchange      EXHF   =         0.00000000
  -V(xc)+E(xc)   XCENC  =      1280.25877022
  PAW double counting   =     37134.51150807   -37199.61096419
  entropy T*S    EENTRO =        -0.00000000
  eigenvalues    EBANDS =     -4279.25645753
  atomic energy  EATOM  =     13925.93113153
  Solvation  Ediel_sol  =         0.00000000
  ---------------------------------------------------
  free energy    TOTEN  =      -833.60652410 eV

  energy without entropy =     -833.60652410  energy(sigma->0) =     -833.60652410


--------------------------------------------------------------------------------------------------------




--------------------------------------- Iteration      1(  12)  ---------------------------------------


    POTLOK:  cpu time      3.3159: real time      3.3635
    SETDIJ:  cpu time      3.7376: real time      3.7655
     EDDAV:  cpu time    111.8918: real time    112.6165
       DOS:  cpu time      0.0009: real time      0.0146
    CHARGE:  cpu time      7.8932: real time      7.9413
    MIXING:  cpu time      0.1493: real time      0.1501
    --------------------------------------------
      LOOP:  cpu time    126.9887: real time    127.8516

 eigenvalue-minimisations  :  5230
 total energy-change (2. order) : 0.3155222E-03  (-0.9337968E-03)
 number of electron     367.9999998 magnetization      -0.0074560
 augmentation part        9.6147152 magnetization      -0.0075637

 Broyden mixing:
  rms(total) = 0.14807E-01    rms(broyden)= 0.14803E-01
  rms(prec ) = 0.16599E-01
  weight for this iteration     100.00

 eigenvalues of (default mixing * dielectric matrix)
  average eigenvalue GAMMA=   2.1189
  4.6862  3.2273  2.0476  1.4466  1.0399  1.0909  1.2935

 Free energy of the ion-electron system (eV)
  ---------------------------------------------------
  alpha Z        PSCENC =       175.60570339
  Ewald energy   TEWEN  =     36628.64605847
  -Hartree energ DENC   =    -48499.59632503
  -exchange      EXHF   =         0.00000000
  -V(xc)+E(xc)   XCENC  =      1280.25568473
  PAW double counting   =     37166.11824308   -37231.19835675
  entropy T*S    EENTRO =        -0.00000000
  eigenvalues    EBANDS =     -4279.36834801
  atomic energy  EATOM  =     13925.93113153
  Solvation  Ediel_sol  =         0.00000000
  ---------------------------------------------------
  free energy    TOTEN  =      -833.60620858 eV

  energy without entropy =     -833.60620858  energy(sigma->0) =     -833.60620858


--------------------------------------------------------------------------------------------------------




--------------------------------------- Iteration      1(  13)  ---------------------------------------


    POTLOK:  cpu time      3.3472: real time      3.4015
    SETDIJ:  cpu time      3.6948: real time      3.7147
     EDDAV:  cpu time    110.3677: real time    111.0555
       DOS:  cpu time      0.0010: real time      0.0147
[...]
   0.836E+00 -.200E+02 0.201E+00   -.902E+00 0.201E+02 -.201E+00   0.654E-01 -.185E+00 -.540E-03   0.493E-04 0.220E-03 0.613E-06
   -.154E+02 -.658E+02 -.392E-01   0.156E+02 0.665E+02 0.399E-01   -.227E+00 -.705E+00 -.139E-02   0.596E-04 0.329E-03 0.230E-05
   -.647E+02 0.196E+02 0.246E-01   0.654E+02 -.198E+02 -.256E-01   -.721E+00 0.161E+00 0.821E-03   0.311E-03 -.115E-03 -.242E-05
   -.170E+02 0.108E+02 -.346E-01   0.172E+02 -.109E+02 0.353E-01   -.142E+00 0.146E+00 -.449E-03   0.203E-03 -.659E-04 -.172E-05
   -.241E+01 -.129E+01 0.934E-01   0.236E+01 0.126E+01 -.933E-01   0.497E-01 0.288E-01 0.530E-03   -.184E-03 -.109E-03 -.329E-06
   0.100E+02 -.115E+02 0.260E+00   -.102E+02 0.114E+02 -.261E+00   0.172E+00 0.673E-01 0.162E-02   -.178E-03 0.330E-03 0.639E-06
   0.189E+02 -.654E+02 0.885E-01   -.192E+02 0.661E+02 -.877E-01   0.253E+00 -.745E+00 -.807E-03   0.379E-04 0.190E-03 -.212E-05
   -.472E+02 0.492E+02 -.178E+00   0.477E+02 -.498E+02 0.179E+00   -.520E+00 0.592E+00 -.473E-03   0.200E-03 -.581E-04 -.371E-05
   -.496E+01 0.145E+02 0.302E-01   0.482E+01 -.146E+02 -.304E-01   0.137E+00 0.122E+00 0.950E-03   0.195E-03 -.316E-03 0.779E-06
   0.504E+01 0.289E+01 0.464E-01   -.521E+01 -.299E+01 -.461E-01   0.174E+00 0.100E+00 0.112E-03   -.259E-03 -.153E-03 -.900E-06
   0.254E+02 -.954E+01 0.246E+00   -.259E+02 0.950E+01 -.247E+00   0.515E+00 0.463E-01 0.700E-03   0.284E-03 -.331E-03 0.125E-05
   0.458E+01 0.269E+02 0.157E-01   -.489E+01 -.273E+02 -.162E-01   0.312E+00 0.432E+00 0.558E-03   -.142E-03 0.402E-03 -.119E-05
   0.238E+01 0.103E+02 -.390E-01   -.241E+01 -.102E+02 0.396E-01   0.202E-01 -.644E-01 -.399E-03   0.249E-03 -.494E-03 -.345E-05
   0.101E+02 -.305E+01 0.102E+00   -.101E+02 0.300E+01 -.101E+00   -.399E-01 0.514E-01 -.503E-03   -.290E-03 0.460E-03 -.750E-06
   0.239E+02 -.194E+02 0.113E+00   -.242E+02 0.199E+02 -.112E+00   0.267E+00 -.444E+00 -.469E-03   0.387E-03 -.691E-04 -.213E-05
   0.723E+02 0.941E+01 0.343E-01   -.733E+02 -.950E+01 -.358E-01   0.993E+00 0.859E-01 0.137E-02   0.194E-03 -.345E-03 -.220E-06
   0.831E+02 0.479E+02 -.245E+00   -.837E+02 -.483E+02 0.245E+00   0.624E+00 0.364E+00 -.988E-03   -.432E-03 -.255E-03 -.238E-05
   0.444E+02 0.580E+02 -.421E+00   -.449E+02 -.588E+02 0.422E+00   0.571E+00 0.818E+00 -.114E-02   -.212E-03 0.340E-03 0.200E-05
   -.476E+01 0.305E+02 -.368E+00   0.500E+01 -.309E+02 0.369E+00   -.242E+00 0.458E+00 -.120E-02   0.125E-03 0.364E-03 0.346E-06
   -.286E+00 0.826E+01 -.204E+00   0.356E+00 -.838E+01 0.204E+00   -.706E-01 0.126E+00 -.126E-03   -.130E-03 -.203E-03 0.157E-05
   0.319E+00 0.112E+00 0.163E+00   -.321E+00 -.101E+00 -.163E+00   0.128E-02 -.997E-02 0.151E-02   -.392E-04 -.274E-04 -.243E-05
   0.706E+01 -.440E+01 -.590E-02   -.714E+01 0.453E+01 0.565E-02   0.751E-01 -.124E+00 -.439E-03   -.237E-03 -.129E-04 0.493E-06
   0.206E+02 -.290E+01 -.166E+00   -.207E+02 0.315E+01 0.166E+00   0.858E-01 -.242E+00 -.152E-03   -.407E-03 0.826E-04 -.716E-06
   0.270E+02 0.107E+02 -.251E+00   -.272E+02 -.107E+02 0.252E+00   0.169E+00 0.432E-01 -.337E-03   -.113E-04 -.325E-03 -.804E-06
   0.227E+02 0.181E+02 -.112E+00   -.229E+02 -.183E+02 0.113E+00   0.118E+00 0.129E+00 -.126E-02   -.285E-03 0.153E-03 0.830E-06
   0.783E+01 0.193E+02 -.417E+00   -.766E+01 -.195E+02 0.418E+00   -.165E+00 0.204E+00 -.182E-02   -.132E-03 -.396E-03 0.291E-06
   -.196E+01 -.640E+02 -.824E-01   0.222E+01 0.700E+02 0.859E-01   -.259E+00 -.597E+01 -.444E-02   -.238E-04 -.208E-03 -.953E-08
   0.486E+02 0.368E+02 -.136E+00   -.537E+02 -.400E+02 0.137E+00   0.516E+01 0.314E+01 -.618E-03   0.129E-03 0.177E-04 -.988E-06
   0.561E+02 0.235E+02 -.396E-01   -.614E+02 -.264E+02 0.390E-01   0.531E+01 0.290E+01 0.600E-03   0.806E-04 0.104E-03 0.296E-06
   -.565E+02 0.304E+02 -.116E+00   0.618E+02 -.332E+02 0.120E+00   -.529E+01 0.276E+01 -.425E-02   -.192E-03 0.843E-04 -.684E-07
   0.459E+02 -.368E+02 0.677E-02   -.534E+02 0.395E+02 -.699E-02   0.751E+01 -.261E+01 -.227E-03   0.332E-04 0.164E-04 0.431E-06
   -.799E+01 0.575E+02 0.746E-02   0.639E+01 -.653E+02 -.854E-02   0.162E+01 0.777E+01 0.813E-03   0.297E-04 0.169E-04 0.544E-06
   -.179E+03 -.112E+03 0.374E-01   0.205E+03 0.129E+03 -.219E-01   -.261E+02 -.164E+02 -.155E-01   0.107E-02 0.243E-03 -.186E-05
   -.187E+03 -.991E+02 0.531E-01   0.214E+03 0.114E+03 -.414E-01   -.273E+02 -.145E+02 -.117E-01   0.771E-03 0.805E-03 0.459E-05
   0.195E+03 -.119E+03 0.322E-01   -.224E+03 0.135E+03 -.221E-01   0.285E+02 -.163E+02 -.106E-01   -.203E-03 0.166E-03 0.482E-05
   -.520E+01 0.229E+03 -.329E+00   0.508E+01 -.262E+03 0.338E+00   0.119E+00 0.329E+02 -.938E-02   0.286E-04 -.272E-03 -.418E-05
   -.103E+03 -.597E+02 0.123E+00   0.141E+03 0.816E+02 -.126E+00   -.387E+02 -.219E+02 0.360E-02   0.316E-03 0.194E-03 -.474E-05
 -----------------------------------------------------------------------------------------------
   0.416E+02 0.237E+02 0.540E-01   -.284E-12 0.313E-12 0.583E-15   -.416E+02 -.236E+02 -.599E-01   0.188E-02 0.103E-02 -.820E-05
 
 
 POSITION                                       TOTAL-FORCE (eV/Angst)
 -----------------------------------------------------------------------------------
      0.01848      0.00936      7.50139        -0.000964     -0.000182     -0.000035
     -1.22070      2.14010      7.49967        -0.001231     -0.001836     -0.000317
     -2.46006      4.27664      7.49826        -0.002984     -0.001097     -0.000045
     -3.69069      6.41839      7.49963        -0.003045     -0.004888      0.000474
     -4.91675      8.55672      7.50101        -0.000415     -0.002135     -0.000324
     -6.14384     10.69344      7.50154        -0.001424      0.002534      0.000354
     -7.38023     12.83628      7.50140        -0.000878      0.000554      0.000720
      2.49182      0.02681      7.50025        -0.000953     -0.000158      0.000352
      1.25199      2.16088      7.49919         0.000622     -0.005995      0.000514
     -0.00171      4.27651      7.49738        -0.002688     -0.002258     -0.000367
     -1.23186      6.40597      7.49832        -0.001578     -0.001469     -0.000339
     -2.43646      8.54907      7.50003         0.001186     -0.009671     -0.000126
     -3.66506     10.68986      7.50075         0.001235      0.001058     -0.000888
     -4.90552     12.83637      7.50035        -0.002606      0.003608     -0.000682
      4.95907      0.02733      7.49948        -0.002883      0.000340      0.000173
      3.71497      2.19133      7.49932        -0.001697     -0.002316     -0.000113
      2.44097      4.37666      7.49899        -0.000892     -0.001900     -0.000081
      1.22974      6.40697      7.49871        -0.000363      0.000868     -0.000044
      0.07682      8.47106      7.49968        -0.000409     -0.000865     -0.000090
     -1.17933     10.66793      7.50042         0.001898     -0.002532     -0.000524
     -2.43119     12.82755      7.50009        -0.002036      0.000519      0.000167
      7.42797      0.01466      7.49962        -0.001842     -0.000130      0.000776
      6.19054      2.17777      7.49881        -0.001657     -0.001538      0.000316
      4.95534      4.29532      7.49987        -0.001462     -0.003386     -0.000308
      1.26260     10.68950      7.50163        -0.000353     -0.000203     -0.000188
      0.04708     12.81900      7.50084        -0.000165     -0.000333      0.000513
      9.88968      0.00833      7.50037        -0.000585     -0.000264      0.000565
      8.65343      2.14953      7.49927        -0.000102     -0.000567     -0.001114
      7.45218      4.34076      7.49928        -0.000461     -0.000865     -0.000385
      2.55146     12.82908      7.50201        -0.000480     -0.000391     -0.000096
     12.35420      0.01434      7.50157        -0.001116     -0.000165      0.000079
     11.12077      2.14614      7.49993        -0.000665     -0.000491      0.000328
      9.89170      4.28055      7.49924        -0.000324     -0.001199     -0.000158
      8.61803      6.36698      7.50012        -0.000688     -0.000753      0.000007
      7.42468      8.56179      7.50183        -0.000964     -0.000213     -0.000124
      6.19336     10.69530      7.50389        -0.001420     -0.000413     -0.000166
      4.88939     12.82604      7.50308        -0.001525     -0.000295     -0.000572
     14.81935      0.00356      7.50284        -0.002069      0.000573      0.000158
     13.58390      2.14336      7.50043        -0.001113     -0.000334      0.000104
     12.35030      4.28049      7.49947        -0.000470     -0.001745      0.000366
     11.11445      6.42055      7.50018         0.001843     -0.003494      0.000277
      9.87246      8.54804      7.50168        -0.000817     -0.000585     -0.000120
      8.65735     10.69566      7.50206        -0.000995      0.000034      0.000197
      7.40557     12.82204      7.50278        -0.001634      0.000442     -0.000103
      0.01979      1.43700      7.50008        -0.002309      0.000986     -0.000023
     -1.23171      3.56117      7.49796         0.005493      0.002495      0.000265
     -2.46563      5.69830      7.49842         0.001372      0.001174     -0.000287
     -3.67965      7.84402      7.50019        -0.000288      0.003069     -0.000457
     -4.90821      9.98270      7.50112         0.000005     -0.000523     -0.000067
     -6.14444     12.12105      7.50107        -0.000500     -0.002595      0.000635
     -7.37774     14.26149      7.50114        -0.001069     -0.001302      0.000533
      2.49021      1.45429      7.49970        -0.000914      0.001387     -0.000047
      1.23869      3.58941      7.49820         0.001458      0.006334     -0.000373
     -0.00943      5.69202      7.49786         0.001802      0.000823     -0.000316
     -1.20596      7.82352      7.49938         0.000783      0.003198      0.000558
     -2.42968      9.97473      7.50038        -0.002859      0.004812     -0.000363
     -3.66830     12.12011      7.50041         0.002975     -0.001783     -0.000709
     -4.90700     14.26617      7.49997        -0.000071     -0.001927      0.000231
      4.95238      1.46933      7.49904        -0.000040      0.000187      0.000086
      3.71988      3.63547      7.49954         0.001327      0.003851     -0.000560
      0.07369      9.94957      7.50043        -0.001801      0.000460     -0.000126
     -1.18603     12.10081      7.50053        -0.001649     -0.000193      0.000285
     -2.44326     14.25874      7.49969         0.003082     -0.003085      0.000736
      7.42070      1.44316      7.49895        -0.000872     -0.000592      0.000620
      6.18226      3.61297      7.49929        -0.001280      0.000909      0.000079
      1.28570     12.09343      7.50160        -0.001657      0.000034      0.000052
      0.02582     14.25170      7.50025        -0.001471     -0.000768      0.000816
      9.88445      1.43270      7.49990        -0.001472     -0.000440      0.000465
      8.65992      3.57906      7.49900        -0.001509      0.000141     -0.000222
      2.49558     14.25593      7.50114        -0.001308     -0.000293      0.000125
     12.35234      1.43859      7.50068        -0.001260     -0.000489      0.000279
     11.12441      3.56658      7.49953        -0.001564     -0.000006      0.000254
      9.88181      5.69909      7.49974        -0.001502      0.000696     -0.000210
      8.61549      7.83718      7.50098        -0.000261     -0.000012     -0.000097
      7.41572      9.97872      7.50273         0.000496     -0.000413     -0.000073
      6.16147     12.08898      7.50361         0.000279     -0.000087      0.000020
      4.94283     14.25429      7.50278        -0.000216     -0.000504     -0.000191
     14.81812      1.42500      7.50119         0.000160     -0.000350     -0.000096
     13.58019      3.56543      7.49927         0.000366      0.000968      0.001542
     12.34508      5.70855      7.49984        -0.001076      0.003727     -0.000620
     11.11401      7.84679      7.50111        -0.000677      0.000955     -0.000358
      9.88506      9.97680      7.50205        -0.000355     -0.001001      0.000214
      8.64913     12.11872      7.50212        -0.000604     -0.001058      0.000215
      7.41898     14.24793      7.50275         0.001848     -0.001480     -0.000974
      4.98846      5.38248      7.50065        -0.000274      0.000612     -0.000868
      5.26066     10.12924      7.50409         0.000838     -0.000159      0.000612
      6.46782      8.03743      7.50177        -0.000397      0.000269      0.000050
      2.22046     10.17402      7.50238        -0.001147      0.000017     -0.000414
      3.17485      8.37563      7.50004         0.016736      0.010479     -0.000373
      3.90041      7.09552      7.49991         0.015211      0.007397     -0.000199
      2.42126      5.72757      7.49912         0.001279      0.000881      0.000090
      1.23721      7.77884      7.49942         0.001634      0.000117      0.000104
      7.45356      5.69186      7.49987        -0.000639     -0.000103     -0.000354
      3.72238     12.15488      7.50278        -0.000458      0.000250     -0.000197
      4.10614      8.05811      7.50000         0.015524      0.007073      0.000575
 -----------------------------------------------------------------------------------
    total drift:                                0.010477      0.051926     -0.005964


--------------------------------------------------------------------------------------------------------



  FREE ENERGIE OF THE ION-ELECTRON SYSTEM (eV)
  ---------------------------------------------------
  free  energy   TOTEN  =      -841.24590850 eV

  energy  without entropy=     -841.24590850  energy(sigma->0) =     -841.24590850
 


--------------------------------------------------------------------------------------------------------


    POTLOK:  cpu time      5.3061: real time      5.3921


--------------------------------------------------------------------------------------------------------


 NEB: the previous image is higher in energy: T
 NEB: the next image is higher in energy    : T
 NEB: image is at an extrema
 NEB: diff energy (min, max):     0.002437    0.002578

 NEB: Tangent
 ----------------------------------------------
      0.00011      0.00004      0.00724
      0.00000     -0.00001      0.00424
      0.00002     -0.00005      0.00210
      0.00004     -0.00002      0.00179
      0.00004      0.00003      0.00339
      0.00012      0.00014      0.00475
      0.00000      0.00007      0.00580
      0.00005      0.00003     -0.00143
      0.00000      0.00000     -0.00525
     -0.00004     -0.00008     -0.01055
      0.00003     -0.00008     -0.01095
      0.00002     -0.00001     -0.00862
      0.00007      0.00002     -0.00326
      0.00004      0.00009      0.00031
      0.00005      0.00005     -0.00528
     -0.00001      0.00001     -0.01395
     -0.00007     -0.00002     -0.03039
     -0.00006     -0.00009     -0.04095
      0.00001     -0.00006     -0.03140
      0.00005     -0.00001     -0.01557
      0.00000      0.00006     -0.00428
      0.00006      0.00007     -0.00519
     -0.00002      0.00004     -0.00740
     -0.00007      0.00005     -0.00893
      0.00004     -0.00005     -0.01035
      0.00002     -0.00003     -0.00813
      0.00004     -0.00001     -0.00144
      0.00001      0.00005     -0.00026
     -0.00001      0.00007      0.00061
      0.00002     -0.00008     -0.00179
      0.00005     -0.00002      0.00415
      0.00004     -0.00000      0.00458
      0.00003      0.00004      0.00497
      0.00007      0.00008      0.00039
      0.00012      0.00012     -0.02053
      0.00015     -0.00002     -0.02186
      0.00003      0.00001     -0.00041
      0.00006      0.00005      0.00838
      0.00006      0.00005      0.00746
      0.00005      0.00001      0.00611
      0.00004      0.00001      0.00552
      0.00004      0.00010      0.00469
      0.00021      0.00011      0.00097
      0.00002      0.00009      0.00479
      0.00003      0.00001      0.00323
     -0.00003     -0.00003     -0.00058
     -0.00002      0.00004     -0.00157
      0.00004      0.00001     -0.00043
      0.00014      0.00005      0.00201
      0.00007      0.00012      0.00378
      0.00008      0.00003      0.00496
      0.00000      0.00001     -0.00790
     -0.00002     -0.00003     -0.01381
     -0.00002     -0.00009     -0.01743
     -0.00002     -0.00003     -0.01534
      0.00004      0.00001     -0.01096
      0.00003      0.00001     -0.00232
      0.00006      0.00004     -0.00242
      0.00000      0.00003     -0.00898
     -0.00004      0.00002     -0.02069
      0.00002     -0.00004     -0.02181
     -0.00001     -0.00002     -0.00938
      0.00004     -0.00003     -0.00469
      0.00002      0.00005     -0.00452
     -0.00002      0.00006     -0.00457
      0.00001     -0.00006     -0.00671
      0.00004     -0.00002     -0.00490
      0.00001      0.00002      0.00115
      0.00001      0.00006      0.00225
      0.00005     -0.00003      0.00023
     -0.00001     -0.00002      0.00569
      0.00000      0.00001      0.00599
      0.00006      0.00005      0.00420
      0.00012      0.00007     -0.00319
      0.00022      0.00010     -0.01401
      0.00004      0.00001     -0.00445
      0.00007     -0.00000      0.00504
     -0.00001      0.00001      0.00787
     -0.00001      0.00003      0.00622
      0.00004      0.00001      0.00531
      0.00011      0.00001      0.00608
      0.00021      0.00009      0.00493
      0.00003      0.00016      0.00471
      0.00006      0.00010      0.00893
     -0.00016      0.00007      0.00564
      0.00009      0.00001     -0.04900
      0.00013      0.00011     -0.04805
     -0.00003     -0.00018      0.00432
     -0.00091     -0.00045     -0.51796
     -0.00088     -0.00052     -0.51367
     -0.00005     -0.00004     -0.05395
     -0.00005     -0.00006     -0.05423
      0.00005      0.00008      0.00073
      0.00003     -0.00003     -0.00155
     -0.00125     -0.00065     -0.66957

 NEB: forces: par spring, perp REAL, dneb     0.000732    0.039913    0.000000
 NEB: distance to prev, next image, angle between     0.781924    0.781778  176.985157
 NEB: projections on to tangent (spring, REAL)    -0.000732    0.000228

 stress matrix after NEB project (eV)
    -14.28596      4.31103      0.00155
      4.31103    -19.26908     -0.00939
      0.00155     -0.00939     -0.67453
  FORCES: max atom, RMS     0.019747    0.004095
  FORCE total and by dimension    0.039914    0.016737
  Stress total and by dimension   24.759063   19.269080
 OPT: skip step - force has converged


--------------------------------------------------------------------------------------------------------


  
 reached required accuracy - stopping structural energy minimisation
     LOOP+:  cpu time   2272.6909: real time   2288.2836
    4ORBIT:  cpu time      0.0000: real time      0.0000

 total amount of memory used by VASP MPI-rank0  1122555. kBytes
=======================================================================

   base      :      30000. kBytes
   nonlr-proj:       8928. kBytes
   fftplans  :     185212. kBytes
   grid      :     184190. kBytes
   one-center:        583. kBytes
   wavefun   :     713642. kBytes
 
  
  
 General timing and accounting informations for this job:
 ========================================================
  
                  Total CPU time used (sec):     2308.710
                            User time (sec):     2136.713
                          System time (sec):      171.998
                         Elapsed time (sec):     2326.944
  
                   Maximum memory used (kb):     1556316.
                   Average memory used (kb):          N/A
  
                          Minor page faults:       139571
                          Major page faults:           45
                 Voluntary context switches:         2500
