 vasp.6.4.2 20Jul23 (build Aug 26 2025 15:10:52) complex                        
  
 POSCAR found type information on POSCAR C H N O 
 03/POSCAR found :  4 types and      95 ions
 Reading from existing POTCAR
 scaLAPACK will be used
 -----------------------------------------------------------------------------
|                                                                             |
|           W    W    AA    RRRRR   N    N  II  N    N   GGGG   !!!           |
|           W    W   A  A   R    R  NN   N  II  NN   N  G    G  !!!           |
|           W    W  A    A  R    R  N N  N  II  N N  N  G       !!!           |
|           W WW W  AAAAAA  RRRRR   N  N N  II  N  N N  G  GGG   !            |
|           WW  WW  A    A  R   R   N   NN  II  N   NN  G    G                |
|           W    W  A    A  R    R  N    N  II  N    N   GGGG   !!!           |
|                                                                             |
|     For optimal performance we recommend to set                             |
|       NCORE = 2 up to number-of-cores-per-socket                            |
|     NCORE specifies how many cores store one orbital (NPAR=cpu/NCORE).      |
|     This setting can greatly improve the performance of VASP for DFT.       |
|     The default, NCORE=1 might be grossly inefficient on modern             |
|     multi-core architectures or massively parallel machines. Do your        |
|     own testing! More info at https://www.vasp.at/wiki/index.php/NCORE      |
|     Unfortunately you need to use the default for GW and RPA                |
|     calculations (for HF NCORE is supported but not extensively tested      |
|     yet).                                                                   |
|                                                                             |
 -----------------------------------------------------------------------------

 Reading from existing POTCAR
 LDA part: xc-table for Pade appr. of Perdew
 POSCAR found type information on POSCAR C H N O 
 00/POSCAR found :  4 types and      95 ions
 POSCAR found type information on POSCAR C H N O 
 06/POSCAR found :  4 types and      95 ions
 Jacobian:    33.5511073471780     
 POSCAR found type information on POSCAR C H N O 
 00/POSCAR found :  4 types and      95 ions
 POSCAR found type information on POSCAR C H N O 
 06/POSCAR found :  4 types and      95 ions
 POSCAR, INCAR and KPOINTS ok, starting setup
 FFT: planning ... GRIDC
 FFT: planning ... GRID_SOFT
 FFT: planning ... GRID
 WAVECAR not read
 entering main loop
       N       E                     dE             d eps       ncg     rms          rms(c)
DAV:   1     0.327938187906E+04    0.32794E+04   -0.13759E+05  4590   0.105E+03
DAV:   2    -0.234583700377E+03   -0.35140E+04   -0.33097E+04  6410   0.258E+02
DAV:   3    -0.853269618343E+03   -0.61869E+03   -0.61584E+03  5330   0.112E+02
DAV:   4    -0.875237654577E+03   -0.21968E+02   -0.21884E+02  5350   0.264E+01
DAV:   5    -0.875885313839E+03   -0.64766E+00   -0.64682E+00  6040   0.385E+00    0.513E+01
DAV:   6    -0.859548352566E+03    0.16337E+02   -0.21099E+01  5170   0.723E+00    0.334E+01
DAV:   7    -0.838473810312E+03    0.21075E+02   -0.31546E+01  5000   0.841E+00    0.202E+01
DAV:   8    -0.833746753207E+03    0.47271E+01   -0.22112E+01  5100   0.689E+00    0.820E+00
DAV:   9    -0.833761146867E+03   -0.14394E-01   -0.92063E-01  5100   0.173E+00    0.388E+00
DAV:  10    -0.833626830477E+03    0.13432E+00   -0.41291E-01  4890   0.104E+00    0.115E+00
DAV:  11    -0.833606524104E+03    0.20306E-01   -0.99956E-02  4920   0.564E-01    0.266E-01
DAV:  12    -0.833606208582E+03    0.31552E-03   -0.93380E-03  5230   0.194E-01    0.148E-01
DAV:  13    -0.833606013174E+03    0.19541E-03   -0.24007E-03  5030   0.977E-02    0.755E-02
DAV:  14    -0.833606086362E+03   -0.73188E-04   -0.35483E-04  5190   0.383E-02    0.520E-02
DAV:  15    -0.833606128592E+03   -0.42230E-04   -0.10897E-04  4830   0.195E-02    0.241E-02
DAV:  16    -0.833606132381E+03   -0.37898E-05   -0.21908E-05  4980   0.914E-03    0.120E-02
DAV:  17    -0.833606131325E+03    0.10568E-05   -0.89073E-06  5040   0.614E-03    0.475E-03
DAV:  18    -0.833606131071E+03    0.25387E-06   -0.24971E-06  4160   0.317E-03
   1 F= -.84124591E+03 E0= -.84124591E+03  d E =-.841246E+03  mag=     0.0001
quench:  g(F)=  0.384E-03 g(S)=  0.000E+00 dE (1.order)=-0.768E-03
 reached required accuracy - stopping structural energy minimisation
