<?xml version="1.0" encoding="ISO-8859-1"?>
<modeling>
 <generator>
  <i name="program" type="string">vasp </i>
  <i name="version" type="string">6.4.2  </i>
  <i name="subversion" type="string">20Jul23 (build Aug 26 2025 15:10:52) complex                          parallel </i>
  <i name="platform" type="string">LinuxIFC </i>
  <i name="date" type="string">2025 12 02 </i>
  <i name="time" type="string">12:58:03 </i>
 </generator>
 <incar>
  <i type="int" name="ISTART">     0</i>
  <i type="string" name="ALGO">Normal</i>
  <i type="logical" name="ADDGRID"> T  </i>
  <i type="int" name="ISPIN">     2</i>
  <i type="int" name="IMIX">     4</i>
  <i name="AMIX">      0.20000000</i>
  <i name="BMIX">      0.00010000</i>
  <i name="AMIX_MAG">      0.80000000</i>
  <i name="BMIX_MAG">      0.00010000</i>
  <i type="int" name="ICHARG">     2</i>
  <i type="int" name="NELM">   200</i>
  <i type="int" name="IBRION">     3</i>
  <i name="EDIFF">      0.00000100</i>
  <i name="EDIFFG">     -0.03000000</i>
  <i type="int" name="NSW">  1000</i>
  <i type="int" name="ISIF">     2</i>
  <i type="int" name="ISYM">     0</i>
  <i name="ENCUT">    520.00000000</i>
  <v name="MAGMOM">      0.60000000      0.60000000      0.60000000      0.60000000      0.60000000      0.60000000      0.60000000      0.60000000      0.60000000      0.60000000      0.60000000      0.60000000      0.60000000      0.60000000      0.60000000      0.60000000      0.60000000      0.60000000      0.60000000      0.60000000
      0.60000000      0.60000000      0.60000000      0.60000000      0.60000000      0.60000000      0.60000000      0.60000000      0.60000000      0.60000000      0.60000000      0.60000000      0.60000000      0.60000000      0.60000000      0.60000000      0.60000000      0.60000000      0.60000000      0.60000000
      0.60000000      0.60000000      0.60000000      0.60000000      0.60000000      0.60000000      0.60000000      0.60000000      0.60000000      0.60000000      0.60000000      0.60000000      0.60000000      0.60000000      0.60000000      0.60000000      0.60000000      0.60000000      0.60000000      0.60000000
      0.60000000      0.60000000      0.60000000      0.60000000      0.60000000      0.60000000      0.60000000      0.60000000      0.60000000      0.60000000      0.60000000      0.60000000      0.60000000      0.60000000      0.60000000      0.60000000      0.60000000      0.60000000      0.60000000      0.60000000
      0.60000000      0.60000000      0.60000000      0.60000000      0.60000000      0.60000000      0.60000000      0.60000000      0.60000000      0.60000000      0.60000000      0.60000000      0.60000000      0.60000000      0.60000000</v>
  <i type="string" name="LREAL">Auto</i>
  <i type="int" name="ISMEAR">     0</i>
  <i name="SIGMA">      0.05000000</i>
  <i type="logical" name="LWAVE"> F  </i>
  <i type="logical" name="LCHARG"> F  </i>
  <i type="logical" name="LASPH"> T  </i>
  <i type="int" name="IVDW">    12</i>
  <i name="SPRING">     -5.00000000</i>
 </incar>
 <primitive_cell>
  <structure name="primitive_cell" >
   <crystal>
    <varray name="basis" >
     <v>      17.27103806       0.00000000       0.00000000 </v>
     <v>      -8.63551903      14.95715771       0.00000000 </v>
     <v>       0.00000000       0.00000000      15.00000000 </v>
    </varray>
    <i name="volume">   3874.88459904 </i>
    <varray name="rec_basis" >
     <v>       0.05790040       0.03342881       0.00000000 </v>
     <v>       0.00000000       0.06685762       0.00000000 </v>
     <v>       0.00000000       0.00000000       0.06666667 </v>
    </varray>
   </crystal>
   <varray name="positions" >
    <v>       0.00138300       0.00062601       0.50009255 </v>
    <v>       0.00086206       0.14308170       0.49997771 </v>
    <v>       0.00052461       0.28592601       0.49988398 </v>
    <v>       0.00086695       0.42911830       0.49997553 </v>
    <v>       0.00135902       0.57208211       0.50006747 </v>
    <v>       0.00173813       0.71493802       0.50010254 </v>
    <v>       0.00178341       0.85820310       0.50009348 </v>
    <v>       0.14517356       0.00179263       0.50001693 </v>
    <v>       0.14472657       0.14447159       0.49994569 </v>
    <v>       0.14285976       0.28591708       0.49982555 </v>
    <v>       0.14281885       0.42828787       0.49988827 </v>
    <v>       0.14471318       0.57157033       0.50000187 </v>
    <v>       0.14514090       0.71469854       0.50004972 </v>
    <v>       0.14507334       0.85820943       0.50002359 </v>
    <v>       0.28804542       0.00182701       0.49996526 </v>
    <v>       0.28835161       0.14650726       0.49995488 </v>
    <v>       0.28763983       0.29261305       0.49993275 </v>
    <v>       0.28537975       0.42835491       0.49991375 </v>
    <v>       0.28762515       0.56635491       0.49997840 </v>
    <v>       0.28833244       0.71323225       0.50002803 </v>
    <v>       0.28804300       0.85761943       0.50000622 </v>
    <v>       0.43057248       0.00098023       0.49997450 </v>
    <v>       0.43123488       0.14560033       0.49992084 </v>
    <v>       0.43050351       0.28717497       0.49999132 </v>
    <v>       0.43044251       0.71467446       0.50010845 </v>
    <v>       0.43124978       0.85704795       0.50005623 </v>
    <v>       0.57289481       0.00055721       0.50002444 </v>
    <v>       0.57289311       0.14371269       0.49995129 </v>
    <v>       0.57659066       0.29021285       0.49995167 </v>
    <v>       0.57659125       0.85772188       0.50013421 </v>
    <v>       0.71579218       0.00095845       0.50010479 </v>
    <v>       0.71564003       0.14348571       0.49999538 </v>
    <v>       0.71582697       0.28618745       0.49994912 </v>
    <v>       0.71182825       0.42568128       0.50000793 </v>
    <v>       0.71610270       0.57242119       0.50012216 </v>
    <v>       0.71612892       0.71506212       0.50025956 </v>
    <v>       0.71185686       0.85751855       0.50020563 </v>
    <v>       0.85816503       0.00023791       0.50018922 </v>
    <v>       0.85816327       0.14329992       0.50002838 </v>
    <v>       0.85817877       0.28618320       0.49996478 </v>
    <v>       0.85816237       0.42926257       0.50001171 </v>
    <v>       0.85737019       0.57150179       0.50011229 </v>
    <v>       0.85880683       0.71508611       0.50013720 </v>
    <v>       0.85741108       0.85725101       0.50018546 </v>
    <v>       0.04918290       0.09607419       0.50000505 </v>
    <v>       0.04772923       0.23809136       0.49986403 </v>
    <v>       0.04772634       0.38097477       0.49989484 </v>
    <v>       0.04916282       0.52443259       0.50001298 </v>
    <v>       0.04952286       0.66741981       0.50007454 </v>
    <v>       0.04942647       0.81038452       0.50007147 </v>
    <v>       0.04957058       0.95348899       0.50007615 </v>
    <v>       0.19279937       0.09723028       0.49997997 </v>
    <v>       0.19171019       0.23997933       0.49987981 </v>
    <v>       0.18973166       0.38055519       0.49985762 </v>
    <v>       0.19170535       0.52306184       0.49995858 </v>
    <v>       0.19276408       0.66688666       0.50002523 </v>
    <v>       0.19276483       0.81032181       0.50002714 </v>
    <v>       0.19278358       0.95380209       0.49999813 </v>
    <v>       0.33586239       0.09823573       0.49993584 </v>
    <v>       0.33691187       0.24305888       0.49996947 </v>
    <v>       0.33686870       0.66520447       0.50002836 </v>
    <v>       0.33584429       0.80903152       0.50003516 </v>
    <v>       0.33518671       0.95330536       0.49997949 </v>
    <v>       0.47790478       0.09648658       0.49993001 </v>
    <v>       0.47873251       0.24155471       0.49995260 </v>
    <v>       0.47871155       0.80853828       0.50010678 </v>
    <v>       0.47791240       0.95283447       0.50001653 </v>
    <v>       0.62020716       0.09578687       0.49999306 </v>
    <v>       0.62105680       0.23928745       0.49993312 </v>
    <v>       0.62105411       0.95311751       0.50007614 </v>
    <v>       0.76329588       0.09618058       0.50004538 </v>
    <v>       0.76333452       0.23845322       0.49996888 </v>
    <v>       0.76267474       0.38102783       0.49998295 </v>
    <v>       0.76082777       0.52397519       0.50006561 </v>
    <v>       0.76294982       0.66715353       0.50018232 </v>
    <v>       0.76087179       0.80824014       0.50024084 </v>
    <v>       0.76269573       0.95300799       0.50018559 </v>
    <v>       0.90561096       0.09527195       0.50007913 </v>
    <v>       0.90548684       0.23837637       0.49995137 </v>
    <v>       0.90561513       0.38166004       0.49998934 </v>
    <v>       0.90581489       0.52461801       0.50007410 </v>
    <v>       0.90586144       0.66702527       0.50013657 </v>
    <v>       0.90590237       0.81022853       0.50014123 </v>
    <v>       0.90585322       0.95258241       0.50018305 </v>
    <v>       0.46876394       0.35985997       0.50004318 </v>
    <v>       0.64320278       0.67721711       0.50027269 </v>
    <v>       0.64317084       0.53736332       0.50011818 </v>
    <v>       0.46867106       0.68021068       0.50015844 </v>
    <v>       0.46381233       0.55997491       0.50000295 </v>
    <v>       0.46302994       0.47438972       0.49999419 </v>
    <v>       0.33165767       0.38293198       0.49994107 </v>
    <v>       0.33167254       0.52007494       0.49996143 </v>
    <v>       0.62183620       0.38054411       0.49999140 </v>
    <v>       0.62185041       0.81264669       0.50018546 </v>
    <v>       0.50712026       0.53874614       0.50000005 </v>
   </varray>
  </structure>
  <varray name="primitive_index" >
   <v type="int" >        1 </v>
   <v type="int" >        2 </v>
   <v type="int" >        3 </v>
   <v type="int" >        4 </v>
   <v type="int" >        5 </v>
   <v type="int" >        6 </v>
   <v type="int" >        7 </v>
   <v type="int" >        8 </v>
   <v type="int" >        9 </v>
   <v type="int" >       10 </v>
   <v type="int" >       11 </v>
   <v type="int" >       12 </v>
   <v type="int" >       13 </v>
   <v type="int" >       14 </v>
   <v type="int" >       15 </v>
   <v type="int" >       16 </v>
   <v type="int" >       17 </v>
   <v type="int" >       18 </v>
   <v type="int" >       19 </v>
   <v type="int" >       20 </v>
   <v type="int" >       21 </v>
   <v type="int" >       22 </v>
   <v type="int" >       23 </v>
   <v type="int" >       24 </v>
   <v type="int" >       25 </v>
   <v type="int" >       26 </v>
   <v type="int" >       27 </v>
   <v type="int" >       28 </v>
   <v type="int" >       29 </v>
   <v type="int" >       30 </v>
   <v type="int" >       31 </v>
   <v type="int" >       32 </v>
   <v type="int" >       33 </v>
   <v type="int" >       34 </v>
   <v type="int" >       35 </v>
   <v type="int" >       36 </v>
   <v type="int" >       37 </v>
   <v type="int" >       38 </v>
   <v type="int" >       39 </v>
   <v type="int" >       40 </v>
   <v type="int" >       41 </v>
   <v type="int" >       42 </v>
   <v type="int" >       43 </v>
   <v type="int" >       44 </v>
   <v type="int" >       45 </v>
   <v type="int" >       46 </v>
   <v type="int" >       47 </v>
   <v type="int" >       48 </v>
   <v type="int" >       49 </v>
   <v type="int" >       50 </v>
   <v type="int" >       51 </v>
   <v type="int" >       52 </v>
   <v type="int" >       53 </v>
   <v type="int" >       54 </v>
   <v type="int" >       55 </v>
   <v type="int" >       56 </v>
   <v type="int" >       57 </v>
   <v type="int" >       58 </v>
   <v type="int" >       59 </v>
   <v type="int" >       60 </v>
   <v type="int" >       61 </v>
   <v type="int" >       62 </v>
   <v type="int" >       63 </v>
   <v type="int" >       64 </v>
   <v type="int" >       65 </v>
   <v type="int" >       66 </v>
   <v type="int" >       67 </v>
   <v type="int" >       68 </v>
   <v type="int" >       69 </v>
   <v type="int" >       70 </v>
   <v type="int" >       71 </v>
   <v type="int" >       72 </v>
   <v type="int" >       73 </v>
   <v type="int" >       74 </v>
   <v type="int" >       75 </v>
   <v type="int" >       76 </v>
   <v type="int" >       77 </v>
   <v type="int" >       78 </v>
   <v type="int" >       79 </v>
   <v type="int" >       80 </v>
   <v type="int" >       81 </v>
   <v type="int" >       82 </v>
   <v type="int" >       83 </v>
   <v type="int" >       84 </v>
   <v type="int" >       85 </v>
   <v type="int" >       86 </v>
   <v type="int" >       87 </v>
   <v type="int" >       88 </v>
   <v type="int" >       89 </v>
   <v type="int" >       90 </v>
   <v type="int" >       91 </v>
   <v type="int" >       92 </v>
   <v type="int" >       93 </v>
   <v type="int" >       94 </v>
   <v type="int" >       95 </v>
  </varray>
 </primitive_cell>
 <kpoints>
  <generation param="Gamma">
   <v type="int" name="divisions">       2        2        1 </v>
   <v name="usershift">      0.00000000       0.00000000       0.00000000 </v>
   <v name="genvec1">      0.50000000       0.00000000       0.00000000 </v>
   <v name="genvec2">      0.00000000       0.50000000       0.00000000 </v>
   <v name="genvec3">      0.00000000       0.00000000       1.00000000 </v>
   <v name="shift">      0.00000000       0.00000000       0.00000000 </v>
  </generation>
  <varray name="kpointlist" >
   <v>       0.00000000       0.00000000       0.00000000 </v>
   <v>       0.50000000       0.00000000       0.00000000 </v>
   <v>       0.00000000       0.50000000       0.00000000 </v>
   <v>       0.50000000       0.50000000       0.00000000 </v>
  </varray>
  <varray name="weights" >
   <v>       0.25000000 </v>
   <v>       0.25000000 </v>
   <v>       0.25000000 </v>
   <v>       0.25000000 </v>
  </varray>
 </kpoints>
 <parameters>
  <separator name="general" >
   <i type="string" name="SYSTEM">unknown system</i>
   <i type="logical" name="LCOMPAT"> F  </i>
  </separator>
  <separator name="electronic" >
   <i type="string" name="PREC">normal</i>
   <i name="ENMAX">    520.00000000</i>
   <i name="ENAUG">    644.87300000</i>
   <i name="EDIFF">      0.00000100</i>
   <i type="int" name="IALGO">    38</i>
   <i type="int" name="IWAVPR">    11</i>
   <i type="int" name="NBANDS">   265</i>
   <i type="int" name="NBANDSLOW">    -1</i>
   <i type="int" name="NBANDSHIGH">    -1</i>
   <i name="NELECT">    368.00000000</i>
   <i type="int" name="TURBO">     0</i>
   <i type="int" name="IRESTART">     0</i>
   <i type="int" name="NREBOOT">     0</i>
   <i type="int" name="NMIN">     0</i>
   <i name="EREF">      0.00000000</i>
   <separator name="electronic smearing" >
    <i type="int" name="ISMEAR">     0</i>
    <i name="SIGMA">      0.05000000</i>
    <i name="KSPACING">      0.50000000</i>
    <i type="logical" name="KGAMMA"> T  </i>
    <i type="logical" name="KBLOWUP"> T  </i>
   </separator>
   <separator name="electronic projectors" >
    <i type="logical" name="LREAL"> T  </i>
    <v name="ROPT">     -0.00050000     -0.00050000     -0.00050000     -0.00050000</v>
    <i type="int" name="LMAXPAW">  -100</i>
    <i type="int" name="LMAXMIX">     2</i>
    <i type="logical" name="NLSPLINE"> F  </i>
   </separator>
   <separator name="electronic startup" >
    <i type="int" name="ISTART">     0</i>
    <i type="int" name="ICHARG">     2</i>
    <i type="int" name="INIWAV">     1</i>
   </separator>
   <separator name="electronic spin" >
    <i type="int" name="ISPIN">     2</i>
    <i type="logical" name="LNONCOLLINEAR"> F  </i>
    <v name="MAGMOM">      0.60000000      0.60000000      0.60000000      0.60000000      0.60000000      0.60000000      0.60000000      0.60000000      0.60000000      0.60000000      0.60000000      0.60000000      0.60000000      0.60000000      0.60000000      0.60000000      0.60000000      0.60000000      0.60000000      0.60000000
      0.60000000      0.60000000      0.60000000      0.60000000      0.60000000      0.60000000      0.60000000      0.60000000      0.60000000      0.60000000      0.60000000      0.60000000      0.60000000      0.60000000      0.60000000      0.60000000      0.60000000      0.60000000      0.60000000      0.60000000
      0.60000000      0.60000000      0.60000000      0.60000000      0.60000000      0.60000000      0.60000000      0.60000000      0.60000000      0.60000000      0.60000000      0.60000000      0.60000000      0.60000000      0.60000000      0.60000000      0.60000000      0.60000000      0.60000000      0.60000000
      0.60000000      0.60000000      0.60000000      0.60000000      0.60000000      0.60000000      0.60000000      0.60000000      0.60000000      0.60000000      0.60000000      0.60000000      0.60000000      0.60000000      0.60000000      0.60000000      0.60000000      0.60000000      0.60000000      0.60000000
      0.60000000      0.60000000      0.60000000      0.60000000      0.60000000      0.60000000      0.60000000      0.60000000      0.60000000      0.60000000      0.60000000      0.60000000      0.60000000      0.60000000      0.60000000</v>
    <i name="NUPDOWN">     -1.00000000</i>
    <i type="logical" name="LSORBIT"> F  </i>
    <v name="SAXIS">      0.00000000      0.00000000      1.00000000</v>
    <i type="logical" name="LSPIRAL"> F  </i>
    <v name="QSPIRAL">      0.00000000      0.00000000      0.00000000</v>
    <i type="logical" name="LZEROZ"> F  </i>
   </separator>
   <separator name="electronic exchange-correlation" >
    <i type="logical" name="LASPH"> T  </i>
    <i type="logical" name="LMETAGGA"> F  </i>
   </separator>
   <separator name="electronic convergence" >
    <i type="int" name="NELM">   200</i>
    <i type="int" name="NELMDL">    -5</i>
    <i type="int" name="NELMIN">     2</i>
    <i name="ENINI">    520.00000000</i>
    <separator name="electronic convergence detail" >
     <i type="logical" name="LDIAG"> T  </i>
     <i type="logical" name="LSUBROT"> F  </i>
     <i name="WEIMIN">      0.00100000</i>
     <i name="EBREAK">      0.00000000</i>
     <i name="DEPER">      0.30000000</i>
     <i type="int" name="NRMM">     4</i>
     <i name="TIME">      0.40000000</i>
    </separator>
   </separator>
   <separator name="electronic mixer" >
    <i name="AMIX">      0.20000000</i>
    <i name="BMIX">      0.00010000</i>
    <i name="AMIN">      0.10000000</i>
    <i name="AMIX_MAG">      0.80000000</i>
    <i name="BMIX_MAG">      0.00010000</i>
    <separator name="electronic mixer details" >
     <i type="int" name="IMIX">     4</i>
     <i type="logical" name="MIXFIRST"> F  </i>
     <i type="int" name="MAXMIX">   -45</i>
     <i name="WC">    100.00000000</i>
     <i type="int" name="INIMIX">     1</i>
     <i type="int" name="MIXPRE">     1</i>
     <i type="int" name="MREMOVE">     5</i>
    </separator>
   </separator>
   <separator name="electronic dipolcorrection" >
    <i type="logical" name="LDIPOL"> F  </i>
    <i type="logical" name="LMONO"> F  </i>
    <i type="int" name="IDIPOL">     0</i>
    <i name="EPSILON">      1.00000000</i>
    <v name="DIPOL">   -100.00000000   -100.00000000   -100.00000000</v>
    <i name="EFIELD">      0.00000000</i>
   </separator>
  </separator>
  <separator name="grids" >
   <i type="int" name="NGX">    96</i>
   <i type="int" name="NGY">    96</i>
   <i type="int" name="NGZ">    84</i>
   <i type="int" name="NGXF">   192</i>
   <i type="int" name="NGYF">   192</i>
   <i type="int" name="NGZF">   168</i>
   <i type="logical" name="ADDGRID"> T  </i>
  </separator>
  <separator name="ionic" >
   <i type="int" name="NSW">  1000</i>
   <i type="int" name="IBRION">     3</i>
   <i type="int" name="MDALGO">     0</i>
   <i type="int" name="ISIF">     2</i>
   <i name="PSTRESS">      0.00000000</i>
   <i name="EDIFFG">     -0.03000000</i>
   <i type="int" name="NFREE">     0</i>
   <i name="POTIM">      0.50000000</i>
   <i name="SMASS">     -3.00000000</i>
   <i name="SCALEE">      1.00000000</i>
  </separator>
  <separator name="ionic md" >
   <i name="TEBEG">      0.00010000</i>
   <i name="TEEND">      0.00010000</i>
   <i type="int" name="NBLOCK">     1</i>
   <i type="int" name="KBLOCK">  1000</i>
   <i type="int" name="NPACO">   256</i>
   <i name="APACO">     10.00000000</i>
  </separator>
  <separator name="symmetry" >
   <i type="int" name="ISYM">     0</i>
   <i name="SYMPREC">      0.00001000</i>
  </separator>
  <separator name="dos" >
   <i type="int" name="LORBIT">     0</i>
   <v name="RWIGS">     -1.00000000     -1.00000000     -1.00000000     -1.00000000</v>
   <i type="int" name="NEDOS">   301</i>
   <i name="EMIN">     10.00000000</i>
   <i name="EMAX">    -10.00000000</i>
   <i name="EFERMI">      0.00000000</i>
  </separator>
  <separator name="writing" >
   <i type="int" name="NWRITE">     2</i>
   <i type="logical" name="LWAVE"> F  </i>
   <i type="logical" name="LDOWNSAMPLE"> F  </i>
   <i type="logical" name="LCHARG"> F  </i>
   <i type="logical" name="LPARD"> F  </i>
   <i type="logical" name="LVTOT"> F  </i>
   <i type="logical" name="LVHAR"> F  </i>
   <i type="logical" name="LELF"> F  </i>
   <i type="logical" name="LOPTICS"> F  </i>
   <v name="STM">      0.00000000      0.00000000      0.00000000      0.00000000      0.00000000      0.00000000      0.00000000</v>
  </separator>
  <separator name="performance" >
   <i type="int" name="NPAR">     5</i>
   <i type="int" name="NSIM">     4</i>
   <i type="int" name="NBLK">    -1</i>
   <i type="logical" name="LPLANE"> T  </i>
   <i type="logical" name="LSCALAPACK"> T  </i>
   <i type="logical" name="LSCAAWARE"> F  </i>
   <i type="logical" name="LSCALU"> F  </i>
   <i type="logical" name="LASYNC"> F  </i>
   <i type="logical" name="LORBITALREAL"> F  </i>
  </separator>
  <separator name="miscellaneous" >
   <i type="int" name="IDIOT">     3</i>
   <i type="int" name="PHON_NSTRUCT">    -1</i>
   <i type="logical" name="LMUSIC"> F  </i>
   <v name="POMASS">     12.01100000      1.00000000     14.00100000     16.00000000</v>
   <v name="DARWINR">      0.00000000      0.00000000      0.00000000      0.00000000</v>
   <v name="DARWINV">      1.00000000      1.00000000      1.00000000      1.00000000</v>
   <i type="logical" name="LCORR"> T  </i>
  </separator>
  <i type="logical" name="GGA_COMPAT"> T  </i>
  <i type="logical" name="LBERRY"> F  </i>
  <i type="int" name="ICORELEVEL">     0</i>
  <i type="logical" name="LDAU"> F  </i>
  <i type="int" name="I_CONSTRAINED_M">     0</i>
  <separator name="electronic exchange-correlation" >
   <i type="string" name="GGA">--</i>
   <i type="int" name="VOSKOWN">     0</i>
   <i type="logical" name="LHFCALC"> F  </i>
   <i type="string" name="PRECFOCK"></i>
   <i type="logical" name="LSYMGRAD"> F  </i>
   <i type="logical" name="LHFONE"> F  </i>
   <i type="logical" name="LRHFCALC"> F  </i>
   <i type="logical" name="LTHOMAS"> F  </i>
   <i type="logical" name="LMODELHF"> F  </i>
   <i type="logical" name="LFOCKACE"> F  </i>
   <i name="ENCUT4O">     -1.00000000</i>
   <i type="int" name="EXXOEP">     0</i>
   <i type="int" name="FOURORBIT">     0</i>
   <i name="AEXX">      0.00000000</i>
   <i name="HFALPHA">      0.00000000</i>
   <i name="MCALPHA">      0.00000000</i>
   <i name="ALDAX">      1.00000000</i>
   <i name="AGGAX">      1.00000000</i>
   <i name="ALDAC">      1.00000000</i>
   <i name="AGGAC">      1.00000000</i>
   <i type="int" name="NKREDX">     1</i>
   <i type="int" name="NKREDY">     1</i>
   <i type="int" name="NKREDZ">     1</i>
   <i type="logical" name="SHIFTRED"> F  </i>
   <i type="logical" name="ODDONLY"> F  </i>
   <i type="logical" name="EVENONLY"> F  </i>
   <i type="int" name="LMAXFOCK">     0</i>
   <i type="int" name="NMAXFOCKAE">     0</i>
   <i type="logical" name="LFOCKAEDFT"> F  </i>
   <i name="HFSCREEN">      0.00000000</i>
   <i name="HFSCREENC">      0.00000000</i>
   <i type="int" name="NBANDSGWLOW">     0</i>
  </separator>
  <separator name="vdW DFT" >
   <i type="logical" name="LUSE_VDW"> F  </i>
   <i type="int" name="IVDW_NL">     1</i>
   <i type="logical" name="LSPIN_VDW"> F  </i>
   <i name="Zab_VDW">     -0.84910000</i>
   <i name="PARAM1">      0.12340000</i>
   <i name="PARAM2">      1.00000000</i>
   <i name="PARAM3">      0.00000000</i>
  </separator>
  <separator name="model GW" >
   <i type="int" name="MODEL_GW">     0</i>
   <i name="MODEL_EPS0">     24.47295536</i>
   <i name="MODEL_ALPHA">      1.00000000</i>
  </separator>
  <separator name="linear response parameters" >
   <i type="logical" name="LEPSILON"> F  </i>
   <i type="logical" name="LRPA"> F  </i>
   <i type="logical" name="LNABLA"> F  </i>
   <i type="logical" name="LVEL"> F  </i>
   <i name="CSHIFT">      0.10000000</i>
   <i name="OMEGAMAX">     -1.00000000</i>
   <i name="DEG_THRESHOLD">      0.00200000</i>
   <i name="RTIME">     -0.10000000</i>
   <i name="WPLASMAI">      0.00000000</i>
   <v name="DFIELD">      0.00000000      0.00000000      0.00000000</v>
   <v name="WPLASMA">      0.00000000      0.00000000      0.00000000      0.00000000      0.00000000      0.00000000      0.00000000      0.00000000      0.00000000</v>
  </separator>
  <separator name="orbital magnetization" >
   <i type="logical" name="NUCIND"> F  </i>
   <v name="MAGPOS">      0.00000000      0.00000000      0.00000000</v>
   <i type="logical" name="LNICSALL"> T  </i>
   <i type="logical" name="ORBITALMAG"> F  </i>
   <i type="logical" name="LMAGBLOCH"> F  </i>
   <i type="logical" name="LCHIMAG"> F  </i>
   <i type="logical" name="LGAUGE"> T  </i>
   <i type="int" name="MAGATOM">     0</i>
   <v name="MAGDIPOL">      0.00000000      0.00000000      0.00000000</v>
   <v name="AVECCONST">      0.00000000      0.00000000      0.00000000</v>
  </separator>
  <separator name="response functions" >
   <i type="logical" name="LALL_IN_ONE"> F  </i>
   <i type="int" name="IALL_IN_ONE">    -1</i>
   <i type="int" name="NBANDS_WAVE">    -1</i>
   <i type="logical" name="LFINITE_TEMPERATURE"> F  </i>
   <i type="logical" name="LADDER"> F  </i>
   <i type="logical" name="LRPAFORCE"> F  </i>
   <i type="logical" name="LFXC"> F  </i>
   <i type="logical" name="LHARTREE"> T  </i>
   <i type="int" name="IBSE">     0</i>
   <v type="int" name="KPOINT">    -1     0     0     0</v>
   <i type="logical" name="LTCTC"> F  </i>
   <i type="logical" name="LTCTE"> F  </i>
   <i type="logical" name="LTETE"> F  </i>
   <i type="logical" name="LTRIPLET"> F  </i>
   <i type="logical" name="LFXCEPS"> F  </i>
   <i type="logical" name="LFXHEG"> F  </i>
   <i type="int" name="NATURALO">     2</i>
   <i type="logical" name="LHOLEGF"> F  </i>
   <i type="logical" name="L2ORDER"> F  </i>
   <i type="logical" name="LDMP1"> F  </i>
   <i type="logical" name="LMP2LT"> F  </i>
   <i type="logical" name="LSMP2LT"> F  </i>
   <i type="logical" name="LGWLF"> F  </i>
   <i name="ENCUTGW">     -1.60000002</i>
   <i name="ENCUTGWSOFT">     -1.60000002</i>
   <i name="ENCUTLF">     -1.00000000</i>
   <i type="logical" name="LESF_SPLINES"> F  </i>
   <i type="int" name="LMAXMP2">    -1</i>
   <i name="SCISSOR">      0.00000000</i>
   <i type="int" name="NOMEGA">     0</i>
   <i type="int" name="NOMEGAR">     0</i>
   <i type="int" name="NBANDSGW">    -1</i>
   <i type="int" name="NBANDSO">    -1</i>
   <i type="int" name="NBANDSV">    -1</i>
   <i type="int" name="NELMGW">     1</i>
   <i type="int" name="NELMHF">     1</i>
   <i type="int" name="DIM">     3</i>
   <i type="int" name="IESPILON">     4</i>
   <i type="int" name="ANTIRES">     0</i>
   <i name="OMEGAMAX">    -30.00000000</i>
   <i name="OMEGAMIN">    -30.00000000</i>
   <i name="OMEGATL">   -200.00000000</i>
   <i type="int" name="OMEGAGRID">     0</i>
   <i name="CSHIFT">     -0.10000000</i>
   <i type="logical" name="LSELFENERGY"> F  </i>
   <i type="logical" name="LSPECTRAL"> F  </i>
   <i type="logical" name="LSPECTRALGW"> F  </i>
   <i type="logical" name="LSINGLES"> F  </i>
   <i type="logical" name="LFERMIGW"> F  </i>
   <i type="logical" name="ODDONLYGW"> F  </i>
   <i type="logical" name="EVENONLYGW"> F  </i>
   <i type="int" name="NKREDLFX">     1</i>
   <i type="int" name="NKREDLFY">     1</i>
   <i type="int" name="NKREDLFZ">     1</i>
   <i type="int" name="MAXMEM">  2800</i>
   <i type="int" name="TELESCOPE">     0</i>
   <i type="int" name="NTAUPAR">    -1</i>
   <i type="int" name="NOMEGAPAR">    -1</i>
   <i name="DAMP_NEWTON">      0.80000001</i>
   <i name="LAMBDA">      1.00000000</i>
  </separator>
  <separator name="External order field" >
   <i name="OFIELD_KAPPA">      0.00000000</i>
   <v name="OFIELD_K">      0.00000000      0.00000000      0.00000000</v>
   <i name="OFIELD_Q6_NEAR">      0.00000000</i>
   <i name="OFIELD_Q6_FAR">      0.00000000</i>
   <i name="OFIELD_A">      0.00000000</i>
  </separator>
  <separator name="optional k-points parameters" >
   <i type="int" name="KPOINTS_OPT_MODE">     1</i>
   <i type="logical" name="LKPOINTS_OPT"> F  </i>
  </separator>
 </parameters>
 <atominfo>
  <atoms>      95 </atoms>
  <types>       4 </types>
  <array name="atoms" >
   <dimension dim="1">ion</dimension>
   <field type="string">element</field>
   <field type="int">atomtype</field>
   <set>
    <rc><c>C </c><c>   1</c></rc>
    <rc><c>C </c><c>   1</c></rc>
    <rc><c>C </c><c>   1</c></rc>
    <rc><c>C </c><c>   1</c></rc>
    <rc><c>C </c><c>   1</c></rc>
    <rc><c>C </c><c>   1</c></rc>
    <rc><c>C </c><c>   1</c></rc>
    <rc><c>C </c><c>   1</c></rc>
    <rc><c>C </c><c>   1</c></rc>
    <rc><c>C </c><c>   1</c></rc>
    <rc><c>C </c><c>   1</c></rc>
    <rc><c>C </c><c>   1</c></rc>
    <rc><c>C </c><c>   1</c></rc>
    <rc><c>C </c><c>   1</c></rc>
    <rc><c>C </c><c>   1</c></rc>
    <rc><c>C </c><c>   1</c></rc>
    <rc><c>C </c><c>   1</c></rc>
    <rc><c>C </c><c>   1</c></rc>
    <rc><c>C </c><c>   1</c></rc>
    <rc><c>C </c><c>   1</c></rc>
    <rc><c>C </c><c>   1</c></rc>
    <rc><c>C </c><c>   1</c></rc>
    <rc><c>C </c><c>   1</c></rc>
    <rc><c>C </c><c>   1</c></rc>
    <rc><c>C </c><c>   1</c></rc>
    <rc><c>C </c><c>   1</c></rc>
    <rc><c>C </c><c>   1</c></rc>
    <rc><c>C </c><c>   1</c></rc>
    <rc><c>C </c><c>   1</c></rc>
    <rc><c>C </c><c>   1</c></rc>
    <rc><c>C </c><c>   1</c></rc>
    <rc><c>C </c><c>   1</c></rc>
    <rc><c>C </c><c>   1</c></rc>
    <rc><c>C </c><c>   1</c></rc>
    <rc><c>C </c><c>   1</c></rc>
    <rc><c>C </c><c>   1</c></rc>
    <rc><c>C </c><c>   1</c></rc>
    <rc><c>C </c><c>   1</c></rc>
    <rc><c>C </c><c>   1</c></rc>
    <rc><c>C </c><c>   1</c></rc>
    <rc><c>C </c><c>   1</c></rc>
    <rc><c>C </c><c>   1</c></rc>
    <rc><c>C </c><c>   1</c></rc>
    <rc><c>C </c><c>   1</c></rc>
    <rc><c>C </c><c>   1</c></rc>
    <rc><c>C </c><c>   1</c></rc>
    <rc><c>C </c><c>   1</c></rc>
    <rc><c>C </c><c>   1</c></rc>
    <rc><c>C </c><c>   1</c></rc>
    <rc><c>C </c><c>   1</c></rc>
    <rc><c>C </c><c>   1</c></rc>
    <rc><c>C </c><c>   1</c></rc>
    <rc><c>C </c><c>   1</c></rc>
    <rc><c>C </c><c>   1</c></rc>
    <rc><c>C </c><c>   1</c></rc>
    <rc><c>C </c><c>   1</c></rc>
    <rc><c>C </c><c>   1</c></rc>
    <rc><c>C </c><c>   1</c></rc>
    <rc><c>C </c><c>   1</c></rc>
    <rc><c>C </c><c>   1</c></rc>
    <rc><c>C </c><c>   1</c></rc>
    <rc><c>C </c><c>   1</c></rc>
    <rc><c>C </c><c>   1</c></rc>
    <rc><c>C </c><c>   1</c></rc>
    <rc><c>C </c><c>   1</c></rc>
    <rc><c>C </c><c>   1</c></rc>
    <rc><c>C </c><c>   1</c></rc>
    <rc><c>C </c><c>   1</c></rc>
    <rc><c>C </c><c>   1</c></rc>
    <rc><c>C </c><c>   1</c></rc>
    <rc><c>C </c><c>   1</c></rc>
    <rc><c>C </c><c>   1</c></rc>
    <rc><c>C </c><c>   1</c></rc>
    <rc><c>C </c><c>   1</c></rc>
    <rc><c>C </c><c>   1</c></rc>
    <rc><c>C </c><c>   1</c></rc>
    <rc><c>C </c><c>   1</c></rc>
    <rc><c>C </c><c>   1</c></rc>
    <rc><c>C </c><c>   1</c></rc>
    <rc><c>C </c><c>   1</c></rc>
    <rc><c>C </c><c>   1</c></rc>
    <rc><c>C </c><c>   1</c></rc>
    <rc><c>C </c><c>   1</c></rc>
    <rc><c>C </c><c>   1</c></rc>
    <rc><c>H </c><c>   2</c></rc>
    <rc><c>H </c><c>   2</c></rc>
    <rc><c>H </c><c>   2</c></rc>
    <rc><c>H </c><c>   2</c></rc>
    <rc><c>H </c><c>   2</c></rc>
    <rc><c>H </c><c>   2</c></rc>
    <rc><c>N </c><c>   3</c></rc>
    <rc><c>N </c><c>   3</c></rc>
    <rc><c>N </c><c>   3</c></rc>
    <rc><c>N </c><c>   3</c></rc>
    <rc><c>O </c><c>   4</c></rc>
   </set>
  </array>
  <array name="atomtypes" >
   <dimension dim="1">type</dimension>
   <field type="int">atomspertype</field>
   <field type="string">element</field>
   <field>mass</field>
   <field>valence</field>
   <field type="string">pseudopotential</field>
   <set>
    <rc><c>  84</c><c>C </c><c>     12.01100000</c><c>      4.00000000</c><c>  PAW_PBE C 08Apr2002                   </c></rc>
    <rc><c>   6</c><c>H </c><c>      1.00000000</c><c>      1.00000000</c><c>  PAW_PBE H 15Jun2001                   </c></rc>
    <rc><c>   4</c><c>N </c><c>     14.00100000</c><c>      5.00000000</c><c>  PAW_PBE N 08Apr2002                   </c></rc>
    <rc><c>   1</c><c>O </c><c>     16.00000000</c><c>      6.00000000</c><c>  PAW_PBE O 08Apr2002                   </c></rc>
   </set>
  </array>
 </atominfo>
 <structure name="initialpos" >
  <crystal>
   <varray name="basis" >
    <v>      17.27103806       0.00000000       0.00000000 </v>
    <v>      -8.63551903      14.95715771       0.00000000 </v>
    <v>       0.00000000       0.00000000      15.00000000 </v>
   </varray>
   <i name="volume">   3874.88459904 </i>
   <varray name="rec_basis" >
    <v>       0.05790040       0.03342881       0.00000000 </v>
    <v>       0.00000000       0.06685762       0.00000000 </v>
    <v>       0.00000000       0.00000000       0.06666667 </v>
   </varray>
  </crystal>
  <varray name="positions" >
   <v>       0.00138300       0.00062601       0.50009255 </v>
   <v>       0.00086206       0.14308170       0.49997771 </v>
   <v>       0.00052461       0.28592601       0.49988398 </v>
   <v>       0.00086695       0.42911830       0.49997553 </v>
   <v>       0.00135902       0.57208211       0.50006747 </v>
   <v>       0.00173813       0.71493802       0.50010254 </v>
   <v>       0.00178341       0.85820310       0.50009348 </v>
   <v>       0.14517356       0.00179263       0.50001693 </v>
   <v>       0.14472657       0.14447159       0.49994569 </v>
   <v>       0.14285976       0.28591708       0.49982555 </v>
   <v>       0.14281885       0.42828787       0.49988827 </v>
   <v>       0.14471318       0.57157033       0.50000187 </v>
   <v>       0.14514090       0.71469854       0.50004972 </v>
   <v>       0.14507334       0.85820943       0.50002359 </v>
   <v>       0.28804542       0.00182701       0.49996526 </v>
   <v>       0.28835161       0.14650726       0.49995488 </v>
   <v>       0.28763983       0.29261305       0.49993275 </v>
   <v>       0.28537975       0.42835491       0.49991375 </v>
   <v>       0.28762515       0.56635491       0.49997840 </v>
   <v>       0.28833244       0.71323225       0.50002803 </v>
   <v>       0.28804300       0.85761943       0.50000622 </v>
   <v>       0.43057248       0.00098023       0.49997450 </v>
   <v>       0.43123488       0.14560033       0.49992084 </v>
   <v>       0.43050351       0.28717497       0.49999132 </v>
   <v>       0.43044251       0.71467446       0.50010845 </v>
   <v>       0.43124978       0.85704795       0.50005623 </v>
   <v>       0.57289481       0.00055721       0.50002444 </v>
   <v>       0.57289311       0.14371269       0.49995129 </v>
   <v>       0.57659066       0.29021285       0.49995167 </v>
   <v>       0.57659125       0.85772188       0.50013421 </v>
   <v>       0.71579218       0.00095845       0.50010479 </v>
   <v>       0.71564003       0.14348571       0.49999538 </v>
   <v>       0.71582697       0.28618745       0.49994912 </v>
   <v>       0.71182825       0.42568128       0.50000793 </v>
   <v>       0.71610270       0.57242119       0.50012216 </v>
   <v>       0.71612892       0.71506212       0.50025956 </v>
   <v>       0.71185686       0.85751855       0.50020563 </v>
   <v>       0.85816503       0.00023791       0.50018922 </v>
   <v>       0.85816327       0.14329992       0.50002838 </v>
   <v>       0.85817877       0.28618320       0.49996478 </v>
   <v>       0.85816237       0.42926257       0.50001171 </v>
   <v>       0.85737019       0.57150179       0.50011229 </v>
   <v>       0.85880683       0.71508611       0.50013720 </v>
   <v>       0.85741108       0.85725101       0.50018546 </v>
   <v>       0.04918290       0.09607419       0.50000505 </v>
   <v>       0.04772923       0.23809136       0.49986403 </v>
   <v>       0.04772634       0.38097477       0.49989484 </v>
   <v>       0.04916282       0.52443259       0.50001298 </v>
   <v>       0.04952286       0.66741981       0.50007454 </v>
   <v>       0.04942647       0.81038452       0.50007147 </v>
   <v>       0.04957058       0.95348899       0.50007615 </v>
   <v>       0.19279937       0.09723028       0.49997997 </v>
   <v>       0.19171019       0.23997933       0.49987981 </v>
   <v>       0.18973166       0.38055519       0.49985762 </v>
   <v>       0.19170535       0.52306184       0.49995858 </v>
   <v>       0.19276408       0.66688666       0.50002523 </v>
   <v>       0.19276483       0.81032181       0.50002714 </v>
   <v>       0.19278358       0.95380209       0.49999813 </v>
   <v>       0.33586239       0.09823573       0.49993584 </v>
   <v>       0.33691187       0.24305888       0.49996947 </v>
   <v>       0.33686870       0.66520447       0.50002836 </v>
   <v>       0.33584429       0.80903152       0.50003516 </v>
   <v>       0.33518671       0.95330536       0.49997949 </v>
   <v>       0.47790478       0.09648658       0.49993001 </v>
   <v>       0.47873251       0.24155471       0.49995260 </v>
   <v>       0.47871155       0.80853828       0.50010678 </v>
   <v>       0.47791240       0.95283447       0.50001653 </v>
   <v>       0.62020716       0.09578687       0.49999306 </v>
   <v>       0.62105680       0.23928745       0.49993312 </v>
   <v>       0.62105411       0.95311751       0.50007614 </v>
   <v>       0.76329588       0.09618058       0.50004538 </v>
   <v>       0.76333452       0.23845322       0.49996888 </v>
   <v>       0.76267474       0.38102783       0.49998295 </v>
   <v>       0.76082777       0.52397519       0.50006561 </v>
   <v>       0.76294982       0.66715353       0.50018232 </v>
   <v>       0.76087179       0.80824014       0.50024084 </v>
   <v>       0.76269573       0.95300799       0.50018559 </v>
   <v>       0.90561096       0.09527195       0.50007913 </v>
   <v>       0.90548684       0.23837637       0.49995137 </v>
   <v>       0.90561513       0.38166004       0.49998934 </v>
   <v>       0.90581489       0.52461801       0.50007410 </v>
   <v>       0.90586144       0.66702527       0.50013657 </v>
   <v>       0.90590237       0.81022853       0.50014123 </v>
   <v>       0.90585322       0.95258241       0.50018305 </v>
   <v>       0.46876394       0.35985997       0.50004318 </v>
   <v>       0.64320278       0.67721711       0.50027269 </v>
   <v>       0.64317084       0.53736332       0.50011818 </v>
   <v>       0.46867106       0.68021068       0.50015844 </v>
   <v>       0.46381233       0.55997491       0.50000295 </v>
   <v>       0.46302994       0.47438972       0.49999419 </v>
   <v>       0.33165767       0.38293198       0.49994107 </v>
   <v>       0.33167254       0.52007494       0.49996143 </v>
   <v>       0.62183620       0.38054411       0.49999140 </v>
   <v>       0.62185041       0.81264669       0.50018546 </v>
   <v>       0.50712026       0.53874614       0.50000005 </v>
  </varray>
  <varray name="selective"  type="logical" >
   <v type="logical" >  T  T  T </v>
   <v type="logical" >  T  T  T </v>
   <v type="logical" >  T  T  T </v>
   <v type="logical" >  T  T  T </v>
   <v type="logical" >  T  T  T </v>
   <v type="logical" >  T  T  T </v>
   <v type="logical" >  T  T  T </v>
   <v type="logical" >  T  T  T </v>
   <v type="logical" >  T  T  T </v>
   <v type="logical" >  T  T  T </v>
   <v type="logical" >  T  T  T </v>
   <v type="logical" >  T  T  T </v>
   <v type="logical" >  T  T  T </v>
   <v type="logical" >  T  T  T </v>
   <v type="logical" >  T  T  T </v>
   <v type="logical" >  T  T  T </v>
   <v type="logical" >  T  T  T </v>
   <v type="logical" >  T  T  T </v>
   <v type="logical" >  T  T  T </v>
   <v type="logical" >  T  T  T </v>
   <v type="logical" >  T  T  T </v>
   <v type="logical" >  T  T  T </v>
   <v type="logical" >  T  T  T </v>
   <v type="logical" >  T  T  T </v>
   <v type="logical" >  T  T  T </v>
   <v type="logical" >  T  T  T </v>
   <v type="logical" >  T  T  T </v>
   <v type="logical" >  T  T  T </v>
   <v type="logical" >  T  T  T </v>
   <v type="logical" >  T  T  T </v>
   <v type="logical" >  T  T  T </v>
   <v type="logical" >  T  T  T </v>
   <v type="logical" >  T  T  T </v>
   <v type="logical" >  T  T  T </v>
   <v type="logical" >  T  T  T </v>
   <v type="logical" >  T  T  T </v>
   <v type="logical" >  T  T  T </v>
   <v type="logical" >  T  T  T </v>
   <v type="logical" >  T  T  T </v>
   <v type="logical" >  T  T  T </v>
   <v type="logical" >  T  T  T </v>
   <v type="logical" >  T  T  T </v>
   <v type="logical" >  T  T  T </v>
   <v type="logical" >  T  T  T </v>
   <v type="logical" >  T  T  T </v>
   <v type="logical" >  T  T  T </v>
   <v type="logical" >  T  T  T </v>
   <v type="logical" >  T  T  T </v>
   <v type="logical" >  T  T  T </v>
   <v type="logical" >  T  T  T </v>
   <v type="logical" >  T  T  T </v>
   <v type="logical" >  T  T  T </v>
   <v type="logical" >  T  T  T </v>
   <v type="logical" >  T  T  T </v>
   <v type="logical" >  T  T  T </v>
   <v type="logical" >  T  T  T </v>
   <v type="logical" >  T  T  T </v>
   <v type="logical" >  T  T  T </v>
   <v type="logical" >  T  T  T </v>
   <v type="logical" >  T  T  T </v>
   <v type="logical" >  T  T  T </v>
   <v type="logical" >  T  T  T </v>
   <v type="logical" >  T  T  T </v>
   <v type="logical" >  T  T  T </v>
   <v type="logical" >  T  T  T </v>
   <v type="logical" >  T  T  T </v>
   <v type="logical" >  T  T  T </v>
   <v type="logical" >  T  T  T </v>
   <v type="logical" >  T  T  T </v>
   <v type="logical" >  T  T  T </v>
   <v type="logical" >  T  T  T </v>
   <v type="logical" >  T  T  T </v>
   <v type="logical" >  T  T  T </v>
   <v type="logical" >  T  T  T </v>
   <v type="logical" >  T  T  T </v>
   <v type="logical" >  T  T  T </v>
   <v type="logical" >  T  T  T </v>
   <v type="logical" >  T  T  T </v>
   <v type="logical" >  T  T  T </v>
   <v type="logical" >  T  T  T </v>
   <v type="logical" >  T  T  T </v>
   <v type="logical" >  T  T  T </v>
   <v type="logical" >  T  T  T </v>
   <v type="logical" >  T  T  T </v>
   <v type="logical" >  T  T  T </v>
   <v type="logical" >  T  T  T </v>
   <v type="logical" >  T  T  T </v>
   <v type="logical" >  T  T  T </v>
   <v type="logical" >  T  T  T </v>
   <v type="logical" >  T  T  T </v>
   <v type="logical" >  T  T  T </v>
   <v type="logical" >  T  T  T </v>
   <v type="logical" >  T  T  T </v>
   <v type="logical" >  T  T  T </v>
   <v type="logical" >  T  T  F </v>
  </varray>
  <nose>
   <v>      -3.00000000       0.00000000       0.00010000       0.00010000 </v>
  </nose>
 </structure>
 <calculation>
  <scstep>
   <time name="dav">  106.35  107.02</time>
   <time name="total">  111.74  112.49</time>
   <energy>
    <i name="alphaZ">    175.60570339 </i>
    <i name="ewald">  36628.64605847 </i>
    <i name="hartreedc"> -47038.51223973 </i>
    <i name="XCdc">   1231.37726174 </i>
    <i name="pawpsdc">  10290.17603344 </i>
    <i name="pawaedc"> -10344.35078173 </i>
    <i name="eentropy">     -0.03678510 </i>
    <i name="bandstr">  -1589.45450295 </i>
    <i name="atom">  13925.93113153 </i>
    <i name="e_fr_energy">   3279.38187906 </i>
    <i name="e_wo_entrp">   3279.41866416 </i>
    <i name="e_0_energy">   3279.40027161 </i>
   </energy>
  </scstep>
  <scstep>
   <time name="dav">  135.06  136.00</time>
   <time name="total">  135.06  136.02</time>
   <energy>
    <i name="e_fr_energy">   -234.58370038 </i>
    <i name="e_wo_entrp">   -234.58362144 </i>
    <i name="e_0_energy">   -234.58366091 </i>
   </energy>
  </scstep>
  <scstep>
   <time name="dav">  117.67  118.46</time>
   <time name="total">  117.67  118.47</time>
   <energy>
    <i name="e_fr_energy">   -853.26961834 </i>
    <i name="e_wo_entrp">   -853.26959646 </i>
    <i name="e_0_energy">   -853.26960740 </i>
   </energy>
  </scstep>
  <scstep>
   <time name="dav">  117.03  117.86</time>
   <time name="total">  117.03  117.88</time>
   <energy>
    <i name="e_fr_energy">   -875.23765458 </i>
    <i name="e_wo_entrp">   -875.23758617 </i>
    <i name="e_0_energy">   -875.23762037 </i>
   </energy>
  </scstep>
  <scstep>
   <time name="dav">  129.13  130.03</time>
   <time name="total">  137.14  138.11</time>
   <energy>
    <i name="e_fr_energy">   -875.88531384 </i>
    <i name="e_wo_entrp">   -875.88524097 </i>
    <i name="e_0_energy">   -875.88527740 </i>
   </energy>
  </scstep>
  <scstep>
   <time name="dav">  116.66  117.40</time>
   <time name="total">  131.86  132.76</time>
   <energy>
    <i name="e_fr_energy">   -859.54835257 </i>
    <i name="e_wo_entrp">   -859.54835066 </i>
    <i name="e_0_energy">   -859.54835161 </i>
   </energy>
  </scstep>
  <scstep>
   <time name="dav">  111.67  112.38</time>
   <time name="total">  126.84  127.77</time>
   <energy>
    <i name="e_fr_energy">   -838.47381031 </i>
    <i name="e_wo_entrp">   -838.47381029 </i>
    <i name="e_0_energy">   -838.47381030 </i>
   </energy>
  </scstep>
  <scstep>
   <time name="dav">  113.73  114.47</time>
   <time name="total">  128.80  129.66</time>
   <energy>
    <i name="e_fr_energy">   -833.74675321 </i>
    <i name="e_wo_entrp">   -833.74675321 </i>
    <i name="e_0_energy">   -833.74675321 </i>
   </energy>
  </scstep>
  <scstep>
   <time name="dav">  113.00  113.71</time>
   <time name="total">  128.15  128.99</time>
   <energy>
    <i name="e_fr_energy">   -833.76114687 </i>
    <i name="e_wo_entrp">   -833.76114687 </i>
    <i name="e_0_energy">   -833.76114687 </i>
   </energy>
  </scstep>
  <scstep>
   <time name="dav">  109.82  110.53</time>
   <time name="total">  124.96  125.80</time>
   <energy>
    <i name="e_fr_energy">   -833.62683048 </i>
    <i name="e_wo_entrp">   -833.62683048 </i>
    <i name="e_0_energy">   -833.62683048 </i>
   </energy>
  </scstep>
  <scstep>
   <time name="dav">  109.30  110.02</time>
   <time name="total">  124.52  125.37</time>
   <energy>
    <i name="e_fr_energy">   -833.60652410 </i>
    <i name="e_wo_entrp">   -833.60652410 </i>
    <i name="e_0_energy">   -833.60652410 </i>
   </energy>
  </scstep>
  <scstep>
   <time name="dav">  111.89  112.62</time>
   <time name="total">  126.99  127.85</time>
   <energy>
    <i name="e_fr_energy">   -833.60620858 </i>
    <i name="e_wo_entrp">   -833.60620858 </i>
    <i name="e_0_energy">   -833.60620858 </i>
   </energy>
  </scstep>
  <scstep>
   <time name="dav">  110.37  111.06</time>
   <time name="total">  125.41  126.24</time>
   <energy>
    <i name="e_fr_energy">   -833.60601317 </i>
    <i name="e_wo_entrp">   -833.60601317 </i>
    <i name="e_0_energy">   -833.60601317 </i>
   </energy>
  </scstep>
  <scstep>
   <time name="dav">  113.27  114.03</time>
   <time name="total">  128.47  129.37</time>
   <energy>
    <i name="e_fr_energy">   -833.60608636 </i>
    <i name="e_wo_entrp">   -833.60608636 </i>
    <i name="e_0_energy">   -833.60608636 </i>
   </energy>
  </scstep>
  <scstep>
   <time name="dav">  106.24  106.95</time>
   <time name="total">  121.34  122.18</time>
   <energy>
    <i name="e_fr_energy">   -833.60612859 </i>
    <i name="e_wo_entrp">   -833.60612859 </i>
    <i name="e_0_energy">   -833.60612859 </i>
   </energy>
  </scstep>
  <scstep>
   <time name="dav">  105.10  105.60</time>
   <time name="total">  120.25  120.85</time>
   <energy>
    <i name="e_fr_energy">   -833.60613238 </i>
    <i name="e_wo_entrp">   -833.60613238 </i>
    <i name="e_0_energy">   -833.60613238 </i>
   </energy>
  </scstep>
  <scstep>
   <time name="dav">   50.76   50.99</time>
   <time name="total">   60.62   60.94</time>
   <energy>
    <i name="e_fr_energy">   -833.60613132 </i>
    <i name="e_wo_entrp">   -833.60613132 </i>
    <i name="e_0_energy">   -833.60613132 </i>
   </energy>
  </scstep>
  <scstep>
   <time name="dav">   40.08   40.27</time>
   <time name="total">   43.84   44.08</time>
   <energy>
    <i name="alphaZ">    175.60570339 </i>
    <i name="ewald">  36628.64605847 </i>
    <i name="hartreedc"> -48500.04062645 </i>
    <i name="XCdc">   1280.27745080 </i>
    <i name="pawpsdc">  37180.97670771 </i>
    <i name="pawaedc"> -37246.02992584 </i>
    <i name="eentropy">     -0.00000000 </i>
    <i name="bandstr">  -4278.97263068 </i>
    <i name="atom">  13925.93113153 </i>
    <i name="e_fr_energy">   -833.60613107 </i>
    <i name="e_wo_entrp">   -833.60613107 </i>
    <i name="e_0_energy">   -833.60613107 </i>
   </energy>
  </scstep>
  <structure>
   <crystal>
    <varray name="basis" >
     <v>      17.27103806       0.00000000       0.00000000 </v>
     <v>      -8.63551903      14.95715771       0.00000000 </v>
     <v>       0.00000000       0.00000000      15.00000000 </v>
    </varray>
    <i name="volume">   3874.88459904 </i>
    <varray name="rec_basis" >
     <v>       0.05790040       0.03342881       0.00000000 </v>
     <v>       0.00000000       0.06685762       0.00000000 </v>
     <v>       0.00000000       0.00000000       0.06666667 </v>
    </varray>
   </crystal>
   <varray name="positions" >
    <v>       0.00138300       0.00062601       0.50009255 </v>
    <v>       0.00086206       0.14308170       0.49997771 </v>
    <v>       0.00052461       0.28592601       0.49988398 </v>
    <v>       0.00086695       0.42911830       0.49997553 </v>
    <v>       0.00135902       0.57208211       0.50006747 </v>
    <v>       0.00173813       0.71493802       0.50010254 </v>
    <v>       0.00178341       0.85820310       0.50009348 </v>
    <v>       0.14517356       0.00179263       0.50001693 </v>
    <v>       0.14472657       0.14447159       0.49994569 </v>
    <v>       0.14285976       0.28591708       0.49982555 </v>
    <v>       0.14281885       0.42828787       0.49988827 </v>
    <v>       0.14471318       0.57157033       0.50000187 </v>
    <v>       0.14514090       0.71469854       0.50004972 </v>
    <v>       0.14507334       0.85820943       0.50002359 </v>
    <v>       0.28804542       0.00182701       0.49996526 </v>
    <v>       0.28835161       0.14650726       0.49995488 </v>
    <v>       0.28763983       0.29261305       0.49993275 </v>
    <v>       0.28537975       0.42835491       0.49991375 </v>
    <v>       0.28762515       0.56635491       0.49997840 </v>
    <v>       0.28833244       0.71323225       0.50002803 </v>
    <v>       0.28804300       0.85761943       0.50000622 </v>
    <v>       0.43057248       0.00098023       0.49997450 </v>
    <v>       0.43123488       0.14560033       0.49992084 </v>
    <v>       0.43050351       0.28717497       0.49999132 </v>
    <v>       0.43044251       0.71467446       0.50010845 </v>
    <v>       0.43124978       0.85704795       0.50005623 </v>
    <v>       0.57289481       0.00055721       0.50002444 </v>
    <v>       0.57289311       0.14371269       0.49995129 </v>
    <v>       0.57659066       0.29021285       0.49995167 </v>
    <v>       0.57659125       0.85772188       0.50013421 </v>
    <v>       0.71579218       0.00095845       0.50010479 </v>
    <v>       0.71564003       0.14348571       0.49999538 </v>
    <v>       0.71582697       0.28618745       0.49994912 </v>
    <v>       0.71182825       0.42568128       0.50000793 </v>
    <v>       0.71610270       0.57242119       0.50012216 </v>
    <v>       0.71612892       0.71506212       0.50025956 </v>
    <v>       0.71185686       0.85751855       0.50020563 </v>
    <v>       0.85816503       0.00023791       0.50018922 </v>
    <v>       0.85816327       0.14329992       0.50002838 </v>
    <v>       0.85817877       0.28618320       0.49996478 </v>
    <v>       0.85816237       0.42926257       0.50001171 </v>
    <v>       0.85737019       0.57150179       0.50011229 </v>
    <v>       0.85880683       0.71508611       0.50013720 </v>
    <v>       0.85741108       0.85725101       0.50018546 </v>
    <v>       0.04918290       0.09607419       0.50000505 </v>
    <v>       0.04772923       0.23809136       0.49986403 </v>
    <v>       0.04772634       0.38097477       0.49989484 </v>
    <v>       0.04916282       0.52443259       0.50001298 </v>
    <v>       0.04952286       0.66741981       0.50007454 </v>
    <v>       0.04942647       0.81038452       0.50007147 </v>
    <v>       0.04957058       0.95348899       0.50007615 </v>
    <v>       0.19279937       0.09723028       0.49997997 </v>
    <v>       0.19171019       0.23997933       0.49987981 </v>
    <v>       0.18973166       0.38055519       0.49985762 </v>
    <v>       0.19170535       0.52306184       0.49995858 </v>
    <v>       0.19276408       0.66688666       0.50002523 </v>
    <v>       0.19276483       0.81032181       0.50002714 </v>
    <v>       0.19278358       0.95380209       0.49999813 </v>
    <v>       0.33586239       0.09823573       0.49993584 </v>
    <v>       0.33691187       0.24305888       0.49996947 </v>
    <v>       0.33686870       0.66520447       0.50002836 </v>
    <v>       0.33584429       0.80903152       0.50003516 </v>
    <v>       0.33518671       0.95330536       0.49997949 </v>
    <v>       0.47790478       0.09648658       0.49993001 </v>
    <v>       0.47873251       0.24155471       0.49995260 </v>
    <v>       0.47871155       0.80853828       0.50010678 </v>
    <v>       0.47791240       0.95283447       0.50001653 </v>
    <v>       0.62020716       0.09578687       0.49999306 </v>
    <v>       0.62105680       0.23928745       0.49993312 </v>
    <v>       0.62105411       0.95311751       0.50007614 </v>
    <v>       0.76329588       0.09618058       0.50004538 </v>
    <v>       0.76333452       0.23845322       0.49996888 </v>
    <v>       0.76267474       0.38102783       0.49998295 </v>
    <v>       0.76082777       0.52397519       0.50006561 </v>
    <v>       0.76294982       0.66715353       0.50018232 </v>
    <v>       0.76087179       0.80824014       0.50024084 </v>
    <v>       0.76269573       0.95300799       0.50018559 </v>
    <v>       0.90561096       0.09527195       0.50007913 </v>
    <v>       0.90548684       0.23837637       0.49995137 </v>
    <v>       0.90561513       0.38166004       0.49998934 </v>
    <v>       0.90581489       0.52461801       0.50007410 </v>
    <v>       0.90586144       0.66702527       0.50013657 </v>
    <v>       0.90590237       0.81022853       0.50014123 </v>
    <v>       0.90585322       0.95258241       0.50018305 </v>
    <v>       0.46876394       0.35985997       0.50004318 </v>
    <v>       0.64320278       0.67721711       0.50027269 </v>
    <v>       0.64317084       0.53736332       0.50011818 </v>
    <v>       0.46867106       0.68021068       0.50015844 </v>
    <v>       0.46381233       0.55997491       0.50000295 </v>
    <v>       0.46302994       0.47438972       0.49999419 </v>
    <v>       0.33165767       0.38293198       0.49994107 </v>
    <v>       0.33167254       0.52007494       0.49996143 </v>
    <v>       0.62183620       0.38054411       0.49999140 </v>
    <v>       0.62185041       0.81264669       0.50018546 </v>
    <v>       0.50712026       0.53874614       0.50000005 </v>
   </varray>
  </structure>
  <varray name="forces" >
   <v>      -0.00096425      -0.00018187      -0.00003523 </v>
   <v>      -0.00123146      -0.00183560      -0.00031686 </v>
   <v>      -0.00298374      -0.00109748      -0.00004461 </v>
   <v>      -0.00304508      -0.00488752       0.00047368 </v>
   <v>      -0.00041499      -0.00213512      -0.00032417 </v>
   <v>      -0.00142406       0.00253417       0.00035363 </v>
   <v>      -0.00087834       0.00055373       0.00072035 </v>
   <v>      -0.00095344      -0.00015842       0.00035190 </v>
   <v>       0.00062196      -0.00599548       0.00051414 </v>
   <v>      -0.00268765      -0.00225842      -0.00036726 </v>
   <v>      -0.00157806      -0.00146900      -0.00033861 </v>
   <v>       0.00118574      -0.00967114      -0.00012611 </v>
   <v>       0.00123481       0.00105849      -0.00088822 </v>
   <v>      -0.00260601       0.00360769      -0.00068227 </v>
   <v>      -0.00288315       0.00033988       0.00017298 </v>
   <v>      -0.00169662      -0.00231606      -0.00011290 </v>
   <v>      -0.00089156      -0.00190043      -0.00008055 </v>
   <v>      -0.00036315       0.00086794      -0.00004416 </v>
   <v>      -0.00040884      -0.00086474      -0.00009017 </v>
   <v>       0.00189756      -0.00253168      -0.00052403 </v>
   <v>      -0.00203575       0.00051902       0.00016750 </v>
   <v>      -0.00184246      -0.00012987       0.00077550 </v>
   <v>      -0.00165688      -0.00153777       0.00031560 </v>
   <v>      -0.00146185      -0.00338626      -0.00030788 </v>
   <v>      -0.00035269      -0.00020292      -0.00018832 </v>
   <v>      -0.00016509      -0.00033340       0.00051269 </v>
   <v>      -0.00058452      -0.00026448       0.00056468 </v>
   <v>      -0.00010175      -0.00056739      -0.00111411 </v>
   <v>      -0.00046057      -0.00086453      -0.00038545 </v>
   <v>      -0.00048012      -0.00039085      -0.00009574 </v>
   <v>      -0.00111600      -0.00016522       0.00007927 </v>
   <v>      -0.00066505      -0.00049149       0.00032842 </v>
   <v>      -0.00032417      -0.00119859      -0.00015844 </v>
   <v>      -0.00068815      -0.00075277       0.00000691 </v>
   <v>      -0.00096374      -0.00021265      -0.00012358 </v>
   <v>      -0.00141967      -0.00041328      -0.00016629 </v>
   <v>      -0.00152500      -0.00029485      -0.00057229 </v>
   <v>      -0.00206886       0.00057279       0.00015792 </v>
   <v>      -0.00111282      -0.00033432       0.00010423 </v>
   <v>      -0.00047016      -0.00174485       0.00036633 </v>
   <v>       0.00184294      -0.00349391       0.00027686 </v>
   <v>      -0.00081667      -0.00058512      -0.00011957 </v>
   <v>      -0.00099508       0.00003363       0.00019735 </v>
   <v>      -0.00163412       0.00044246      -0.00010301 </v>
   <v>      -0.00230913       0.00098648      -0.00002282 </v>
   <v>       0.00549264       0.00249529       0.00026488 </v>
   <v>       0.00137245       0.00117401      -0.00028670 </v>
   <v>      -0.00028751       0.00306937      -0.00045657 </v>
   <v>       0.00000460      -0.00052314      -0.00006731 </v>
   <v>      -0.00049995      -0.00259478       0.00063517 </v>
   <v>      -0.00106901      -0.00130158       0.00053262 </v>
   <v>      -0.00091353       0.00138681      -0.00004712 </v>
   <v>       0.00145836       0.00633449      -0.00037318 </v>
   <v>       0.00180166       0.00082332      -0.00031617 </v>
   <v>       0.00078347       0.00319775       0.00055795 </v>
   <v>      -0.00285916       0.00481192      -0.00036302 </v>
   <v>       0.00297487      -0.00178265      -0.00070878 </v>
   <v>      -0.00007124      -0.00192707       0.00023134 </v>
   <v>      -0.00003951       0.00018713       0.00008648 </v>
   <v>       0.00132675       0.00385065      -0.00055996 </v>
   <v>      -0.00180069       0.00046006      -0.00012555 </v>
   <v>      -0.00164917      -0.00019329       0.00028527 </v>
   <v>       0.00308208      -0.00308545       0.00073555 </v>
   <v>      -0.00087176      -0.00059248       0.00062047 </v>
   <v>      -0.00128007       0.00090852       0.00007949 </v>
   <v>      -0.00165713       0.00003415       0.00005160 </v>
   <v>      -0.00147121      -0.00076819       0.00081619 </v>
   <v>      -0.00147221      -0.00044048       0.00046501 </v>
   <v>      -0.00150939       0.00014098      -0.00022212 </v>
   <v>      -0.00130845      -0.00029292       0.00012511 </v>
   <v>      -0.00126009      -0.00048871       0.00027930 </v>
   <v>      -0.00156437      -0.00000606       0.00025351 </v>
   <v>      -0.00150210       0.00069618      -0.00021007 </v>
   <v>      -0.00026129      -0.00001239      -0.00009731 </v>
   <v>       0.00049645      -0.00041329      -0.00007309 </v>
   <v>       0.00027890      -0.00008727       0.00002048 </v>
   <v>      -0.00021565      -0.00050368      -0.00019115 </v>
   <v>       0.00016006      -0.00035001      -0.00009567 </v>
   <v>       0.00036601       0.00096793       0.00154246 </v>
   <v>      -0.00107619       0.00372725      -0.00062011 </v>
   <v>      -0.00067698       0.00095507      -0.00035805 </v>
   <v>      -0.00035523      -0.00100125       0.00021431 </v>
   <v>      -0.00060396      -0.00105781       0.00021486 </v>
   <v>       0.00184810      -0.00148022      -0.00097405 </v>
   <v>      -0.00027409       0.00061215      -0.00086790 </v>
   <v>       0.00083843      -0.00015870       0.00061222 </v>
   <v>      -0.00039680       0.00026909       0.00004996 </v>
   <v>      -0.00114688       0.00001733      -0.00041371 </v>
   <v>       0.01673601       0.01047861      -0.00037311 </v>
   <v>       0.01521053       0.00739744      -0.00019913 </v>
   <v>       0.00127939       0.00088124       0.00008967 </v>
   <v>       0.00163361       0.00011653       0.00010429 </v>
   <v>      -0.00063941      -0.00010337      -0.00035423 </v>
   <v>      -0.00045752       0.00024952      -0.00019683 </v>
   <v>       0.01552387       0.00707319       0.00057543 </v>
  </varray>
  <varray name="stress" >
   <v>      -5.90692129       1.78251440       0.00063978 </v>
   <v>       1.78251431      -7.96732990      -0.00388120 </v>
   <v>       0.00063977      -0.00388120      -0.27890090 </v>
  </varray>
  <energy>
   <i name="e_fr_energy">   -841.24590850 </i>
   <i name="e_wo_entrp">   -841.24590850 </i>
   <i name="e_0_energy">   -841.24590850 </i>
  </energy>
  <time name="totalsc"> 2272.69 2288.28</time>
  <eigenvalues>
   <array>
    <dimension dim="1">band</dimension>
    <dimension dim="2">kpoint</dimension>
    <dimension dim="3">spin</dimension>
    <field>eigene</field>
    <field>occ</field>
    <set>
     <set comment="spin 1">
      <set comment="kpoint 1">
       <r>  -22.7419    1.0000 </r>
       <r>  -22.4086    1.0000 </r>
       <r>  -22.3478    1.0000 </r>
       <r>  -22.1017    1.0000 </r>
       <r>  -21.7706    1.0000 </r>
       <r>  -21.6829    1.0000 </r>
       <r>  -21.5938    1.0000 </r>
       <r>  -21.4632    1.0000 </r>
       <r>  -21.2441    1.0000 </r>
       <r>  -21.0602    1.0000 </r>
       <r>  -20.7963    1.0000 </r>
       <r>  -20.5860    1.0000 </r>
       <r>  -20.4554    1.0000 </r>
       <r>  -20.4495    1.0000 </r>
       <r>  -20.3319    1.0000 </r>
       <r>  -20.3274    1.0000 </r>
       <r>  -20.1093    1.0000 </r>
       <r>  -20.0359    1.0000 </r>
       <r>  -19.8084    1.0000 </r>
       <r>  -19.3135    1.0000 </r>
       <r>  -19.2851    1.0000 </r>
       <r>  -18.8679    1.0000 </r>
       <r>  -18.8615    1.0000 </r>
       <r>  -18.7768    1.0000 </r>
       <r>  -18.7714    1.0000 </r>
       <r>  -18.7442    1.0000 </r>
       <r>  -18.7230    1.0000 </r>
       <r>  -18.4572    1.0000 </r>
       <r>  -18.4184    1.0000 </r>
       <r>  -18.3009    1.0000 </r>
       <r>  -18.0596    1.0000 </r>
       <r>  -17.9655    1.0000 </r>
       <r>  -17.8812    1.0000 </r>
       <r>  -17.8439    1.0000 </r>
       <r>  -17.5401    1.0000 </r>
       <r>  -17.0617    1.0000 </r>
       <r>  -16.9293    1.0000 </r>
       <r>  -16.6892    1.0000 </r>
       <r>  -16.6461    1.0000 </r>
       <r>  -16.6307    1.0000 </r>
       <r>  -16.5707    1.0000 </r>
       <r>  -16.5651    1.0000 </r>
       <r>  -16.5590    1.0000 </r>
       <r>  -16.5339    1.0000 </r>
       <r>  -16.5283    1.0000 </r>
       <r>  -15.7072    1.0000 </r>
       <r>  -15.5860    1.0000 </r>
       <r>  -15.5318    1.0000 </r>
       <r>  -15.3119    1.0000 </r>
       <r>  -15.2301    1.0000 </r>
       <r>  -15.1809    1.0000 </r>
       <r>  -14.8839    1.0000 </r>
       <r>  -14.7423    1.0000 </r>
       <r>  -14.6772    1.0000 </r>
       <r>  -14.5804    1.0000 </r>
       <r>  -14.5250    1.0000 </r>
       <r>  -14.4072    1.0000 </r>
       <r>  -14.3209    1.0000 </r>
       <r>  -14.2066    1.0000 </r>
       <r>  -13.9623    1.0000 </r>
       <r>  -13.7232    1.0000 </r>
       <r>  -13.4237    1.0000 </r>
       <r>  -13.3280    1.0000 </r>
       <r>  -12.9961    1.0000 </r>
       <r>  -12.9582    1.0000 </r>
       <r>  -12.7781    1.0000 </r>
       <r>  -12.7689    1.0000 </r>
       <r>  -12.6825    1.0000 </r>
       <r>  -12.6769    1.0000 </r>
       <r>  -12.6197    1.0000 </r>
       <r>  -12.5956    1.0000 </r>
       <r>  -12.4819    1.0000 </r>
       <r>  -12.4450    1.0000 </r>
       <r>  -12.4102    1.0000 </r>
       <r>  -12.3795    1.0000 </r>
       <r>  -11.9606    1.0000 </r>
       <r>  -11.8284    1.0000 </r>
       <r>  -11.7464    1.0000 </r>
       <r>  -11.5579    1.0000 </r>
       <r>  -11.4143    1.0000 </r>
       <r>  -11.2576    1.0000 </r>
       <r>  -11.0442    1.0000 </r>
       <r>  -10.7621    1.0000 </r>
       <r>  -10.5859    1.0000 </r>
       <r>  -10.4669    1.0000 </r>
       <r>  -10.4524    1.0000 </r>
       <r>  -10.4164    1.0000 </r>
       <r>  -10.2995    1.0000 </r>
       <r>  -10.2455    1.0000 </r>
       <r>  -10.2098    1.0000 </r>
       <r>  -10.1266    1.0000 </r>
       <r>  -10.1234    1.0000 </r>
       <r>  -10.0691    1.0000 </r>
       <r>  -10.0689    1.0000 </r>
       <r>   -9.9358    1.0000 </r>
       <r>   -9.8968    1.0000 </r>
       <r>   -9.8801    1.0000 </r>
       <r>   -9.8574    1.0000 </r>
       <r>   -9.7847    1.0000 </r>
       <r>   -9.7339    1.0000 </r>
       <r>   -9.6990    1.0000 </r>
       <r>   -9.6334    1.0000 </r>
       <r>   -9.6168    1.0000 </r>
       <r>   -9.6160    1.0000 </r>
       <r>   -9.6131    1.0000 </r>
       <r>   -9.6060    1.0000 </r>
       <r>   -9.5579    1.0000 </r>
       <r>   -9.4660    1.0000 </r>
       <r>   -9.4102    1.0000 </r>
       <r>   -9.4068    1.0000 </r>
       <r>   -9.4003    1.0000 </r>
       <r>   -9.1877    1.0000 </r>
       <r>   -9.0133    1.0000 </r>
       <r>   -8.9845    1.0000 </r>
       <r>   -8.8978    1.0000 </r>
       <r>   -8.8685    1.0000 </r>
       <r>   -8.6913    1.0000 </r>
       <r>   -8.6778    1.0000 </r>
       <r>   -8.6352    1.0000 </r>
       <r>   -8.5118    1.0000 </r>
       <r>   -8.5015    1.0000 </r>
       <r>   -8.4943    1.0000 </r>
       <r>   -8.3937    1.0000 </r>
       <r>   -8.3656    1.0000 </r>
       <r>   -8.3431    1.0000 </r>
       <r>   -8.2968    1.0000 </r>
       <r>   -8.2458    1.0000 </r>
       <r>   -8.2105    1.0000 </r>
       <r>   -8.1553    1.0000 </r>
       <r>   -8.1404    1.0000 </r>
       <r>   -8.1298    1.0000 </r>
       <r>   -7.9905    1.0000 </r>
       <r>   -7.9761    1.0000 </r>
       <r>   -7.9271    1.0000 </r>
       <r>   -7.8732    1.0000 </r>
       <r>   -7.8346    1.0000 </r>
       <r>   -7.8307    1.0000 </r>
       <r>   -7.7738    1.0000 </r>
       <r>   -7.6725    1.0000 </r>
       <r>   -7.5622    1.0000 </r>
       <r>   -7.5251    1.0000 </r>
       <r>   -7.5218    1.0000 </r>
       <r>   -7.3064    1.0000 </r>
       <r>   -7.2322    1.0000 </r>
       <r>   -7.1845    1.0000 </r>
       <r>   -7.1838    1.0000 </r>
       <r>   -6.8076    1.0000 </r>
       <r>   -6.7113    1.0000 </r>
       <r>   -6.7109    1.0000 </r>
       <r>   -6.6987    1.0000 </r>
       <r>   -6.5483    1.0000 </r>
       <r>   -6.4570    1.0000 </r>
       <r>   -6.4161    1.0000 </r>
       <r>   -6.3866    1.0000 </r>
       <r>   -6.3848    1.0000 </r>
       <r>   -6.3749    1.0000 </r>
       <r>   -6.3645    1.0000 </r>
       <r>   -6.3189    1.0000 </r>
       <r>   -6.3124    1.0000 </r>
       <r>   -6.0214    1.0000 </r>
       <r>   -5.9628    1.0000 </r>
       <r>   -5.9398    1.0000 </r>
       <r>   -5.9164    1.0000 </r>
       <r>   -5.8411    1.0000 </r>
       <r>   -5.7050    1.0000 </r>
       <r>   -5.6310    1.0000 </r>
       <r>   -5.5288    1.0000 </r>
       <r>   -5.2966    1.0000 </r>
       <r>   -5.1150    1.0000 </r>
       <r>   -5.1047    1.0000 </r>
       <r>   -4.8512    1.0000 </r>
       <r>   -4.5945    1.0000 </r>
       <r>   -4.5101    1.0000 </r>
       <r>   -4.4767    1.0000 </r>
       <r>   -4.4685    1.0000 </r>
       <r>   -4.4218    1.0000 </r>
       <r>   -4.3177    1.0000 </r>
       <r>   -4.2832    1.0000 </r>
       <r>   -4.2492    1.0000 </r>
       <r>   -4.2179    1.0000 </r>
       <r>   -4.1460    1.0000 </r>
       <r>   -4.0896    1.0000 </r>
       <r>   -4.0537    1.0000 </r>
       <r>   -3.6401    1.0000 </r>
       <r>   -2.0928    0.0000 </r>
       <r>   -1.5559    0.0000 </r>
       <r>   -1.4824    0.0000 </r>
       <r>   -1.1879    0.0000 </r>
       <r>   -1.1102    0.0000 </r>
       <r>   -1.0900    0.0000 </r>
       <r>   -1.0691    0.0000 </r>
       <r>   -1.0378    0.0000 </r>
       <r>   -0.9870    0.0000 </r>
       <r>   -0.7632    0.0000 </r>
       <r>   -0.5703    0.0000 </r>
       <r>   -0.4160    0.0000 </r>
       <r>   -0.2767    0.0000 </r>
       <r>   -0.0883    0.0000 </r>
       <r>    0.0480    0.0000 </r>
       <r>    0.4222    0.0000 </r>
       <r>    0.5342    0.0000 </r>
       <r>    0.6492    0.0000 </r>
       <r>    0.8160    0.0000 </r>
       <r>    0.9958    0.0000 </r>
       <r>    1.1644    0.0000 </r>
       <r>    1.2929    0.0000 </r>
       <r>    1.3102    0.0000 </r>
       <r>    1.3637    0.0000 </r>
       <r>    1.3753    0.0000 </r>
       <r>    1.3775    0.0000 </r>
       <r>    1.3871    0.0000 </r>
       <r>    1.4076    0.0000 </r>
       <r>    1.4076    0.0000 </r>
       <r>    1.4625    0.0000 </r>
       <r>    1.5306    0.0000 </r>
       <r>    1.5834    0.0000 </r>
       <r>    1.7204    0.0000 </r>
       <r>    1.8125    0.0000 </r>
       <r>    2.2432    0.0000 </r>
       <r>    2.2890    0.0000 </r>
       <r>    2.3026    0.0000 </r>
       <r>    2.3311    0.0000 </r>
       <r>    2.3314    0.0000 </r>
       <r>    2.4131    0.0000 </r>
       <r>    2.4573    0.0000 </r>
       <r>    2.5216    0.0000 </r>
       <r>    2.7473    0.0000 </r>
       <r>    2.7593    0.0000 </r>
       <r>    2.7903    0.0000 </r>
       <r>    2.7912    0.0000 </r>
       <r>    2.8055    0.0000 </r>
       <r>    2.8243    0.0000 </r>
       <r>    2.8413    0.0000 </r>
       <r>    2.8533    0.0000 </r>
       <r>    2.8758    0.0000 </r>
       <r>    2.8761    0.0000 </r>
       <r>    2.9298    0.0000 </r>
       <r>    2.9603    0.0000 </r>
       <r>    2.9629    0.0000 </r>
       <r>    3.1344    0.0000 </r>
       <r>    3.2883    0.0000 </r>
       <r>    3.2920    0.0000 </r>
       <r>    3.4155    0.0000 </r>
       <r>    3.4500    0.0000 </r>
       <r>    3.4613    0.0000 </r>
       <r>    3.4920    0.0000 </r>
       <r>    3.5259    0.0000 </r>
       <r>    3.5771    0.0000 </r>
       <r>    3.6750    0.0000 </r>
       <r>    3.6805    0.0000 </r>
       <r>    3.6808    0.0000 </r>
       <r>    3.6955    0.0000 </r>
       <r>    3.6958    0.0000 </r>
       <r>    3.7474    0.0000 </r>
       <r>    3.8180    0.0000 </r>
       <r>    4.0737    0.0000 </r>
       <r>    4.0796    0.0000 </r>
       <r>    4.0953    0.0000 </r>
       <r>    4.1980    0.0000 </r>
       <r>    4.2309    0.0000 </r>
       <r>    4.2379    0.0000 </r>
       <r>    4.2501    0.0000 </r>
       <r>    4.2943    0.0000 </r>
       <r>    4.3736    0.0000 </r>
       <r>    4.4601    0.0000 </r>
      </set>
      <set comment="kpoint 2">
       <r>  -22.7410    1.0000 </r>
       <r>  -22.4085    1.0000 </r>
       <r>  -22.3497    1.0000 </r>
       <r>  -22.1017    1.0000 </r>
       <r>  -21.8007    1.0000 </r>
       <r>  -21.6607    1.0000 </r>
       <r>  -21.6408    1.0000 </r>
       <r>  -21.2675    1.0000 </r>
       <r>  -21.2461    1.0000 </r>
       <r>  -21.0903    1.0000 </r>
       <r>  -20.8788    1.0000 </r>
       <r>  -20.8645    1.0000 </r>
       <r>  -20.4909    1.0000 </r>
       <r>  -20.4718    1.0000 </r>
       <r>  -20.2601    1.0000 </r>
       <r>  -20.2288    1.0000 </r>
       <r>  -19.8331    1.0000 </r>
       <r>  -19.7189    1.0000 </r>
       <r>  -19.6404    1.0000 </r>
       <r>  -19.6139    1.0000 </r>
       <r>  -19.4611    1.0000 </r>
       <r>  -19.2164    1.0000 </r>
       <r>  -19.1828    1.0000 </r>
       <r>  -18.9251    1.0000 </r>
       <r>  -18.8954    1.0000 </r>
       <r>  -18.6604    1.0000 </r>
       <r>  -18.5708    1.0000 </r>
       <r>  -18.4120    1.0000 </r>
       <r>  -18.1572    1.0000 </r>
       <r>  -17.9923    1.0000 </r>
       <r>  -17.8747    1.0000 </r>
       <r>  -17.6567    1.0000 </r>
       <r>  -17.6258    1.0000 </r>
       <r>  -17.6216    1.0000 </r>
       <r>  -17.5403    1.0000 </r>
       <r>  -17.5318    1.0000 </r>
       <r>  -17.2594    1.0000 </r>
       <r>  -17.1697    1.0000 </r>
       <r>  -17.0348    1.0000 </r>
       <r>  -16.8331    1.0000 </r>
       <r>  -16.8205    1.0000 </r>
       <r>  -16.5713    1.0000 </r>
       <r>  -16.5702    1.0000 </r>
       <r>  -16.1043    1.0000 </r>
       <r>  -15.9120    1.0000 </r>
       <r>  -15.6907    1.0000 </r>
       <r>  -15.4389    1.0000 </r>
       <r>  -15.3778    1.0000 </r>
       <r>  -15.2506    1.0000 </r>
       <r>  -15.1886    1.0000 </r>
       <r>  -15.0861    1.0000 </r>
       <r>  -15.0376    1.0000 </r>
       <r>  -14.8247    1.0000 </r>
       <r>  -14.7222    1.0000 </r>
       <r>  -14.5823    1.0000 </r>
       <r>  -14.5634    1.0000 </r>
       <r>  -14.3840    1.0000 </r>
       <r>  -14.2099    1.0000 </r>
       <r>  -14.0015    1.0000 </r>
       <r>  -13.9025    1.0000 </r>
       <r>  -13.7137    1.0000 </r>
       <r>  -13.6964    1.0000 </r>
       <r>  -13.5861    1.0000 </r>
       <r>  -13.4962    1.0000 </r>
       <r>  -13.3102    1.0000 </r>
       <r>  -13.0861    1.0000 </r>
       <r>  -12.9457    1.0000 </r>
       <r>  -12.7677    1.0000 </r>
       <r>  -12.7459    1.0000 </r>
       <r>  -12.5390    1.0000 </r>
       <r>  -12.3211    1.0000 </r>
       <r>  -12.1401    1.0000 </r>
       <r>  -12.0703    1.0000 </r>
       <r>  -11.9295    1.0000 </r>
       <r>  -11.7889    1.0000 </r>
       <r>  -11.7149    1.0000 </r>
       <r>  -11.6296    1.0000 </r>
       <r>  -11.6046    1.0000 </r>
       <r>  -11.4466    1.0000 </r>
       <r>  -11.3882    1.0000 </r>
       <r>  -11.3477    1.0000 </r>
       <r>  -11.2564    1.0000 </r>
       <r>  -11.1200    1.0000 </r>
       <r>  -10.9803    1.0000 </r>
       <r>  -10.9024    1.0000 </r>
       <r>  -10.7552    1.0000 </r>
       <r>  -10.7453    1.0000 </r>
       <r>  -10.4006    1.0000 </r>
       <r>  -10.3927    1.0000 </r>
       <r>  -10.2709    1.0000 </r>
       <r>  -10.2687    1.0000 </r>
       <r>  -10.1592    1.0000 </r>
       <r>  -10.1220    1.0000 </r>
       <r>  -10.0700    1.0000 </r>
       <r>  -10.0547    1.0000 </r>
       <r>   -9.9267    1.0000 </r>
       <r>   -9.9030    1.0000 </r>
       <r>   -9.8308    1.0000 </r>
       <r>   -9.6739    1.0000 </r>
       <r>   -9.6088    1.0000 </r>
       <r>   -9.5920    1.0000 </r>
       <r>   -9.5519    1.0000 </r>
       <r>   -9.4411    1.0000 </r>
       <r>   -9.4044    1.0000 </r>
       <r>   -9.3069    1.0000 </r>
       <r>   -9.2762    1.0000 </r>
       <r>   -9.2469    1.0000 </r>
       <r>   -9.2340    1.0000 </r>
       <r>   -9.1933    1.0000 </r>
       <r>   -9.1730    1.0000 </r>
       <r>   -9.1640    1.0000 </r>
       <r>   -9.1134    1.0000 </r>
       <r>   -9.0167    1.0000 </r>
       <r>   -9.0038    1.0000 </r>
       <r>   -8.9556    1.0000 </r>
       <r>   -8.9535    1.0000 </r>
       <r>   -8.9025    1.0000 </r>
       <r>   -8.7790    1.0000 </r>
       <r>   -8.7783    1.0000 </r>
       <r>   -8.7290    1.0000 </r>
       <r>   -8.7124    1.0000 </r>
       <r>   -8.6671    1.0000 </r>
       <r>   -8.5723    1.0000 </r>
       <r>   -8.4611    1.0000 </r>
       <r>   -8.4284    1.0000 </r>
       <r>   -8.3909    1.0000 </r>
       <r>   -8.3377    1.0000 </r>
       <r>   -8.2998    1.0000 </r>
       <r>   -8.2973    1.0000 </r>
       <r>   -8.2501    1.0000 </r>
       <r>   -8.0056    1.0000 </r>
       <r>   -7.9838    1.0000 </r>
       <r>   -7.9287    1.0000 </r>
       <r>   -7.8702    1.0000 </r>
       <r>   -7.8550    1.0000 </r>
       <r>   -7.8346    1.0000 </r>
       <r>   -7.6003    1.0000 </r>
       <r>   -7.5263    1.0000 </r>
       <r>   -7.4154    1.0000 </r>
       <r>   -7.3911    1.0000 </r>
       <r>   -7.3263    1.0000 </r>
       <r>   -7.3180    1.0000 </r>
       <r>   -7.2839    1.0000 </r>
       <r>   -7.2558    1.0000 </r>
       <r>   -7.2435    1.0000 </r>
       <r>   -7.1209    1.0000 </r>
       <r>   -7.1140    1.0000 </r>
       <r>   -7.0910    1.0000 </r>
       <r>   -7.0447    1.0000 </r>
       <r>   -6.8055    1.0000 </r>
       <r>   -6.7112    1.0000 </r>
       <r>   -6.6367    1.0000 </r>
       <r>   -6.4598    1.0000 </r>
       <r>   -6.4247    1.0000 </r>
       <r>   -6.4075    1.0000 </r>
       <r>   -6.3310    1.0000 </r>
       <r>   -6.3229    1.0000 </r>
       <r>   -6.2643    1.0000 </r>
       <r>   -6.1468    1.0000 </r>
       <r>   -6.0314    1.0000 </r>
       <r>   -5.9867    1.0000 </r>
       <r>   -5.9660    1.0000 </r>
       <r>   -5.6613    1.0000 </r>
       <r>   -5.4510    1.0000 </r>
       <r>   -5.3474    1.0000 </r>
       <r>   -5.2206    1.0000 </r>
       <r>   -5.2070    1.0000 </r>
       <r>   -5.2017    1.0000 </r>
       <r>   -5.1881    1.0000 </r>
       <r>   -5.1131    1.0000 </r>
       <r>   -5.0724    1.0000 </r>
       <r>   -5.0042    1.0000 </r>
       <r>   -4.9663    1.0000 </r>
       <r>   -4.9078    1.0000 </r>
       <r>   -4.5992    1.0000 </r>
       <r>   -4.5284    1.0000 </r>
       <r>   -4.4785    1.0000 </r>
       <r>   -4.3463    1.0000 </r>
       <r>   -4.2731    1.0000 </r>
       <r>   -4.2344    1.0000 </r>
       <r>   -4.1736    1.0000 </r>
       <r>   -3.8841    1.0000 </r>
       <r>   -3.5370    1.0000 </r>
       <r>   -3.3059    1.0000 </r>
       <r>   -2.0797    0.0000 </r>
       <r>   -2.0288    0.0000 </r>
       <r>   -1.8051    0.0000 </r>
       <r>   -1.1677    0.0000 </r>
       <r>   -1.0871    0.0000 </r>
       <r>   -0.9982    0.0000 </r>
       <r>   -0.9280    0.0000 </r>
       <r>   -0.8463    0.0000 </r>
       <r>   -0.7180    0.0000 </r>
       <r>   -0.6475    0.0000 </r>
       <r>   -0.3841    0.0000 </r>
       <r>   -0.2787    0.0000 </r>
       <r>   -0.1952    0.0000 </r>
       <r>   -0.0758    0.0000 </r>
       <r>    0.0096    0.0000 </r>
       <r>    0.0757    0.0000 </r>
       <r>    0.1426    0.0000 </r>
       <r>    0.5458    0.0000 </r>
       <r>    0.6086    0.0000 </r>
       <r>    0.8604    0.0000 </r>
       <r>    0.9147    0.0000 </r>
       <r>    0.9982    0.0000 </r>
       <r>    1.0366    0.0000 </r>
[...]
       <r>   -13.6293    11.9096    61.7520 </r>
       <r>   -13.5295    10.3492    62.7843 </r>
       <r>   -13.4298     5.6866    63.3514 </r>
       <r>   -13.3300     5.5286    63.9029 </r>
       <r>   -13.2303     5.9287    64.4942 </r>
       <r>   -13.1306     0.3990    64.5340 </r>
       <r>   -13.0308     6.2542    65.1578 </r>
       <r>   -12.9311     6.9949    65.8555 </r>
       <r>   -12.8313     5.2033    66.3744 </r>
       <r>   -12.7316    13.4999    67.7209 </r>
       <r>   -12.6319    11.9615    68.9140 </r>
       <r>   -12.5321    12.0769    70.1185 </r>
       <r>   -12.4324    10.2912    71.1450 </r>
       <r>   -12.3326     6.7296    71.8162 </r>
       <r>   -12.2329     1.9489    72.0106 </r>
       <r>   -12.1332     8.4585    72.8542 </r>
       <r>   -12.0334     6.1489    73.4675 </r>
       <r>   -11.9337     3.4249    73.8091 </r>
       <r>   -11.8339     5.7395    74.3816 </r>
       <r>   -11.7342    11.8860    75.5671 </r>
       <r>   -11.6344    10.6436    76.6287 </r>
       <r>   -11.5347    11.2841    77.7542 </r>
       <r>   -11.4350    11.9840    78.9495 </r>
       <r>   -11.3352    14.8639    80.4320 </r>
       <r>   -11.2355     7.7372    81.2037 </r>
       <r>   -11.1357    10.0629    82.2074 </r>
       <r>   -11.0360     9.1584    83.1209 </r>
       <r>   -10.9363     7.6057    83.8795 </r>
       <r>   -10.8365     8.4182    84.7191 </r>
       <r>   -10.7368     9.8394    85.7005 </r>
       <r>   -10.6370     3.1837    86.0180 </r>
       <r>   -10.5373     2.3578    86.2532 </r>
       <r>   -10.4376     9.1514    87.1660 </r>
       <r>   -10.3378    13.0809    88.4707 </r>
       <r>   -10.2381    17.7028    90.2364 </r>
       <r>   -10.1383    14.8622    91.7187 </r>
       <r>   -10.0386    21.6909    93.8822 </r>
       <r>    -9.9389    10.4858    94.9280 </r>
       <r>    -9.8391    18.7077    96.7940 </r>
       <r>    -9.7394    16.9521    98.4848 </r>
       <r>    -9.6396    16.7743   100.1579 </r>
       <r>    -9.5399    25.2105   102.6724 </r>
       <r>    -9.4402    15.4588   104.2142 </r>
       <r>    -9.3404    19.6833   106.1775 </r>
       <r>    -9.2407    14.7839   107.6520 </r>
       <r>    -9.1409    25.4321   110.1886 </r>
       <r>    -9.0412    23.7095   112.5534 </r>
       <r>    -8.9415    27.2936   115.2757 </r>
       <r>    -8.8417    16.4209   116.9135 </r>
       <r>    -8.7420    19.3315   118.8417 </r>
       <r>    -8.6422    19.3446   120.7711 </r>
       <r>    -8.5425     9.5738   121.7260 </r>
       <r>    -8.4428    21.7376   123.8941 </r>
       <r>    -8.3430    22.9469   126.1829 </r>
       <r>    -8.2433    22.9265   128.4696 </r>
       <r>    -8.1435    14.2976   129.8956 </r>
       <r>    -8.0438    16.1828   131.5097 </r>
       <r>    -7.9440    13.0833   132.8147 </r>
       <r>    -7.8443    15.7077   134.3813 </r>
       <r>    -7.7446    11.1979   135.4982 </r>
       <r>    -7.6448     7.5558   136.2519 </r>
       <r>    -7.5451    16.4813   137.8957 </r>
       <r>    -7.4453    17.8743   139.6785 </r>
       <r>    -7.3456    18.0771   141.4815 </r>
       <r>    -7.2459    20.0415   143.4805 </r>
       <r>    -7.1461    17.7087   145.2467 </r>
       <r>    -7.0464    18.3794   147.0799 </r>
       <r>    -6.9466     7.0666   147.7847 </r>
       <r>    -6.8469     9.7172   148.7539 </r>
       <r>    -6.7472    12.8680   150.0374 </r>
       <r>    -6.6474    12.9106   151.3251 </r>
       <r>    -6.5477     7.4767   152.0708 </r>
       <r>    -6.4479     7.7613   152.8450 </r>
       <r>    -6.3482    30.1256   155.8497 </r>
       <r>    -6.2485    17.1033   157.5556 </r>
       <r>    -6.1487    10.3457   158.5875 </r>
       <r>    -6.0490     7.5792   159.3434 </r>
       <r>    -5.9492    17.9505   161.1338 </r>
       <r>    -5.8495    12.0207   162.3328 </r>
       <r>    -5.7498     3.6885   162.7007 </r>
       <r>    -5.6500     7.6298   163.4617 </r>
       <r>    -5.5503     3.5743   163.8182 </r>
       <r>    -5.4505     6.0742   164.4240 </r>
       <r>    -5.3508     4.5823   164.8811 </r>
       <r>    -5.2511     9.6711   165.8457 </r>
       <r>    -5.1513    24.9798   168.3372 </r>
       <r>    -5.0516    20.3372   170.3656 </r>
       <r>    -4.9518    15.8038   171.9419 </r>
       <r>    -4.8521    11.5155   173.0904 </r>
       <r>    -4.7523     1.5932   173.2494 </r>
       <r>    -4.6526     0.5451   173.3037 </r>
       <r>    -4.5529    13.2654   174.6268 </r>
       <r>    -4.4531    16.5411   176.2766 </r>
       <r>    -4.3534     8.9799   177.1723 </r>
       <r>    -4.2536    18.0647   178.9741 </r>
       <r>    -4.1539    17.9152   180.7610 </r>
       <r>    -4.0542     7.4262   181.5016 </r>
       <r>    -3.9544     5.0076   182.0011 </r>
       <r>    -3.8547     1.9870   182.1993 </r>
       <r>    -3.7549     0.5095   182.2501 </r>
       <r>    -3.6552     0.8377   182.3337 </r>
       <r>    -3.5555     2.9713   182.6300 </r>
       <r>    -3.4557     5.9223   183.2207 </r>
       <r>    -3.3560     0.4897   183.2696 </r>
       <r>    -3.2562     2.1095   183.4800 </r>
       <r>    -3.1565     0.2009   183.5000 </r>
       <r>    -3.0568     0.3609   183.5360 </r>
       <r>    -2.9570     4.2164   183.9565 </r>
       <r>    -2.8573     0.4356   184.0000 </r>
       <r>    -2.7575     0.0001   184.0000 </r>
       <r>    -2.6578     0.0001   184.0000 </r>
       <r>    -2.5581     0.3953   184.0394 </r>
       <r>    -2.4583     4.2190   184.4602 </r>
       <r>    -2.3586     0.3986   184.5000 </r>
       <r>    -2.2588     0.0001   184.5000 </r>
       <r>    -2.1591     0.1075   184.5107 </r>
       <r>    -2.0594     4.2507   184.9347 </r>
       <r>    -1.9596     3.1522   185.2491 </r>
       <r>    -1.8599     3.6831   185.6164 </r>
       <r>    -1.7601     3.5890   185.9744 </r>
       <r>    -1.6604     0.2636   186.0007 </r>
       <r>    -1.5607     2.8864   186.2886 </r>
       <r>    -1.4609     6.5106   186.9380 </r>
       <r>    -1.3612     4.5591   187.3927 </r>
       <r>    -1.2614     1.1322   187.5056 </r>
       <r>    -1.1617     3.6137   187.8661 </r>
       <r>    -1.0619    13.3310   189.1957 </r>
       <r>    -0.9622    14.7287   190.6648 </r>
       <r>    -0.8625     6.3880   191.3019 </r>
       <r>    -0.7627    11.1102   192.4100 </r>
       <r>    -0.6630     8.6551   193.2733 </r>
       <r>    -0.5632     5.9838   193.8701 </r>
       <r>    -0.4635     4.4839   194.3173 </r>
       <r>    -0.3638     8.2139   195.1366 </r>
       <r>    -0.2640     8.2699   195.9615 </r>
       <r>    -0.1643    11.2067   197.0792 </r>
       <r>    -0.0645     9.5564   198.0324 </r>
       <r>     0.0352    11.2639   199.1558 </r>
       <r>     0.1349     6.8589   199.8400 </r>
       <r>     0.2347     1.5953   199.9991 </r>
       <r>     0.3344     1.5675   200.1554 </r>
       <r>     0.4342     6.1561   200.7694 </r>
       <r>     0.5339     8.7591   201.6431 </r>
       <r>     0.6336     8.7636   202.5172 </r>
       <r>     0.7334     2.9066   202.8071 </r>
       <r>     0.8331     6.4983   203.4552 </r>
       <r>     0.9329     7.8762   204.2408 </r>
       <r>     1.0326    11.0094   205.3389 </r>
       <r>     1.1323     4.6131   205.7990 </r>
       <r>     1.2321     7.8640   206.5833 </r>
       <r>     1.3318    16.9324   208.2722 </r>
       <r>     1.4316    20.4549   210.3124 </r>
       <r>     1.5313    11.9555   211.5048 </r>
       <r>     1.6310     6.7838   212.1815 </r>
       <r>     1.7308     5.2228   212.7024 </r>
       <r>     1.8305    10.0973   213.7095 </r>
       <r>     1.9303    13.6755   215.0735 </r>
       <r>     2.0300    28.7755   217.9436 </r>
       <r>     2.1297    15.3547   219.4750 </r>
       <r>     2.2295     7.9488   220.2679 </r>
       <r>     2.3292    19.4596   222.2088 </r>
       <r>     2.4290    24.9555   224.6978 </r>
       <r>     2.5287    14.3111   226.1252 </r>
       <r>     2.6285     7.9824   226.9214 </r>
       <r>     2.7282    12.3402   228.1522 </r>
       <r>     2.8279    28.7728   231.0220 </r>
       <r>     2.9277    53.8026   236.3883 </r>
       <r>     3.0274    26.9476   239.0761 </r>
       <r>     3.1272     9.7509   240.0487 </r>
       <r>     3.2269    12.9610   241.3414 </r>
       <r>     3.3266    13.0640   242.6444 </r>
       <r>     3.4264    26.6412   245.3016 </r>
       <r>     3.5261    21.4051   247.4366 </r>
       <r>     3.6259     7.8366   248.2182 </r>
       <r>     3.7256    18.2753   250.0410 </r>
       <r>     3.8253    25.0445   252.5389 </r>
       <r>     3.9251    32.6726   255.7977 </r>
       <r>     4.0248    15.8614   257.3798 </r>
       <r>     4.1246    15.2534   258.9011 </r>
       <r>     4.2243    18.2902   260.7254 </r>
       <r>     4.3240    27.5168   263.4700 </r>
       <r>     4.4238    14.2232   264.8886 </r>
       <r>     4.5235     1.1164   264.9999 </r>
       <r>     4.6233     0.0007   265.0000 </r>
       <r>     4.7230     0.0000   265.0000 </r>
       <r>     4.8227     0.0000   265.0000 </r>
       <r>     4.9225     0.0000   265.0000 </r>
       <r>     5.0222     0.0000   265.0000 </r>
       <r>     5.1220     0.0000   265.0000 </r>
       <r>     5.2217     0.0000   265.0000 </r>
       <r>     5.3214     0.0000   265.0000 </r>
       <r>     5.4212     0.0000   265.0000 </r>
       <r>     5.5209     0.0000   265.0000 </r>
       <r>     5.6207     0.0000   265.0000 </r>
       <r>     5.7204     0.0000   265.0000 </r>
       <r>     5.8201     0.0000   265.0000 </r>
      </set>
     </set>
    </array>
   </total>
  </dos>
 </calculation>
 <structure name="finalpos" >
  <crystal>
   <varray name="basis" >
    <v>      17.27103806       0.00000000       0.00000000 </v>
    <v>      -8.63551903      14.95715771       0.00000000 </v>
    <v>       0.00000000       0.00000000      15.00000000 </v>
   </varray>
   <i name="volume">   3874.88459904 </i>
   <varray name="rec_basis" >
    <v>       0.05790040       0.03342881       0.00000000 </v>
    <v>       0.00000000       0.06685762       0.00000000 </v>
    <v>       0.00000000       0.00000000       0.06666667 </v>
   </varray>
  </crystal>
  <varray name="positions" >
   <v>       0.00138300       0.00062601       0.50009255 </v>
   <v>       0.00086206       0.14308170       0.49997771 </v>
   <v>       0.00052461       0.28592601       0.49988398 </v>
   <v>       0.00086695       0.42911830       0.49997553 </v>
   <v>       0.00135902       0.57208211       0.50006747 </v>
   <v>       0.00173813       0.71493802       0.50010254 </v>
   <v>       0.00178341       0.85820310       0.50009348 </v>
   <v>       0.14517356       0.00179263       0.50001693 </v>
   <v>       0.14472657       0.14447159       0.49994569 </v>
   <v>       0.14285976       0.28591708       0.49982555 </v>
   <v>       0.14281885       0.42828787       0.49988827 </v>
   <v>       0.14471318       0.57157033       0.50000187 </v>
   <v>       0.14514090       0.71469854       0.50004972 </v>
   <v>       0.14507334       0.85820943       0.50002359 </v>
   <v>       0.28804542       0.00182701       0.49996526 </v>
   <v>       0.28835161       0.14650726       0.49995488 </v>
   <v>       0.28763983       0.29261305       0.49993275 </v>
   <v>       0.28537975       0.42835491       0.49991375 </v>
   <v>       0.28762515       0.56635491       0.49997840 </v>
   <v>       0.28833244       0.71323225       0.50002803 </v>
   <v>       0.28804300       0.85761943       0.50000622 </v>
   <v>       0.43057248       0.00098023       0.49997450 </v>
   <v>       0.43123488       0.14560033       0.49992084 </v>
   <v>       0.43050351       0.28717497       0.49999132 </v>
   <v>       0.43044251       0.71467446       0.50010845 </v>
   <v>       0.43124978       0.85704795       0.50005623 </v>
   <v>       0.57289481       0.00055721       0.50002444 </v>
   <v>       0.57289311       0.14371269       0.49995129 </v>
   <v>       0.57659066       0.29021285       0.49995167 </v>
   <v>       0.57659125       0.85772188       0.50013421 </v>
   <v>       0.71579218       0.00095845       0.50010479 </v>
   <v>       0.71564003       0.14348571       0.49999538 </v>
   <v>       0.71582697       0.28618745       0.49994912 </v>
   <v>       0.71182825       0.42568128       0.50000793 </v>
   <v>       0.71610270       0.57242119       0.50012216 </v>
   <v>       0.71612892       0.71506212       0.50025956 </v>
   <v>       0.71185686       0.85751855       0.50020563 </v>
   <v>       0.85816503       0.00023791       0.50018922 </v>
   <v>       0.85816327       0.14329992       0.50002838 </v>
   <v>       0.85817877       0.28618320       0.49996478 </v>
   <v>       0.85816237       0.42926257       0.50001171 </v>
   <v>       0.85737019       0.57150179       0.50011229 </v>
   <v>       0.85880683       0.71508611       0.50013720 </v>
   <v>       0.85741108       0.85725101       0.50018546 </v>
   <v>       0.04918290       0.09607419       0.50000505 </v>
   <v>       0.04772923       0.23809136       0.49986403 </v>
   <v>       0.04772634       0.38097477       0.49989484 </v>
   <v>       0.04916282       0.52443259       0.50001298 </v>
   <v>       0.04952286       0.66741981       0.50007454 </v>
   <v>       0.04942647       0.81038452       0.50007147 </v>
   <v>       0.04957058       0.95348899       0.50007615 </v>
   <v>       0.19279937       0.09723028       0.49997997 </v>
   <v>       0.19171019       0.23997933       0.49987981 </v>
   <v>       0.18973166       0.38055519       0.49985762 </v>
   <v>       0.19170535       0.52306184       0.49995858 </v>
   <v>       0.19276408       0.66688666       0.50002523 </v>
   <v>       0.19276483       0.81032181       0.50002714 </v>
   <v>       0.19278358       0.95380209       0.49999813 </v>
   <v>       0.33586239       0.09823573       0.49993584 </v>
   <v>       0.33691187       0.24305888       0.49996947 </v>
   <v>       0.33686870       0.66520447       0.50002836 </v>
   <v>       0.33584429       0.80903152       0.50003516 </v>
   <v>       0.33518671       0.95330536       0.49997949 </v>
   <v>       0.47790478       0.09648658       0.49993001 </v>
   <v>       0.47873251       0.24155471       0.49995260 </v>
   <v>       0.47871155       0.80853828       0.50010678 </v>
   <v>       0.47791240       0.95283447       0.50001653 </v>
   <v>       0.62020716       0.09578687       0.49999306 </v>
   <v>       0.62105680       0.23928745       0.49993312 </v>
   <v>       0.62105411       0.95311751       0.50007614 </v>
   <v>       0.76329588       0.09618058       0.50004538 </v>
   <v>       0.76333452       0.23845322       0.49996888 </v>
   <v>       0.76267474       0.38102783       0.49998295 </v>
   <v>       0.76082777       0.52397519       0.50006561 </v>
   <v>       0.76294982       0.66715353       0.50018232 </v>
   <v>       0.76087179       0.80824014       0.50024084 </v>
   <v>       0.76269573       0.95300799       0.50018559 </v>
   <v>       0.90561096       0.09527195       0.50007913 </v>
   <v>       0.90548684       0.23837637       0.49995137 </v>
   <v>       0.90561513       0.38166004       0.49998934 </v>
   <v>       0.90581489       0.52461801       0.50007410 </v>
   <v>       0.90586144       0.66702527       0.50013657 </v>
   <v>       0.90590237       0.81022853       0.50014123 </v>
   <v>       0.90585322       0.95258241       0.50018305 </v>
   <v>       0.46876394       0.35985997       0.50004318 </v>
   <v>       0.64320278       0.67721711       0.50027269 </v>
   <v>       0.64317084       0.53736332       0.50011818 </v>
   <v>       0.46867106       0.68021068       0.50015844 </v>
   <v>       0.46381233       0.55997491       0.50000295 </v>
   <v>       0.46302994       0.47438972       0.49999419 </v>
   <v>       0.33165767       0.38293198       0.49994107 </v>
   <v>       0.33167254       0.52007494       0.49996143 </v>
   <v>       0.62183620       0.38054411       0.49999140 </v>
   <v>       0.62185041       0.81264669       0.50018546 </v>
   <v>       0.50712026       0.53874614       0.50000005 </v>
  </varray>
  <varray name="selective"  type="logical" >
   <v type="logical" >  T  T  T </v>
   <v type="logical" >  T  T  T </v>
   <v type="logical" >  T  T  T </v>
   <v type="logical" >  T  T  T </v>
   <v type="logical" >  T  T  T </v>
   <v type="logical" >  T  T  T </v>
   <v type="logical" >  T  T  T </v>
   <v type="logical" >  T  T  T </v>
   <v type="logical" >  T  T  T </v>
   <v type="logical" >  T  T  T </v>
   <v type="logical" >  T  T  T </v>
   <v type="logical" >  T  T  T </v>
   <v type="logical" >  T  T  T </v>
   <v type="logical" >  T  T  T </v>
   <v type="logical" >  T  T  T </v>
   <v type="logical" >  T  T  T </v>
   <v type="logical" >  T  T  T </v>
   <v type="logical" >  T  T  T </v>
   <v type="logical" >  T  T  T </v>
   <v type="logical" >  T  T  T </v>
   <v type="logical" >  T  T  T </v>
   <v type="logical" >  T  T  T </v>
   <v type="logical" >  T  T  T </v>
   <v type="logical" >  T  T  T </v>
   <v type="logical" >  T  T  T </v>
   <v type="logical" >  T  T  T </v>
   <v type="logical" >  T  T  T </v>
   <v type="logical" >  T  T  T </v>
   <v type="logical" >  T  T  T </v>
   <v type="logical" >  T  T  T </v>
   <v type="logical" >  T  T  T </v>
   <v type="logical" >  T  T  T </v>
   <v type="logical" >  T  T  T </v>
   <v type="logical" >  T  T  T </v>
   <v type="logical" >  T  T  T </v>
   <v type="logical" >  T  T  T </v>
   <v type="logical" >  T  T  T </v>
   <v type="logical" >  T  T  T </v>
   <v type="logical" >  T  T  T </v>
   <v type="logical" >  T  T  T </v>
   <v type="logical" >  T  T  T </v>
   <v type="logical" >  T  T  T </v>
   <v type="logical" >  T  T  T </v>
   <v type="logical" >  T  T  T </v>
   <v type="logical" >  T  T  T </v>
   <v type="logical" >  T  T  T </v>
   <v type="logical" >  T  T  T </v>
   <v type="logical" >  T  T  T </v>
   <v type="logical" >  T  T  T </v>
   <v type="logical" >  T  T  T </v>
   <v type="logical" >  T  T  T </v>
   <v type="logical" >  T  T  T </v>
   <v type="logical" >  T  T  T </v>
   <v type="logical" >  T  T  T </v>
   <v type="logical" >  T  T  T </v>
   <v type="logical" >  T  T  T </v>
   <v type="logical" >  T  T  T </v>
   <v type="logical" >  T  T  T </v>
   <v type="logical" >  T  T  T </v>
   <v type="logical" >  T  T  T </v>
   <v type="logical" >  T  T  T </v>
   <v type="logical" >  T  T  T </v>
   <v type="logical" >  T  T  T </v>
   <v type="logical" >  T  T  T </v>
   <v type="logical" >  T  T  T </v>
   <v type="logical" >  T  T  T </v>
   <v type="logical" >  T  T  T </v>
   <v type="logical" >  T  T  T </v>
   <v type="logical" >  T  T  T </v>
   <v type="logical" >  T  T  T </v>
   <v type="logical" >  T  T  T </v>
   <v type="logical" >  T  T  T </v>
   <v type="logical" >  T  T  T </v>
   <v type="logical" >  T  T  T </v>
   <v type="logical" >  T  T  T </v>
   <v type="logical" >  T  T  T </v>
   <v type="logical" >  T  T  T </v>
   <v type="logical" >  T  T  T </v>
   <v type="logical" >  T  T  T </v>
   <v type="logical" >  T  T  T </v>
   <v type="logical" >  T  T  T </v>
   <v type="logical" >  T  T  T </v>
   <v type="logical" >  T  T  T </v>
   <v type="logical" >  T  T  T </v>
   <v type="logical" >  T  T  T </v>
   <v type="logical" >  T  T  T </v>
   <v type="logical" >  T  T  T </v>
   <v type="logical" >  T  T  T </v>
   <v type="logical" >  T  T  T </v>
   <v type="logical" >  T  T  T </v>
   <v type="logical" >  T  T  T </v>
   <v type="logical" >  T  T  T </v>
   <v type="logical" >  T  T  T </v>
   <v type="logical" >  T  T  T </v>
   <v type="logical" >  T  T  F </v>
  </varray>
  <nose>
   <v>      -3.00000000       0.00000000       0.00010000       0.00010000 </v>
  </nose>
 </structure>
</modeling>
