unknown system                          
           1
    17.271038    0.000000    0.000000
    -8.635519   14.957158    0.000000
     0.000000    0.000000   15.000000
   C    H    N    O 
    84     6     4     1
Direct configuration=     1
   0.00138300  0.00062601  0.50009255
   0.00086206  0.14308170  0.49997771
   0.00052461  0.28592601  0.49988398
   0.00086695  0.42911830  0.49997553
   0.00135902  0.57208211  0.50006747
   0.00173813  0.71493802  0.50010254
   0.00178341  0.85820310  0.50009348
   0.14517356  0.00179263  0.50001693
   0.14472657  0.14447159  0.49994569
   0.14285976  0.28591708  0.49982555
   0.14281885  0.42828787  0.49988827
   0.14471318  0.57157033  0.50000187
   0.14514090  0.71469854  0.50004972
   0.14507334  0.85820943  0.50002359
   0.28804542  0.00182701  0.49996526
   0.28835161  0.14650726  0.49995488
   0.28763983  0.29261305  0.49993275
   0.28537975  0.42835491  0.49991375
   0.28762515  0.56635491  0.49997840
   0.28833244  0.71323225  0.50002803
   0.28804300  0.85761943  0.50000622
   0.43057248  0.00098023  0.49997450
   0.43123488  0.14560033  0.49992084
   0.43050351  0.28717497  0.49999132
   0.43044251  0.71467446  0.50010845
   0.43124978  0.85704795  0.50005623
   0.57289481  0.00055721  0.50002444
   0.57289311  0.14371269  0.49995129
   0.57659066  0.29021285  0.49995167
   0.57659125  0.85772188  0.50013421
   0.71579218  0.00095845  0.50010479
   0.71564003  0.14348571  0.49999538
   0.71582697  0.28618745  0.49994912
   0.71182825  0.42568128  0.50000793
   0.71610270  0.57242119  0.50012216
   0.71612892  0.71506212  0.50025956
   0.71185686  0.85751855  0.50020563
   0.85816503  0.00023791  0.50018922
   0.85816327  0.14329992  0.50002838
   0.85817877  0.28618320  0.49996478
   0.85816237  0.42926257  0.50001171
   0.85737019  0.57150179  0.50011229
   0.85880683  0.71508611  0.50013720
   0.85741108  0.85725101  0.50018546
   0.04918290  0.09607419  0.50000505
   0.04772923  0.23809136  0.49986403
   0.04772634  0.38097477  0.49989484
   0.04916282  0.52443259  0.50001298
   0.04952286  0.66741981  0.50007454
   0.04942647  0.81038452  0.50007147
   0.04957058  0.95348899  0.50007615
   0.19279937  0.09723028  0.49997997
   0.19171019  0.23997933  0.49987981
   0.18973166  0.38055519  0.49985762
   0.19170535  0.52306184  0.49995858
   0.19276408  0.66688666  0.50002523
   0.19276483  0.81032181  0.50002714
   0.19278358  0.95380209  0.49999813
   0.33586239  0.09823573  0.49993584
   0.33691187  0.24305888  0.49996947
   0.33686870  0.66520447  0.50002836
   0.33584429  0.80903152  0.50003516
   0.33518671  0.95330536  0.49997949
   0.47790478  0.09648658  0.49993001
   0.47873251  0.24155471  0.49995260
   0.47871155  0.80853828  0.50010678
   0.47791240  0.95283447  0.50001653
   0.62020716  0.09578687  0.49999306
   0.62105680  0.23928745  0.49993312
   0.62105411  0.95311751  0.50007614
   0.76329588  0.09618058  0.50004538
   0.76333452  0.23845322  0.49996888
   0.76267474  0.38102783  0.49998295
   0.76082777  0.52397519  0.50006561
   0.76294982  0.66715353  0.50018232
   0.76087179  0.80824014  0.50024084
   0.76269573  0.95300799  0.50018559
   0.90561096  0.09527195  0.50007913
   0.90548684  0.23837637  0.49995137
   0.90561513  0.38166004  0.49998934
   0.90581489  0.52461801  0.50007410
   0.90586144  0.66702527  0.50013657
   0.90590237  0.81022853  0.50014123
   0.90585322  0.95258241  0.50018305
   0.46876394  0.35985997  0.50004318
   0.64320278  0.67721711  0.50027269
   0.64317084  0.53736332  0.50011818
   0.46867106  0.68021068  0.50015844
   0.46381233  0.55997491  0.50000295
   0.46302994  0.47438972  0.49999419
   0.33165767  0.38293198  0.49994107
   0.33167254  0.52007494  0.49996143
   0.62183620  0.38054411  0.49999140
   0.62185041  0.81264669  0.50018546
   0.50712026  0.53874614  0.50000005
