  95  95   0   0
  0.4078826E+02  0.1727104E-08  0.1727104E-08  0.1500000E-08  0.0000000E+00
  1.000000000000000E-004
  CAR 
 unknown system                          
      5.68729700    -23.96326153  301     -2.73608620      1.00000000
    -23.963  0.0000E+00  0.0000E+00  0.0000E+00  0.0000E+00
    -23.864  0.0000E+00  0.0000E+00  0.0000E+00  0.0000E+00
    -23.766  0.0000E+00  0.0000E+00  0.0000E+00  0.0000E+00
    -23.667  0.0000E+00  0.0000E+00  0.0000E+00  0.0000E+00
    -23.568  0.0000E+00  0.0000E+00  0.0000E+00  0.0000E+00
    -23.469  0.0000E+00  0.0000E+00  0.0000E+00  0.0000E+00
    -23.370  0.0000E+00  0.0000E+00  0.0000E+00  0.0000E+00
    -23.271  0.0000E+00  0.0000E+00  0.0000E+00  0.0000E+00
    -23.173  0.0000E+00  0.0000E+00  0.0000E+00  0.0000E+00
    -23.074  0.0000E+00  0.0000E+00  0.0000E+00  0.0000E+00
    -22.975  0.0000E+00  0.0000E+00  0.0000E+00  0.0000E+00
    -22.876  0.7874E-15  0.7874E-15  0.7783E-16  0.7783E-16
    -22.777  0.2276E-07  0.2276E-07  0.2250E-08  0.2250E-08
    -22.678  0.3704E-03  0.3704E-03  0.3661E-04  0.3661E-04
    -22.580  0.8152E-02  0.8152E-02  0.8423E-03  0.8423E-03
    -22.481  0.1693E-02  0.1693E-02  0.1010E-02  0.1010E-02
    -22.382  0.7581E-02  0.7581E-02  0.1759E-02  0.1759E-02
    -22.283  0.1928E-01  0.1928E-01  0.3664E-02  0.3664E-02
    -22.184  0.1144E-01  0.1144E-01  0.4795E-02  0.4795E-02
    -22.085  0.2075E-02  0.2075E-02  0.5000E-02  0.5000E-02
    -21.987  0.1658E-05  0.1658E-05  0.5000E-02  0.5000E-02
    -21.888  0.1415E-08  0.1415E-08  0.5000E-02  0.5000E-02
    -21.789  0.8790E-04  0.8790E-04  0.5009E-02  0.5009E-02
    -21.690  0.7405E-02  0.7405E-02  0.5741E-02  0.5741E-02
    -21.591  0.1078E-01  0.1078E-01  0.6806E-02  0.6806E-02
    -21.492  0.4572E-02  0.4572E-02  0.7258E-02  0.7258E-02
    -21.394  0.4591E-02  0.4591E-02  0.7712E-02  0.7712E-02
    -21.295  0.3981E-02  0.3981E-02  0.8105E-02  0.8105E-02
    -21.196  0.4558E-02  0.4558E-02  0.8556E-02  0.8556E-02
    -21.097  0.6078E-02  0.6078E-02  0.9156E-02  0.9156E-02
    -20.998  0.6453E-02  0.6453E-02  0.9794E-02  0.9794E-02
    -20.899  0.5719E-02  0.5719E-02  0.1036E-01  0.1036E-01
    -20.801  0.5843E-02  0.5843E-02  0.1094E-01  0.1094E-01
    -20.702  0.7940E-02  0.7940E-02  0.1172E-01  0.1172E-01
    -20.603  0.6102E-02  0.6102E-02  0.1232E-01  0.1232E-01
    -20.504  0.6922E-02  0.6922E-02  0.1301E-01  0.1301E-01
    -20.405  0.6544E-02  0.6544E-02  0.1366E-01  0.1366E-01
    -20.306  0.9387E-02  0.9387E-02  0.1458E-01  0.1458E-01
    -20.208  0.6320E-02  0.6320E-02  0.1521E-01  0.1521E-01
    -20.109  0.2919E-02  0.2919E-02  0.1550E-01  0.1550E-01
    -20.010  0.3381E-03  0.3381E-03  0.1553E-01  0.1553E-01
    -19.911  0.1141E-01  0.1141E-01  0.1666E-01  0.1666E-01
    -19.812  0.6115E-02  0.6115E-02  0.1726E-01  0.1726E-01
    -19.713  0.5324E-02  0.5324E-02  0.1779E-01  0.1779E-01
    -19.615  0.1159E-01  0.1159E-01  0.1893E-01  0.1893E-01
    -19.516  0.1006E-01  0.1006E-01  0.1993E-01  0.1993E-01
    -19.417  0.7434E-02  0.7434E-02  0.2066E-01  0.2066E-01
    -19.318  0.6556E-02  0.6556E-02  0.2131E-01  0.2131E-01
    -19.219  0.2205E-02  0.2205E-02  0.2153E-01  0.2153E-01
    -19.120  0.6716E-02  0.6716E-02  0.2219E-01  0.2219E-01
    -19.022  0.3598E-02  0.3598E-02  0.2255E-01  0.2255E-01
    -18.923  0.3535E-02  0.3535E-02  0.2290E-01  0.2290E-01
    -18.824  0.5239E-02  0.5239E-02  0.2342E-01  0.2342E-01
    -18.725  0.1583E-01  0.1583E-01  0.2498E-01  0.2498E-01
    -18.626  0.1548E-01  0.1548E-01  0.2651E-01  0.2651E-01
    -18.527  0.3219E-02  0.3219E-02  0.2683E-01  0.2683E-01
    -18.428  0.2873E-02  0.2873E-02  0.2711E-01  0.2711E-01
    -18.330  0.1137E-01  0.1137E-01  0.2824E-01  0.2824E-01
    -18.231  0.6600E-02  0.6600E-02  0.2889E-01  0.2889E-01
    -18.132  0.3510E-02  0.3510E-02  0.2923E-01  0.2923E-01
    -18.033  0.3550E-02  0.3550E-02  0.2959E-01  0.2959E-01
    -17.934  0.5273E-02  0.5273E-02  0.3011E-01  0.3011E-01
    -17.835  0.8226E-02  0.8226E-02  0.3092E-01  0.3092E-01
    -17.737  0.7724E-02  0.7724E-02  0.3168E-01  0.3168E-01
    -17.638  0.9798E-02  0.9798E-02  0.3265E-01  0.3265E-01
    -17.539  0.1427E-01  0.1427E-01  0.3406E-01  0.3406E-01
    -17.440  0.1133E-01  0.1133E-01  0.3518E-01  0.3518E-01
    -17.341  0.9614E-02  0.9614E-02  0.3613E-01  0.3613E-01
    -17.242  0.4855E-02  0.4855E-02  0.3661E-01  0.3661E-01
    -17.144  0.6480E-02  0.6480E-02  0.3725E-01  0.3725E-01
    -17.045  0.7675E-02  0.7675E-02  0.3801E-01  0.3801E-01
    -16.946  0.4322E-02  0.4322E-02  0.3844E-01  0.3844E-01
    -16.847  0.4010E-02  0.4010E-02  0.3883E-01  0.3883E-01
    -16.748  0.6850E-02  0.6850E-02  0.3951E-01  0.3951E-01
    -16.649  0.6079E-02  0.6079E-02  0.4011E-01  0.4011E-01
    -16.551  0.1949E-01  0.1949E-01  0.4204E-01  0.4204E-01
    -16.452  0.1297E-01  0.1297E-01  0.4332E-01  0.4332E-01
    -16.353  0.3838E-02  0.3838E-02  0.4370E-01  0.4370E-01
    -16.254  0.2818E-02  0.2818E-02  0.4398E-01  0.4398E-01
    -16.155  0.2124E-03  0.2124E-03  0.4400E-01  0.4400E-01
    -16.056  0.8758E-06  0.8758E-06  0.4400E-01  0.4400E-01
    -15.958  0.6882E-03  0.6882E-03  0.4407E-01  0.4407E-01
    -15.859  0.3421E-02  0.3421E-02  0.4441E-01  0.4441E-01
    -15.760  0.6397E-02  0.6397E-02  0.4504E-01  0.4504E-01
    -15.661  0.5665E-02  0.5665E-02  0.4560E-01  0.4560E-01
    -15.562  0.6332E-02  0.6332E-02  0.4622E-01  0.4622E-01
    -15.463  0.7258E-02  0.7258E-02  0.4694E-01  0.4694E-01
    -15.365  0.5271E-02  0.5271E-02  0.4746E-01  0.4746E-01
    -15.266  0.7976E-02  0.7976E-02  0.4825E-01  0.4825E-01
    -15.167  0.1626E-01  0.1626E-01  0.4986E-01  0.4986E-01
    -15.068  0.9803E-02  0.9803E-02  0.5083E-01  0.5083E-01
    -14.969  0.3831E-02  0.3831E-02  0.5121E-01  0.5121E-01
    -14.870  0.7427E-02  0.7427E-02  0.5194E-01  0.5194E-01
    -14.772  0.1088E-01  0.1088E-01  0.5301E-01  0.5301E-01
    -14.673  0.8469E-02  0.8469E-02  0.5385E-01  0.5385E-01
    -14.574  0.7033E-02  0.7033E-02  0.5455E-01  0.5455E-01
    -14.475  0.7929E-02  0.7929E-02  0.5533E-01  0.5533E-01
    -14.376  0.1369E-01  0.1369E-01  0.5668E-01  0.5668E-01
    -14.277  0.9711E-02  0.9711E-02  0.5764E-01  0.5764E-01
    -14.179  0.5807E-02  0.5807E-02  0.5822E-01  0.5822E-01
    -14.080  0.4986E-02  0.4986E-02  0.5871E-01  0.5871E-01
    -13.981  0.2770E-02  0.2770E-02  0.5898E-01  0.5898E-01
    -13.882  0.3765E-02  0.3765E-02  0.5936E-01  0.5936E-01
    -13.783  0.6355E-02  0.6355E-02  0.5998E-01  0.5998E-01
    -13.684  0.1113E-01  0.1113E-01  0.6108E-01  0.6108E-01
    -13.586  0.1163E-01  0.1163E-01  0.6223E-01  0.6223E-01
    -13.487  0.6779E-02  0.6779E-02  0.6290E-01  0.6290E-01
    -13.388  0.6806E-02  0.6806E-02  0.6358E-01  0.6358E-01
    -13.289  0.5036E-02  0.5036E-02  0.6407E-01  0.6407E-01
    -13.190  0.4235E-02  0.4235E-02  0.6449E-01  0.6449E-01
    -13.091  0.2049E-02  0.2049E-02  0.6470E-01  0.6470E-01
    -12.993  0.6053E-02  0.6053E-02  0.6529E-01  0.6529E-01
    -12.894  0.7253E-02  0.7253E-02  0.6601E-01  0.6601E-01
    -12.795  0.6967E-02  0.6967E-02  0.6670E-01  0.6670E-01
    -12.696  0.1004E-01  0.1004E-01  0.6769E-01  0.6769E-01
    -12.597  0.1684E-01  0.1684E-01  0.6936E-01  0.6936E-01
    -12.498  0.9720E-02  0.9720E-02  0.7032E-01  0.7032E-01
    -12.400  0.1104E-01  0.1104E-01  0.7141E-01  0.7141E-01
    -12.301  0.3723E-02  0.3723E-02  0.7177E-01  0.7177E-01
    -12.202  0.5822E-02  0.5822E-02  0.7235E-01  0.7235E-01
    -12.103  0.3656E-02  0.3656E-02  0.7271E-01  0.7271E-01
    -12.004  0.7631E-02  0.7631E-02  0.7347E-01  0.7347E-01
    -11.905  0.5720E-02  0.5720E-02  0.7403E-01  0.7403E-01
    -11.807  0.8182E-02  0.8182E-02  0.7484E-01  0.7484E-01
    -11.708  0.1014E-01  0.1014E-01  0.7584E-01  0.7584E-01
    -11.609  0.1024E-01  0.1024E-01  0.7685E-01  0.7685E-01
    -11.510  0.1097E-01  0.1097E-01  0.7794E-01  0.7794E-01
    -11.411  0.1471E-01  0.1471E-01  0.7939E-01  0.7939E-01
    -11.312  0.8552E-02  0.8552E-02  0.8024E-01  0.8024E-01
    -11.214  0.8978E-02  0.8978E-02  0.8112E-01  0.8112E-01
    -11.115  0.1095E-01  0.1095E-01  0.8221E-01  0.8221E-01
    -11.016  0.1128E-01  0.1128E-01  0.8332E-01  0.8332E-01
    -10.917  0.8149E-02  0.8149E-02  0.8413E-01  0.8413E-01
    -10.818  0.7557E-02  0.7557E-02  0.8487E-01  0.8487E-01
    -10.719  0.9038E-02  0.9038E-02  0.8577E-01  0.8577E-01
    -10.621  0.9194E-02  0.9194E-02  0.8668E-01  0.8668E-01
    -10.522  0.5005E-02  0.5005E-02  0.8717E-01  0.8717E-01
    -10.423  0.8809E-02  0.8809E-02  0.8804E-01  0.8804E-01
    -10.324  0.1324E-01  0.1324E-01  0.8935E-01  0.8935E-01
    -10.225  0.1519E-01  0.1519E-01  0.9085E-01  0.9085E-01
    -10.126  0.1583E-01  0.1583E-01  0.9242E-01  0.9242E-01
    -10.027  0.2005E-01  0.2005E-01  0.9440E-01  0.9440E-01
     -9.929  0.1663E-01  0.1663E-01  0.9604E-01  0.9604E-01
     -9.830  0.1511E-01  0.1511E-01  0.9753E-01  0.9753E-01
     -9.731  0.1336E-01  0.1336E-01  0.9885E-01  0.9885E-01
     -9.632  0.1995E-01  0.1995E-01  0.1008E+00  0.1008E+00
     -9.533  0.1812E-01  0.1812E-01  0.1026E+00  0.1026E+00
     -9.434  0.1730E-01  0.1730E-01  0.1043E+00  0.1043E+00
     -9.336  0.1490E-01  0.1490E-01  0.1058E+00  0.1058E+00
     -9.237  0.1668E-01  0.1668E-01  0.1074E+00  0.1074E+00
     -9.138  0.2400E-01  0.2400E-01  0.1098E+00  0.1098E+00
     -9.039  0.2825E-01  0.2825E-01  0.1126E+00  0.1126E+00
     -8.940  0.2444E-01  0.2444E-01  0.1150E+00  0.1150E+00
     -8.841  0.2257E-01  0.2257E-01  0.1173E+00  0.1173E+00
     -8.743  0.1676E-01  0.1676E-01  0.1189E+00  0.1189E+00
     -8.644  0.1492E-01  0.1492E-01  0.1204E+00  0.1204E+00
     -8.545  0.1676E-01  0.1676E-01  0.1220E+00  0.1220E+00
     -8.446  0.1578E-01  0.1578E-01  0.1236E+00  0.1236E+00
     -8.347  0.1927E-01  0.1927E-01  0.1255E+00  0.1255E+00
     -8.248  0.2567E-01  0.2567E-01  0.1280E+00  0.1280E+00
     -8.150  0.1801E-01  0.1801E-01  0.1298E+00  0.1298E+00
     -8.051  0.1430E-01  0.1430E-01  0.1312E+00  0.1312E+00
     -7.952  0.1686E-01  0.1686E-01  0.1329E+00  0.1329E+00
     -7.853  0.1696E-01  0.1696E-01  0.1346E+00  0.1346E+00
     -7.754  0.4888E-02  0.4888E-02  0.1351E+00  0.1351E+00
     -7.655  0.1214E-01  0.1214E-01  0.1363E+00  0.1363E+00
     -7.557  0.1151E-01  0.1151E-01  0.1374E+00  0.1374E+00
     -7.458  0.2237E-01  0.2237E-01  0.1396E+00  0.1396E+00
     -7.359  0.1912E-01  0.1912E-01  0.1415E+00  0.1415E+00
     -7.260  0.1854E-01  0.1854E-01  0.1433E+00  0.1433E+00
     -7.161  0.1349E-01  0.1349E-01  0.1447E+00  0.1447E+00
     -7.062  0.1325E-01  0.1325E-01  0.1460E+00  0.1460E+00
     -6.964  0.1485E-01  0.1485E-01  0.1474E+00  0.1474E+00
     -6.865  0.9852E-02  0.9852E-02  0.1484E+00  0.1484E+00
     -6.766  0.9462E-02  0.9462E-02  0.1494E+00  0.1494E+00
     -6.667  0.1448E-01  0.1448E-01  0.1508E+00  0.1508E+00
     -6.568  0.1282E-01  0.1282E-01  0.1521E+00  0.1521E+00
     -6.469  0.1365E-01  0.1365E-01  0.1534E+00  0.1534E+00
     -6.371  0.1805E-01  0.1805E-01  0.1552E+00  0.1552E+00
     -6.272  0.2259E-01  0.2259E-01  0.1574E+00  0.1574E+00
     -6.173  0.1449E-01  0.1449E-01  0.1589E+00  0.1589E+00
     -6.074  0.6222E-02  0.6222E-02  0.1595E+00  0.1595E+00
     -5.975  0.1232E-01  0.1232E-01  0.1607E+00  0.1607E+00
     -5.876  0.1289E-01  0.1289E-01  0.1620E+00  0.1620E+00
     -5.778  0.9323E-02  0.9323E-02  0.1629E+00  0.1629E+00
     -5.679  0.3903E-02  0.3903E-02  0.1633E+00  0.1633E+00
     -5.580  0.4716E-02  0.4716E-02  0.1637E+00  0.1637E+00
     -5.481  0.2058E-02  0.2058E-02  0.1639E+00  0.1639E+00
     -5.382  0.4798E-02  0.4798E-02  0.1644E+00  0.1644E+00
     -5.283  0.8042E-02  0.8042E-02  0.1652E+00  0.1652E+00
     -5.185  0.2174E-01  0.2174E-01  0.1674E+00  0.1674E+00
     -5.086  0.1342E-01  0.1342E-01  0.1687E+00  0.1687E+00
     -4.987  0.1949E-01  0.1949E-01  0.1706E+00  0.1706E+00
     -4.888  0.1289E-01  0.1289E-01  0.1719E+00  0.1719E+00
     -4.789  0.1098E-01  0.1098E-01  0.1730E+00  0.1730E+00
     -4.690  0.8144E-02  0.8144E-02  0.1738E+00  0.1738E+00
     -4.592  0.1255E-01  0.1255E-01  0.1750E+00  0.1750E+00
     -4.493  0.1420E-01  0.1420E-01  0.1764E+00  0.1764E+00
     -4.394  0.2178E-01  0.2178E-01  0.1786E+00  0.1786E+00
     -4.295  0.6710E-02  0.6710E-02  0.1792E+00  0.1792E+00
     -4.196  0.1149E-01  0.1149E-01  0.1804E+00  0.1804E+00
     -4.097  0.7734E-02  0.7734E-02  0.1811E+00  0.1811E+00
     -3.999  0.8296E-02  0.8296E-02  0.1820E+00  0.1820E+00
     -3.900  0.4952E-03  0.4952E-03  0.1820E+00  0.1820E+00
     -3.801  0.9071E-03  0.9071E-03  0.1821E+00  0.1821E+00
     -3.702  0.1651E-02  0.1651E-02  0.1823E+00  0.1823E+00
     -3.603  0.3983E-02  0.3983E-02  0.1826E+00  0.1826E+00
     -3.504  0.3659E-02  0.3659E-02  0.1830E+00  0.1830E+00
     -3.406  0.2122E-02  0.2122E-02  0.1832E+00  0.1832E+00
     -3.307  0.5531E-03  0.5531E-03  0.1833E+00  0.1833E+00
     -3.208  0.2117E-02  0.2117E-02  0.1835E+00  0.1835E+00
     -3.109  0.1836E-03  0.1836E-03  0.1835E+00  0.1835E+00
     -3.010  0.6683E-03  0.6683E-03  0.1836E+00  0.1836E+00
     -2.911  0.2534E-02  0.2534E-02  0.1838E+00  0.1838E+00
     -2.813  0.1822E-02  0.1822E-02  0.1840E+00  0.1840E+00
     -2.714  0.3386E-04  0.3386E-04  0.1840E+00  0.1840E+00
     -2.615  0.4464E-03  0.4464E-03  0.1840E+00  0.1840E+00
     -2.516  0.3532E-02  0.3532E-02  0.1844E+00  0.1844E+00
     -2.417  0.1078E-02  0.1078E-02  0.1845E+00  0.1845E+00
     -2.318  0.2778E-05  0.2778E-05  0.1845E+00  0.1845E+00
     -2.220  0.1832E-04  0.1832E-04  0.1845E+00  0.1845E+00
     -2.121  0.2701E-02  0.2701E-02  0.1848E+00  0.1848E+00
     -2.022  0.2354E-02  0.2354E-02  0.1850E+00  0.1850E+00
     -1.923  0.2644E-02  0.2644E-02  0.1853E+00  0.1853E+00
     -1.824  0.4030E-02  0.4030E-02  0.1857E+00  0.1857E+00
     -1.725  0.3112E-02  0.3112E-02  0.1860E+00  0.1860E+00
     -1.627  0.3383E-03  0.3383E-03  0.1860E+00  0.1860E+00
     -1.528  0.3655E-02  0.3655E-02  0.1864E+00  0.1864E+00
     -1.429  0.8718E-02  0.8718E-02  0.1872E+00  0.1872E+00
     -1.330  0.2674E-02  0.2674E-02  0.1875E+00  0.1875E+00
     -1.231  0.2233E-03  0.2233E-03  0.1875E+00  0.1875E+00
     -1.132  0.5171E-02  0.5171E-02  0.1880E+00  0.1880E+00
     -1.033  0.1578E-01  0.1578E-01  0.1896E+00  0.1896E+00
     -0.935  0.1268E-01  0.1268E-01  0.1908E+00  0.1908E+00
     -0.836  0.5096E-02  0.5096E-02  0.1913E+00  0.1913E+00
     -0.737  0.1034E-01  0.1034E-01  0.1924E+00  0.1924E+00
     -0.638  0.1124E-01  0.1124E-01  0.1935E+00  0.1935E+00
     -0.539  0.5731E-02  0.5731E-02  0.1940E+00  0.1940E+00
     -0.440  0.3308E-02  0.3308E-02  0.1944E+00  0.1944E+00
     -0.342  0.8132E-02  0.8132E-02  0.1952E+00  0.1952E+00
     -0.243  0.9713E-02  0.9713E-02  0.1961E+00  0.1961E+00
     -0.144  0.1026E-01  0.1026E-01  0.1971E+00  0.1971E+00
     -0.045  0.1026E-01  0.1026E-01  0.1982E+00  0.1982E+00
      0.054  0.1168E-01  0.1168E-01  0.1993E+00  0.1993E+00
      0.153  0.5303E-02  0.5303E-02  0.1998E+00  0.1998E+00
      0.251  0.1651E-02  0.1651E-02  0.2000E+00  0.2000E+00
      0.350  0.1391E-02  0.1391E-02  0.2001E+00  0.2001E+00
      0.449  0.7324E-02  0.7324E-02  0.2009E+00  0.2009E+00
      0.548  0.9080E-02  0.9080E-02  0.2018E+00  0.2018E+00
      0.647  0.6684E-02  0.6684E-02  0.2024E+00  0.2024E+00
      0.746  0.5084E-02  0.5084E-02  0.2029E+00  0.2029E+00
      0.844  0.5067E-02  0.5067E-02  0.2034E+00  0.2034E+00
      0.943  0.8380E-02  0.8380E-02  0.2042E+00  0.2042E+00
      1.042  0.1236E-01  0.1236E-01  0.2055E+00  0.2055E+00
      1.141  0.3323E-02  0.3323E-02  0.2058E+00  0.2058E+00
      1.240  0.7762E-02  0.7762E-02  0.2066E+00  0.2066E+00
      1.339  0.1765E-01  0.1765E-01  0.2083E+00  0.2083E+00
      1.437  0.2224E-01  0.2224E-01  0.2105E+00  0.2105E+00
      1.536  0.8986E-02  0.8986E-02  0.2114E+00  0.2114E+00
      1.635  0.7670E-02  0.7670E-02  0.2122E+00  0.2122E+00
      1.734  0.6848E-02  0.6848E-02  0.2128E+00  0.2128E+00
      1.833  0.9856E-02  0.9856E-02  0.2138E+00  0.2138E+00
      1.932  0.1656E-01  0.1656E-01  0.2154E+00  0.2154E+00
      2.030  0.2904E-01  0.2904E-01  0.2183E+00  0.2183E+00
      2.129  0.1127E-01  0.1127E-01  0.2194E+00  0.2194E+00
      2.228  0.1246E-01  0.1246E-01  0.2207E+00  0.2207E+00
      2.327  0.1926E-01  0.1926E-01  0.2226E+00  0.2226E+00
      2.426  0.2428E-01  0.2428E-01  0.2250E+00  0.2250E+00
      2.525  0.1314E-01  0.1314E-01  0.2263E+00  0.2263E+00
      2.623  0.7641E-02  0.7641E-02  0.2270E+00  0.2270E+00
      2.722  0.1616E-01  0.1616E-01  0.2286E+00  0.2286E+00
      2.821  0.2285E-01  0.2285E-01  0.2309E+00  0.2309E+00
      2.920  0.5496E-01  0.5496E-01  0.2363E+00  0.2363E+00
      3.019  0.2698E-01  0.2698E-01  0.2390E+00  0.2390E+00
      3.118  0.9805E-02  0.9804E-02  0.2399E+00  0.2399E+00
      3.216  0.1314E-01  0.1314E-01  0.2412E+00  0.2412E+00
      3.315  0.1628E-01  0.1628E-01  0.2428E+00  0.2428E+00
      3.414  0.1921E-01  0.1921E-01  0.2447E+00  0.2447E+00
      3.513  0.2481E-01  0.2481E-01  0.2472E+00  0.2472E+00
      3.612  0.1252E-01  0.1252E-01  0.2484E+00  0.2484E+00
      3.711  0.1295E-01  0.1295E-01  0.2497E+00  0.2497E+00
      3.809  0.2602E-01  0.2602E-01  0.2523E+00  0.2523E+00
      3.908  0.2983E-01  0.2983E-01  0.2552E+00  0.2552E+00
      4.007  0.2161E-01  0.2161E-01  0.2574E+00  0.2574E+00
      4.106  0.1251E-01  0.1251E-01  0.2586E+00  0.2586E+00
      4.205  0.1531E-01  0.1531E-01  0.2601E+00  0.2601E+00
      4.304  0.3501E-01  0.3501E-01  0.2636E+00  0.2636E+00
      4.402  0.1414E-01  0.1414E-01  0.2650E+00  0.2650E+00
      4.501  0.2407E-03  0.2407E-03  0.2650E+00  0.2650E+00
      4.600  0.9481E-08  0.9479E-08  0.2650E+00  0.2650E+00
      4.699  0.2732E-15  0.2732E-15  0.2650E+00  0.2650E+00
      4.798  0.0000E+00  0.0000E+00  0.2650E+00  0.2650E+00
      4.897  0.0000E+00  0.0000E+00  0.2650E+00  0.2650E+00
      4.995  0.0000E+00  0.0000E+00  0.2650E+00  0.2650E+00
      5.094  0.0000E+00  0.0000E+00  0.2650E+00  0.2650E+00
      5.193  0.0000E+00  0.0000E+00  0.2650E+00  0.2650E+00
      5.292  0.0000E+00  0.0000E+00  0.2650E+00  0.2650E+00
      5.391  0.0000E+00  0.0000E+00  0.2650E+00  0.2650E+00
      5.490  0.0000E+00  0.0000E+00  0.2650E+00  0.2650E+00
      5.588  0.0000E+00  0.0000E+00  0.2650E+00  0.2650E+00
      5.687  0.0000E+00  0.0000E+00  0.2650E+00  0.2650E+00
