       N       E                     dE             d eps       ncg     rms          rms(c)
DAV:   1     0.327779842150E+04    0.32778E+04   -0.13760E+05  4590   0.105E+03
DAV:   2    -0.235010101655E+03   -0.35128E+04   -0.33081E+04  6420   0.258E+02
DAV:   3    -0.852991699272E+03   -0.61798E+03   -0.61513E+03  5320   0.112E+02
DAV:   4    -0.875143566631E+03   -0.22152E+02   -0.22067E+02  5410   0.266E+01
DAV:   5    -0.875787170760E+03   -0.64360E+00   -0.64282E+00  6070   0.382E+00    0.513E+01
DAV:   6    -0.859376032591E+03    0.16411E+02   -0.20984E+01  5120   0.704E+00    0.334E+01
DAV:   7    -0.838277209216E+03    0.21099E+02   -0.30817E+01  4990   0.826E+00    0.202E+01
DAV:   8    -0.833580840383E+03    0.46964E+01   -0.23514E+01  5070   0.711E+00    0.796E+00
DAV:   9    -0.833493226868E+03    0.87614E-01   -0.10267E+00  5010   0.178E+00    0.323E+00
DAV:  10    -0.833396897761E+03    0.96329E-01   -0.36895E-01  4890   0.101E+00    0.852E-01
DAV:  11    -0.833385776819E+03    0.11121E-01   -0.67559E-02  4880   0.441E-01    0.260E-01
DAV:  12    -0.833385296297E+03    0.48052E-03   -0.66685E-03  5360   0.160E-01    0.133E-01
DAV:  13    -0.833385182445E+03    0.11385E-03   -0.16329E-03  5250   0.813E-02    0.703E-02
DAV:  14    -0.833385249769E+03   -0.67324E-04   -0.27409E-04  5100   0.326E-02    0.443E-02
DAV:  15    -0.833385286081E+03   -0.36312E-04   -0.63796E-05  4900   0.159E-02    0.183E-02
DAV:  16    -0.833385287908E+03   -0.18268E-05   -0.12369E-05  5110   0.685E-03    0.975E-03
DAV:  17    -0.833385287239E+03    0.66892E-06   -0.67006E-06  4970   0.538E-03
   1 F= -.84101868E+03 E0= -.84101868E+03  d E =-.841019E+03  mag=     0.0001
       N       E                     dE             d eps       ncg     rms          rms(c)
DAV:   1    -0.833385356489E+03   -0.68582E-04   -0.27732E-03  4500   0.694E-02    0.136E-02
DAV:   2    -0.833385359231E+03   -0.27415E-05   -0.51905E-05  4700   0.925E-03    0.912E-03
DAV:   3    -0.833385358444E+03    0.78707E-06   -0.33314E-06  3710   0.285E-03
   2 F= -.84101875E+03 E0= -.84101875E+03  d E =-.680751E-04  mag=    -0.0000
       N       E                     dE             d eps       ncg     rms          rms(c)
DAV:   1    -0.833385447213E+03   -0.87982E-04   -0.69654E-03  4460   0.928E-02    0.222E-02
DAV:   2    -0.833385452525E+03   -0.53123E-05   -0.11176E-04  4620   0.112E-02    0.150E-02
DAV:   3    -0.833385451960E+03    0.56524E-06   -0.50538E-06  3770   0.316E-03
   3 F= -.84101884E+03 E0= -.84101884E+03  d E =-.869270E-04  mag=     0.0000
       N       E                     dE             d eps       ncg     rms          rms(c)
DAV:   1    -0.833385583506E+03   -0.13098E-03   -0.91704E-03  4360   0.109E-01    0.241E-02
DAV:   2    -0.833385590817E+03   -0.73114E-05   -0.13021E-04  4540   0.126E-02    0.176E-02
DAV:   3    -0.833385591215E+03   -0.39789E-06   -0.30341E-06  3570   0.274E-03
   4 F= -.84101897E+03 E0= -.84101897E+03  d E =-.129713E-03  mag=    -0.0000
       N       E                     dE             d eps       ncg     rms          rms(c)
DAV:   1    -0.833385760111E+03   -0.16929E-03   -0.10404E-02  4340   0.127E-01    0.247E-02
DAV:   2    -0.833385770532E+03   -0.10421E-04   -0.14646E-04  4560   0.145E-02    0.195E-02
DAV:   3    -0.833385770382E+03    0.14986E-06   -0.31536E-06  3790   0.306E-03
   5 F= -.84101913E+03 E0= -.84101913E+03  d E =-.167195E-03  mag=     0.0000
       N       E                     dE             d eps       ncg     rms          rms(c)
DAV:   1    -0.833385961199E+03   -0.19067E-03   -0.13511E-02  4340   0.140E-01    0.282E-02
DAV:   2    -0.833385975361E+03   -0.14162E-04   -0.19065E-04  4560   0.158E-02    0.224E-02
DAV:   3    -0.833385975155E+03    0.20573E-06   -0.40550E-06  3800   0.337E-03
   6 F= -.84101933E+03 E0= -.84101933E+03  d E =-.192520E-03  mag=    -0.0000
       N       E                     dE             d eps       ncg     rms          rms(c)
DAV:   1    -0.833386181467E+03   -0.20611E-03   -0.21455E-02  4320   0.178E-01    0.346E-02
DAV:   2    -0.833386204885E+03   -0.23418E-04   -0.31760E-04  4520   0.205E-02    0.264E-02
DAV:   3    -0.833386204894E+03   -0.86802E-08   -0.63890E-06  4250   0.420E-03
   7 F= -.84101955E+03 E0= -.84101955E+03  d E =-.220459E-03  mag=     0.0000
       N       E                     dE             d eps       ncg     rms          rms(c)
DAV:   1    -0.833386472078E+03   -0.26719E-03   -0.38736E-02  4320   0.228E-01    0.467E-02
DAV:   2    -0.833386514551E+03   -0.42472E-04   -0.59902E-04  4500   0.263E-02    0.343E-02
DAV:   3    -0.833386514679E+03   -0.12817E-06   -0.12912E-05  4610   0.559E-03    0.248E-02
DAV:   4    -0.833386523727E+03   -0.90484E-05   -0.16870E-05  4000   0.556E-03    0.477E-03
DAV:   5    -0.833386524351E+03   -0.62365E-06   -0.27742E-06  3400   0.234E-03
   8 F= -.84101986E+03 E0= -.84101986E+03  d E =-.315134E-03  mag=    -0.0000
       N       E                     dE             d eps       ncg     rms          rms(c)
DAV:   1    -0.833386820264E+03   -0.29654E-03   -0.59388E-02  4310   0.290E-01    0.561E-02
DAV:   2    -0.833386894935E+03   -0.74672E-04   -0.98586E-04  4520   0.349E-02    0.417E-02
DAV:   3    -0.833386892532E+03    0.24039E-05   -0.19342E-05  4900   0.710E-03    0.309E-02
DAV:   4    -0.833386904189E+03   -0.11657E-04   -0.33177E-05  4220   0.814E-03    0.595E-03
DAV:   5    -0.833386904943E+03   -0.75384E-06   -0.52444E-06  3820   0.337E-03
   9 F= -.84102024E+03 E0= -.84102024E+03  d E =-.380642E-03  mag=    -0.0000
       N       E                     dE             d eps       ncg     rms          rms(c)
DAV:   1    -0.833387290012E+03   -0.38582E-03   -0.74997E-02  4290   0.333E-01    0.621E-02
DAV:   2    -0.833387386303E+03   -0.96291E-04   -0.11825E-03  4540   0.396E-02    0.496E-02
DAV:   3    -0.833387382519E+03    0.37844E-05   -0.23080E-05  4970   0.810E-03    0.376E-02
DAV:   4    -0.833387400197E+03   -0.17679E-04   -0.63989E-05  4260   0.108E-02    0.861E-03
DAV:   5    -0.833387399459E+03    0.73780E-06   -0.87165E-06  4240   0.469E-03
  10 F= -.84102073E+03 E0= -.84102073E+03  d E =-.490547E-03  mag=    -0.0000
       N       E                     dE             d eps       ncg     rms          rms(c)
DAV:   1    -0.833387821435E+03   -0.42124E-03   -0.11739E-01  4250   0.413E-01    0.768E-02
DAV:   2    -0.833387974056E+03   -0.15262E-03   -0.18291E-03  4520   0.489E-02    0.620E-02
DAV:   3    -0.833387966930E+03    0.71257E-05   -0.35682E-05  5015   0.100E-02    0.472E-02
DAV:   4    -0.833387992380E+03   -0.25450E-04   -0.10673E-04  4390   0.137E-02    0.117E-02
DAV:   5    -0.833387990844E+03    0.15358E-05   -0.14670E-05  4590   0.607E-03    0.815E-03
DAV:   6    -0.833387990322E+03    0.52227E-06   -0.80550E-06  3820   0.373E-03
  11 F= -.84102132E+03 E0= -.84102132E+03  d E =-.590509E-03  mag=     0.0000
       N       E                     dE             d eps       ncg     rms          rms(c)
DAV:   1    -0.833388429720E+03   -0.43888E-03   -0.21753E-01  4250   0.553E-01    0.105E-01
DAV:   2    -0.833388714070E+03   -0.28435E-03   -0.35171E-03  4505   0.658E-02    0.805E-02
DAV:   3    -0.833388704507E+03    0.95624E-05   -0.64721E-05  5000   0.131E-02    0.604E-02
DAV:   4    -0.833388739079E+03   -0.34572E-04   -0.14664E-04  4475   0.164E-02    0.111E-02
DAV:   5    -0.833388740295E+03   -0.12153E-05   -0.21402E-05  4660   0.682E-03    0.845E-03
DAV:   6    -0.833388739211E+03    0.10831E-05   -0.47940E-06  3795   0.356E-03    0.425E-03
DAV:   7    -0.833388738964E+03    0.24754E-06   -0.18253E-06  3620   0.202E-03
  12 F= -.84102207E+03 E0= -.84102206E+03  d E =-.742095E-03  mag=     0.0000
       N       E                     dE             d eps       ncg     rms          rms(c)
DAV:   1    -0.833389199079E+03   -0.45987E-03   -0.32899E-01  4250   0.712E-01    0.129E-01
DAV:   2    -0.833389633909E+03   -0.43483E-03   -0.53190E-03  4570   0.866E-02    0.101E-01
DAV:   3    -0.833389608740E+03    0.25169E-04   -0.10704E-04  5040   0.176E-02    0.762E-02
DAV:   4    -0.833389653921E+03   -0.45181E-04   -0.26435E-04  4480   0.236E-02    0.164E-02
DAV:   5    -0.833389654494E+03   -0.57338E-06   -0.37185E-05  4660   0.979E-03    0.122E-02
DAV:   6    -0.833389652515E+03    0.19796E-05   -0.13867E-05  4300   0.579E-03    0.527E-03
DAV:   7    -0.833389652238E+03    0.27688E-06   -0.17537E-06  3880   0.220E-03
  13 F= -.84102297E+03 E0= -.84102296E+03  d E =-.899657E-03  mag=    -0.0000
       N       E                     dE             d eps       ncg     rms          rms(c)
DAV:   1    -0.833389490888E+03    0.16163E-03   -0.54943E-01  4240   0.104E+00    0.166E-01
DAV:   2    -0.833390287333E+03   -0.79645E-03   -0.96889E-03  4580   0.134E-01    0.133E-01
DAV:   3    -0.833390213223E+03    0.74110E-04   -0.23470E-04  5175   0.279E-02    0.102E-01
DAV:   4    -0.833390242830E+03   -0.29607E-04   -0.48812E-04  4440   0.376E-02    0.276E-02
DAV:   5    -0.833390247838E+03   -0.50084E-05   -0.78041E-05  4640   0.155E-02    0.182E-02
DAV:   6    -0.833390246391E+03    0.14476E-05   -0.27316E-05  4460   0.858E-03    0.757E-03
DAV:   7    -0.833390245881E+03    0.50956E-06   -0.24483E-06  3840   0.303E-03
  14 F= -.84102352E+03 E0= -.84102352E+03  d E =-.551314E-03  mag=     0.0000
       N       E                     dE             d eps       ncg     rms          rms(c)
DAV:   1    -0.833390972368E+03   -0.72598E-03   -0.38814E-02  4290   0.404E-01    0.452E-02
DAV:   2    -0.833391040409E+03   -0.68041E-04   -0.97628E-04  5360   0.589E-02    0.399E-02
DAV:   3    -0.833391020128E+03    0.20281E-04   -0.50321E-05  5760   0.134E-02    0.294E-02
DAV:   4    -0.833391005300E+03    0.14828E-04   -0.36978E-05  4420   0.130E-02    0.130E-02
DAV:   5    -0.833391004441E+03    0.85834E-06   -0.10534E-05  4330   0.596E-03    0.511E-03
DAV:   6    -0.833391004641E+03   -0.19988E-06   -0.96054E-07  2650   0.210E-03
  15 F= -.84102428E+03 E0= -.84102428E+03  d E =-.766759E-03  mag=     0.0000
       N       E                     dE             d eps       ncg     rms          rms(c)
DAV:   1    -0.833390494576E+03    0.50987E-03   -0.33764E-02  4255   0.372E-01    0.423E-02
DAV:   2    -0.833390554230E+03   -0.59653E-04   -0.82259E-04  5300   0.539E-02    0.363E-02
DAV:   3    -0.833390538728E+03    0.15502E-04   -0.41018E-05  5700   0.122E-02    0.268E-02
DAV:   4    -0.833390528569E+03    0.10158E-04   -0.31596E-05  4340   0.119E-02    0.118E-02
DAV:   5    -0.833390528269E+03    0.30082E-06   -0.83108E-06  4360   0.533E-03
  16 F= -.84102381E+03 E0= -.84102381E+03  d E =0.471245E-03  mag=    -0.0000
       N       E                     dE             d eps       ncg     rms          rms(c)
DAV:   1    -0.833390800788E+03   -0.27222E-03   -0.20463E-03  4260   0.926E-02    0.104E-02
DAV:   2    -0.833390804095E+03   -0.33071E-05   -0.53541E-05  5380   0.137E-02    0.960E-03
DAV:   3    -0.833390802820E+03    0.12750E-05   -0.25001E-06  3460   0.312E-03    0.721E-03
DAV:   4    -0.833390801715E+03    0.11049E-05   -0.35338E-06  3880   0.379E-03    0.288E-03
DAV:   5    -0.833390801665E+03    0.49593E-07   -0.60459E-07  2390   0.152E-03
  17 F= -.84102408E+03 E0= -.84102408E+03  d E =-.272227E-03  mag=     0.0000
       N       E                     dE             d eps       ncg     rms          rms(c)
DAV:   1    -0.833391089745E+03   -0.28803E-03   -0.61804E-03  4260   0.161E-01    0.179E-02
DAV:   2    -0.833391100544E+03   -0.10799E-04   -0.15288E-04  5380   0.233E-02    0.157E-02
DAV:   3    -0.833391097414E+03    0.31302E-05   -0.77530E-06  5580   0.528E-03    0.115E-02
DAV:   4    -0.833391095241E+03    0.21725E-05   -0.57148E-06  4180   0.508E-03    0.517E-03
DAV:   5    -0.833391095101E+03    0.14054E-06   -0.14958E-06  2960   0.231E-03
  18 F= -.84102438E+03 E0= -.84102437E+03  d E =-.291260E-03  mag=    -0.0000
       N       E                     dE             d eps       ncg     rms          rms(c)
DAV:   1    -0.833391146803E+03   -0.51562E-04   -0.85387E-03  4260   0.188E-01    0.209E-02
DAV:   2    -0.833391162241E+03   -0.15438E-04   -0.21089E-04  5380   0.272E-02    0.182E-02
DAV:   3    -0.833391158295E+03    0.39457E-05   -0.10013E-05  5680   0.600E-03    0.136E-02
DAV:   4    -0.833391155410E+03    0.28851E-05   -0.80974E-06  4200   0.604E-03    0.593E-03
DAV:   5    -0.833391155277E+03    0.13271E-06   -0.20383E-06  3180   0.268E-03
  19 F= -.84102443E+03 E0= -.84102443E+03  d E =-.570923E-04  mag=     0.0000
       N       E                     dE             d eps       ncg     rms          rms(c)
DAV:   1    -0.833391161828E+03   -0.64185E-05   -0.10136E-05  4180   0.631E-03    0.139E-03
DAV:   2    -0.833391161823E+03    0.52241E-08   -0.31644E-07  2240   0.112E-03
  20 F= -.84102444E+03 E0= -.84102444E+03  d E =-.660973E-05  mag=     0.0000
       N       E                     dE             d eps       ncg     rms          rms(c)
DAV:   1    -0.833391173712E+03   -0.11884E-04   -0.33665E-05  4280   0.113E-02    0.161E-03
DAV:   2    -0.833391173742E+03   -0.29766E-07   -0.64038E-07  2400   0.156E-03
  21 F= -.84102445E+03 E0= -.84102445E+03  d E =-.120358E-04  mag=     0.0000
       N       E                     dE             d eps       ncg     rms          rms(c)
DAV:   1    -0.833391189478E+03   -0.15766E-04   -0.70805E-05  4260   0.162E-02    0.263E-03
DAV:   2    -0.833391189544E+03   -0.66626E-07   -0.14134E-06  2940   0.227E-03
  22 F= -.84102447E+03 E0= -.84102447E+03  d E =-.159707E-04  mag=     0.0000
       N       E                     dE             d eps       ncg     rms          rms(c)
DAV:   1    -0.833391207108E+03   -0.17631E-04   -0.11253E-04  4260   0.201E-02    0.357E-03
DAV:   2    -0.833391207210E+03   -0.10165E-06   -0.22183E-06  3750   0.277E-03
  23 F= -.84102448E+03 E0= -.84102448E+03  d E =-.178448E-04  mag=     0.0000
       N       E                     dE             d eps       ncg     rms          rms(c)
DAV:   1    -0.833391225091E+03   -0.17982E-04   -0.15285E-04  4260   0.227E-02    0.431E-03
DAV:   2    -0.833391225213E+03   -0.12253E-06   -0.27722E-06  3620   0.303E-03
  24 F= -.84102450E+03 E0= -.84102450E+03  d E =-.181684E-04  mag=     0.0000
       N       E                     dE             d eps       ncg     rms          rms(c)
DAV:   1    -0.833391242694E+03   -0.17603E-04   -0.18666E-04  4260   0.239E-02    0.483E-03
DAV:   2    -0.833391242837E+03   -0.14306E-06   -0.31337E-06  3620   0.310E-03
  25 F= -.84102452E+03 E0= -.84102452E+03  d E =-.177879E-04  mag=     0.0000
       N       E                     dE             d eps       ncg     rms          rms(c)
DAV:   1    -0.833391262543E+03   -0.19849E-04   -0.26519E-04  4260   0.262E-02    0.553E-03
DAV:   2    -0.833391262773E+03   -0.23034E-06   -0.43310E-06  3700   0.335E-03
  26 F= -.84102454E+03 E0= -.84102454E+03  d E =-.200748E-04  mag=     0.0000
       N       E                     dE             d eps       ncg     rms          rms(c)
DAV:   1    -0.833391286931E+03   -0.24388E-04   -0.37271E-04  4260   0.273E-02    0.657E-03
DAV:   2    -0.833391287235E+03   -0.30365E-06   -0.55453E-06  3430   0.334E-03
  27 F= -.84102457E+03 E0= -.84102457E+03  d E =-.245466E-04  mag=     0.0000
       N       E                     dE             d eps       ncg     rms          rms(c)
DAV:   1    -0.833391319741E+03   -0.32810E-04   -0.54192E-04  4260   0.285E-02    0.778E-03
DAV:   2    -0.833391320189E+03   -0.44816E-06   -0.75104E-06  3500   0.328E-03
  28 F= -.84102460E+03 E0= -.84102460E+03  d E =-.330018E-04  mag=     0.0000
       N       E                     dE             d eps       ncg     rms          rms(c)
DAV:   1    -0.833391365083E+03   -0.45342E-04   -0.82401E-04  4260   0.337E-02    0.942E-03
DAV:   2    -0.833391365798E+03   -0.71502E-06   -0.11251E-05  3660   0.381E-03    0.778E-03
DAV:   3    -0.833391365838E+03   -0.40294E-07   -0.54335E-07  3080   0.126E-03
  29 F= -.84102464E+03 E0= -.84102464E+03  d E =-.456273E-04  mag=    -0.0000
       N       E                     dE             d eps       ncg     rms          rms(c)
DAV:   1    -0.833391424581E+03   -0.58783E-04   -0.13034E-03  4260   0.450E-02    0.784E-03
DAV:   2    -0.833391426146E+03   -0.15648E-05   -0.19044E-05  4040   0.526E-03    0.638E-03
DAV:   3    -0.833391426112E+03    0.33382E-07   -0.41677E-07  3390   0.116E-03
  30 F= -.84102470E+03 E0= -.84102470E+03  d E =-.601542E-04  mag=     0.0000
       N       E                     dE             d eps       ncg     rms          rms(c)
DAV:   1    -0.833391495262E+03   -0.69116E-04   -0.20928E-03  4260   0.588E-02    0.100E-02
DAV:   2    -0.833391497830E+03   -0.25684E-05   -0.31521E-05  4400   0.696E-03    0.820E-03
DAV:   3    -0.833391497696E+03    0.13404E-06   -0.67895E-07  3480   0.145E-03
  31 F= -.84102478E+03 E0= -.84102478E+03  d E =-.713863E-04  mag=     0.0000
       N       E                     dE             d eps       ncg     rms          rms(c)
DAV:   1    -0.833391575093E+03   -0.77262E-04   -0.30512E-03  4260   0.700E-02    0.123E-02
DAV:   2    -0.833391578738E+03   -0.36451E-05   -0.44725E-05  4420   0.813E-03    0.101E-02
DAV:   3    -0.833391578583E+03    0.15467E-06   -0.96752E-07  3540   0.172E-03
  32 F= -.84102486E+03 E0= -.84102486E+03  d E =-.807240E-04  mag=     0.0000
       N       E                     dE             d eps       ncg     rms          rms(c)
DAV:   1    -0.833391672339E+03   -0.93602E-04   -0.42952E-03  4250   0.781E-02    0.146E-02
DAV:   2    -0.833391677264E+03   -0.49250E-05   -0.60231E-05  4420   0.876E-03    0.119E-02
DAV:   3    -0.833391677126E+03    0.13858E-06   -0.12540E-06  3515   0.188E-03
  33 F= -.84102495E+03 E0= -.84102495E+03  d E =-.985065E-04  mag=     0.0000
       N       E                     dE             d eps       ncg     rms          rms(c)
DAV:   1    -0.833391795183E+03   -0.11792E-03   -0.60373E-03  4250   0.917E-02    0.174E-02
DAV:   2    -0.833391802064E+03   -0.68814E-05   -0.84005E-05  4480   0.103E-02    0.142E-02
DAV:   3    -0.833391801908E+03    0.15595E-06   -0.17549E-06  3505   0.223E-03
  34 F= -.84102508E+03 E0= -.84102508E+03  d E =-.124631E-03  mag=     0.0000
       N       E                     dE             d eps       ncg     rms          rms(c)
DAV:   1    -0.833391943623E+03   -0.14156E-03   -0.89265E-03  4250   0.116E-01    0.212E-02
DAV:   2    -0.833391954077E+03   -0.10453E-04   -0.12767E-04  4480   0.133E-02    0.174E-02
DAV:   3    -0.833391953773E+03    0.30355E-06   -0.27740E-06  3660   0.288E-03
  35 F= -.84102523E+03 E0= -.84102523E+03  d E =-.151710E-03  mag=     0.0000
       N       E                     dE             d eps       ncg     rms          rms(c)
DAV:   1    -0.833392117454E+03   -0.16338E-03   -0.13566E-02  4250   0.140E-01    0.262E-02
DAV:   2    -0.833392133274E+03   -0.15820E-04   -0.19317E-04  4500   0.159E-02    0.214E-02
DAV:   3    -0.833392132846E+03    0.42786E-06   -0.40947E-06  3840   0.341E-03
  36 F= -.84102541E+03 E0= -.84102541E+03  d E =-.178566E-03  mag=     0.0000
       N       E                     dE             d eps       ncg     rms          rms(c)
DAV:   1    -0.833392336604E+03   -0.20333E-03   -0.20207E-02  4250   0.166E-01    0.318E-02
DAV:   2    -0.833392360051E+03   -0.23447E-04   -0.28462E-04  4480   0.186E-02    0.259E-02
DAV:   3    -0.833392359409E+03    0.64148E-06   -0.58453E-06  4060   0.396E-03
  37 F= -.84102564E+03 E0= -.84102563E+03  d E =-.225426E-03  mag=     0.0000
       N       E                     dE             d eps       ncg     rms          rms(c)
DAV:   1    -0.833392602372E+03   -0.24232E-03   -0.30187E-02  4240   0.208E-01    0.390E-02
DAV:   2    -0.833392638396E+03   -0.36025E-04   -0.43318E-04  4500   0.236E-02    0.317E-02
DAV:   3    -0.833392637196E+03    0.12006E-05   -0.90675E-06  4500   0.497E-03    0.238E-02
DAV:   4    -0.833392642377E+03   -0.51811E-05   -0.20725E-05  4010   0.600E-03    0.407E-03
DAV:   5    -0.833392642426E+03   -0.49091E-07   -0.27204E-06  3480   0.252E-03
  38 F= -.84102592E+03 E0= -.84102592E+03  d E =-.281686E-03  mag=     0.0000
       N       E                     dE             d eps       ncg     rms          rms(c)
DAV:   1    -0.833392920358E+03   -0.27798E-03   -0.43368E-02  4240   0.244E-01    0.456E-02
DAV:   2    -0.833392975607E+03   -0.55249E-04   -0.65348E-04  4550   0.283E-02    0.370E-02
DAV:   3    -0.833392972543E+03    0.30644E-05   -0.12361E-05  4620   0.567E-03    0.283E-02
DAV:   4    -0.833392978654E+03   -0.61109E-05   -0.35696E-05  4200   0.757E-03    0.519E-03
DAV:   5    -0.833392978476E+03    0.17766E-06   -0.44733E-06  3620   0.316E-03
  39 F= -.84102625E+03 E0= -.84102625E+03  d E =-.335546E-03  mag=     0.0000
       N       E                     dE             d eps       ncg     rms          rms(c)
DAV:   1    -0.833393292749E+03   -0.31410E-03   -0.61196E-02  4240   0.293E-01    0.543E-02
DAV:   2    -0.833393370989E+03   -0.78240E-04   -0.92148E-04  4520   0.342E-02    0.441E-02
DAV:   3    -0.833393366879E+03    0.41099E-05   -0.17817E-05  4880   0.692E-03    0.337E-02
DAV:   4    -0.833393375498E+03   -0.86193E-05   -0.49792E-05  4260   0.933E-03    0.637E-03
DAV:   5    -0.833393375174E+03    0.32425E-06   -0.64982E-06  3900   0.393E-03
  40 F= -.84102665E+03 E0= -.84102665E+03  d E =-.398363E-03  mag=     0.0000
       N       E                     dE             d eps       ncg     rms          rms(c)
DAV:   1    -0.833393720777E+03   -0.34528E-03   -0.90622E-02  4240   0.351E-01    0.655E-02
DAV:   2    -0.833393836792E+03   -0.11601E-03   -0.13515E-03  4540   0.405E-02    0.533E-02
DAV:   3    -0.833393830790E+03    0.60015E-05   -0.25550E-05  4900   0.814E-03    0.408E-02
DAV:   4    -0.833393843014E+03   -0.12224E-04   -0.74863E-05  4280   0.109E-02    0.775E-03
DAV:   5    -0.833393842511E+03    0.50279E-06   -0.94506E-06  4120   0.457E-03
  41 F= -.84102712E+03 E0= -.84102712E+03  d E =-.468485E-03  mag=     0.0000
       N       E                     dE             d eps       ncg     rms          rms(c)
DAV:   1    -0.833394233519E+03   -0.39050E-03   -0.14349E-01  4240   0.439E-01    0.811E-02
DAV:   2    -0.833394422313E+03   -0.18879E-03   -0.21883E-03  4560   0.512E-02    0.659E-02
DAV:   3    -0.833394411043E+03    0.11271E-04   -0.40746E-05  4960   0.102E-02    0.508E-02
DAV:   4    -0.833394427656E+03   -0.16613E-04   -0.12362E-04  4410   0.139E-02    0.975E-03
DAV:   5    -0.833394427302E+03    0.35419E-06   -0.15421E-05  4530   0.579E-03    0.763E-03
DAV:   6    -0.833394426332E+03    0.96953E-06   -0.45382E-06  3580   0.323E-03
  42 F= -.84102770E+03 E0= -.84102770E+03  d E =-.579509E-03  mag=     0.0000
       N       E                     dE             d eps       ncg     rms          rms(c)
DAV:   1    -0.833394888794E+03   -0.46149E-03   -0.19299E-01  4240   0.513E-01    0.962E-02
DAV:   2    -0.833395135773E+03   -0.24698E-03   -0.28794E-03  4550   0.593E-02    0.783E-02
DAV:   3    -0.833395120953E+03    0.14820E-04   -0.56466E-05  4960   0.121E-02    0.598E-02
DAV:   4    -0.833395144382E+03   -0.23429E-04   -0.16119E-04  4500   0.162E-02    0.114E-02
DAV:   5    -0.833395143702E+03    0.67960E-06   -0.20623E-05  4580   0.682E-03    0.881E-03
DAV:   6    -0.833395142408E+03    0.12938E-05   -0.62911E-06  3900   0.375E-03    0.402E-03
DAV:   7    -0.833395142154E+03    0.25485E-06   -0.11561E-06  3690   0.160E-03
  43 F= -.84102841E+03 E0= -.84102841E+03  d E =-.711111E-03  mag=     0.0000
       N       E                     dE             d eps       ncg     rms          rms(c)
DAV:   1    -0.833395645831E+03   -0.50342E-03   -0.30308E-01  4240   0.637E-01    0.119E-01
DAV:   2    -0.833396033825E+03   -0.38799E-03   -0.45270E-03  4550   0.736E-02    0.967E-02
DAV:   3    -0.833396005632E+03    0.28194E-04   -0.88789E-05  5000   0.149E-02    0.740E-02
DAV:   4    -0.833396032366E+03   -0.26735E-04   -0.26667E-04  4500   0.202E-02    0.141E-02
DAV:   5    -0.833396031851E+03    0.51505E-06   -0.33589E-05  4550   0.846E-03    0.110E-02
DAV:   6    -0.833396029900E+03    0.19507E-05   -0.87322E-06  4020   0.448E-03    0.527E-03
DAV:   7    -0.833396029382E+03    0.51827E-06   -0.21741E-06  3750   0.212E-03
  44 F= -.84102930E+03 E0= -.84102930E+03  d E =-.889441E-03  mag=    -0.0000
       N       E                     dE             d eps       ncg     rms          rms(c)
DAV:   1    -0.833396530520E+03   -0.50062E-03   -0.45696E-01  4240   0.788E-01    0.145E-01
DAV:   2    -0.833397119922E+03   -0.58940E-03   -0.68601E-03  4550   0.917E-02    0.118E-01
DAV:   3    -0.833397075813E+03    0.44109E-04   -0.13503E-04  4980   0.183E-02    0.906E-02
DAV:   4    -0.833397110671E+03   -0.34858E-04   -0.41465E-04  4540   0.257E-02    0.174E-02
DAV:   5    -0.833397109313E+03    0.13578E-05   -0.51822E-05  4540   0.106E-02    0.137E-02
DAV:   6    -0.833397106188E+03    0.31251E-05   -0.13994E-05  4200   0.571E-03    0.638E-03
DAV:   7    -0.833397105469E+03    0.71845E-06   -0.33526E-06  3960   0.263E-03
  45 F= -.84103038E+03 E0= -.84103038E+03  d E =-.107834E-02  mag=     0.0000
       N       E                     dE             d eps       ncg     rms          rms(c)
DAV:   1    -0.833397469907E+03   -0.36372E-03   -0.64964E-01  4240   0.984E-01    0.175E-01
DAV:   2    -0.833398326936E+03   -0.85703E-03   -0.99633E-03  4570   0.118E-01    0.142E-01
DAV:   3    -0.833398260400E+03    0.66537E-04   -0.20808E-04  5060   0.239E-02    0.109E-01
DAV:   4    -0.833398302742E+03   -0.42342E-04   -0.57958E-04  4480   0.345E-02    0.221E-02
DAV:   5    -0.833398300607E+03    0.21348E-05   -0.80188E-05  4580   0.144E-02    0.171E-02
DAV:   6    -0.833398297048E+03    0.35588E-05   -0.20305E-05  4640   0.726E-03    0.823E-03
DAV:   7    -0.833398295960E+03    0.10884E-05   -0.36968E-06  4070   0.312E-03    0.488E-03
DAV:   8    -0.833398295682E+03    0.27777E-06   -0.24645E-06  3330   0.244E-03
  46 F= -.84103156E+03 E0= -.84103156E+03  d E =-.117986E-02  mag=    -0.0000
       N       E                     dE             d eps       ncg     rms          rms(c)
DAV:   1    -0.833397452330E+03    0.84363E-03   -0.10873E+00  4240   0.141E+00    0.222E-01
DAV:   2    -0.833399039220E+03   -0.15869E-02   -0.18605E-02  4640   0.181E-01    0.183E-01
DAV:   3    -0.833398874742E+03    0.16448E-03   -0.43450E-04  5140   0.366E-02    0.142E-01
DAV:   4    -0.833398853698E+03    0.21044E-04   -0.10737E-03  4490   0.531E-02    0.351E-02
DAV:   5    -0.833398862541E+03   -0.88429E-05   -0.15877E-04  4640   0.215E-02    0.244E-02
DAV:   6    -0.833398859206E+03    0.33349E-05   -0.39618E-05  4540   0.109E-02    0.108E-02
DAV:   7    -0.833398858038E+03    0.11681E-05   -0.51836E-06  4640   0.414E-03    0.706E-03
DAV:   8    -0.833398857475E+03    0.56251E-06   -0.39275E-06  3420   0.309E-03
  47 F= -.84103214E+03 E0= -.84103214E+03  d E =-.578497E-03  mag=    -0.0000
       N       E                     dE             d eps       ncg     rms          rms(c)
DAV:   1    -0.833399980104E+03   -0.11221E-02   -0.64038E-02  4300   0.520E-01    0.594E-02
DAV:   2    -0.833400099765E+03   -0.11966E-03   -0.16920E-03  5360   0.781E-02    0.521E-02
DAV:   3    -0.833400066303E+03    0.33462E-04   -0.81118E-05  5560   0.172E-02    0.392E-02
DAV:   4    -0.833400039155E+03    0.27147E-04   -0.67759E-05  4420   0.176E-02    0.174E-02
DAV:   5    -0.833400037672E+03    0.14830E-05   -0.19086E-05  4580   0.820E-03    0.767E-03
DAV:   6    -0.833400037910E+03   -0.23796E-06   -0.19751E-06  3080   0.295E-03
  48 F= -.84103331E+03 E0= -.84103331E+03  d E =-.117224E-02  mag=    -0.0000
       N       E                     dE             d eps       ncg     rms          rms(c)
DAV:   1    -0.833400050474E+03   -0.12802E-04   -0.70468E-05  4320   0.146E-02    0.294E-03
DAV:   2    -0.833400050528E+03   -0.54235E-07   -0.14598E-06  3140   0.207E-03
  49 F= -.84103332E+03 E0= -.84103332E+03  d E =-.121148E-04  mag=    -0.0000
       N       E                     dE             d eps       ncg     rms          rms(c)
DAV:   1    -0.833400072666E+03   -0.22191E-04   -0.24745E-04  4260   0.268E-02    0.449E-03
DAV:   2    -0.833400072915E+03   -0.24901E-06   -0.47884E-06  3580   0.359E-03
  50 F= -.84103334E+03 E0= -.84103334E+03  d E =-.213974E-04  mag=     0.0000
       N       E                     dE             d eps       ncg     rms          rms(c)
DAV:   1    -0.833400101800E+03   -0.29134E-04   -0.47499E-04  4260   0.352E-02    0.706E-03
DAV:   2    -0.833400102160E+03   -0.35977E-06   -0.85900E-06  4220   0.454E-03
  51 F= -.84103337E+03 E0= -.84103337E+03  d E =-.277889E-04  mag=     0.0000
       N       E                     dE             d eps       ncg     rms          rms(c)
DAV:   1    -0.833400137682E+03   -0.35882E-04   -0.71477E-04  4260   0.401E-02    0.924E-03
DAV:   2    -0.833400138147E+03   -0.46474E-06   -0.11856E-05  4160   0.490E-03    0.725E-03
DAV:   3    -0.833400138164E+03   -0.16982E-07   -0.58624E-07  2990   0.162E-03
  52 F= -.84103340E+03 E0= -.84103340E+03  d E =-.340404E-04  mag=    -0.0000
       N       E                     dE             d eps       ncg     rms          rms(c)
DAV:   1    -0.833400183414E+03   -0.45267E-04   -0.97710E-04  4260   0.438E-02    0.767E-03
DAV:   2    -0.833400184480E+03   -0.10662E-05   -0.15567E-05  4260   0.511E-03    0.564E-03
DAV:   3    -0.833400184512E+03   -0.32007E-07   -0.29300E-07  3260   0.105E-03
  53 F= -.84103345E+03 E0= -.84103345E+03  d E =-.438135E-04  mag=     0.0000
       N       E                     dE             d eps       ncg     rms          rms(c)
DAV:   1    -0.833400240542E+03   -0.56062E-04   -0.13395E-03  4260   0.505E-02    0.873E-03
DAV:   2    -0.833400242030E+03   -0.14879E-05   -0.21207E-05  4280   0.589E-03    0.648E-03
DAV:   3    -0.833400242026E+03    0.35070E-08   -0.40280E-07  3320   0.118E-03
  54 F= -.84103350E+03 E0= -.84103350E+03  d E =-.545791E-04  mag=     0.0000
       N       E                     dE             d eps       ncg     rms          rms(c)
DAV:   1    -0.833400314445E+03   -0.72415E-04   -0.22251E-03  4250   0.655E-02    0.112E-02
DAV:   2    -0.833400316981E+03   -0.25358E-05   -0.35472E-05  4380   0.774E-03    0.842E-03
DAV:   3    -0.833400316934E+03    0.47163E-07   -0.70324E-07  3530   0.156E-03
  55 F= -.84103357E+03 E0= -.84103357E+03  d E =-.713133E-04  mag=     0.0000
       N       E                     dE             d eps       ncg     rms          rms(c)
DAV:   1    -0.833400405849E+03   -0.88868E-04   -0.36105E-03  4270   0.822E-02    0.144E-02
DAV:   2    -0.833400410004E+03   -0.41558E-05   -0.57137E-05  4460   0.967E-03    0.108E-02
DAV:   3    -0.833400409930E+03    0.74637E-07   -0.11038E-06  3580   0.193E-03
  56 F= -.84103366E+03 E0= -.84103366E+03  d E =-.889586E-04  mag=     0.0000
       N       E                     dE             d eps       ncg     rms          rms(c)
DAV:   1    -0.833400522098E+03   -0.11209E-03   -0.56072E-03  4240   0.998E-02    0.179E-02
DAV:   2    -0.833400528549E+03   -0.64510E-05   -0.87311E-05  4440   0.116E-02    0.135E-02
DAV:   3    -0.833400528489E+03    0.60296E-07   -0.16201E-06  3600   0.229E-03
  57 F= -.84103378E+03 E0= -.84103378E+03  d E =-.114188E-03  mag=     0.0000
       N       E                     dE             d eps       ncg     rms          rms(c)
DAV:   1    -0.833400672866E+03   -0.14432E-03   -0.88602E-03  4260   0.124E-01    0.223E-02
DAV:   2    -0.833400683073E+03   -0.10207E-04   -0.13638E-04  4440   0.144E-02    0.169E-02
DAV:   3    -0.833400682952E+03    0.12085E-06   -0.25093E-06  3700   0.281E-03
  58 F= -.84103393E+03 E0= -.84103393E+03  d E =-.149647E-03  mag=     0.0000
       N       E                     dE             d eps       ncg     rms          rms(c)
DAV:   1    -0.833400863729E+03   -0.18066E-03   -0.14251E-02  4240   0.156E-01    0.280E-02
DAV:   2    -0.833400880432E+03   -0.16703E-04   -0.21944E-04  4460   0.181E-02    0.215E-02
DAV:   3    -0.833400880077E+03    0.35512E-06   -0.40864E-06  3900   0.354E-03
  59 F= -.84103412E+03 E0= -.84103412E+03  d E =-.191351E-03  mag=     0.0000
       N       E                     dE             d eps       ncg     rms          rms(c)
DAV:   1    -0.833401103493E+03   -0.22306E-03   -0.22771E-02  4240   0.195E-01    0.352E-02
DAV:   2    -0.833401130276E+03   -0.26782E-04   -0.34759E-04  4440   0.225E-02    0.272E-02
DAV:   3    -0.833401129522E+03    0.75351E-06   -0.65644E-06  4220   0.444E-03
  60 F= -.84103436E+03 E0= -.84103436E+03  d E =-.242432E-03  mag=     0.0000
       N       E                     dE             d eps       ncg     rms          rms(c)
DAV:   1    -0.833401406493E+03   -0.27622E-03   -0.35418E-02  4240   0.241E-01    0.436E-02
DAV:   2    -0.833401448038E+03   -0.41545E-04   -0.53170E-04  4440   0.276E-02    0.341E-02
DAV:   3    -0.833401446677E+03    0.13614E-05   -0.10253E-05  4540   0.545E-03    0.252E-02
DAV:   4    -0.833401454670E+03   -0.79928E-05   -0.23427E-05  4110   0.688E-03    0.445E-03
DAV:   5    -0.833401454576E+03    0.93445E-07   -0.32349E-06  3420   0.283E-03
  61 F= -.84103468E+03 E0= -.84103468E+03  d E =-.316735E-03  mag=    -0.0000
       N       E                     dE             d eps       ncg     rms          rms(c)
DAV:   1    -0.833401778936E+03   -0.32427E-03   -0.55028E-02  4280   0.297E-01    0.524E-02
DAV:   2    -0.833401849193E+03   -0.70258E-04   -0.87082E-04  4430   0.350E-02    0.415E-02
DAV:   3    -0.833401844535E+03    0.46578E-05   -0.16123E-05  4800   0.674E-03    0.314E-02
DAV:   4    -0.833401854552E+03   -0.10016E-04   -0.46282E-05  4170   0.946E-03    0.637E-03
DAV:   5    -0.833401854090E+03    0.46159E-06   -0.60573E-06  3940   0.387E-03
  62 F= -.84103507E+03 E0= -.84103507E+03  d E =-.391908E-03  mag=    -0.0000
       N       E                     dE             d eps       ncg     rms          rms(c)
DAV:   1    -0.833402219252E+03   -0.36470E-03   -0.86446E-02  4280   0.367E-01    0.651E-02
DAV:   2    -0.833402330660E+03   -0.11141E-03   -0.13634E-03  4430   0.433E-02    0.518E-02
DAV:   3    -0.833402323099E+03    0.75614E-05   -0.25320E-05  5020   0.835E-03    0.394E-02
DAV:   4    -0.833402337363E+03   -0.14264E-04   -0.73601E-05  4260   0.117E-02    0.794E-03
DAV:   5    -0.833402336700E+03    0.66291E-06   -0.96049E-06  4260   0.481E-03
  63 F= -.84103555E+03 E0= -.84103555E+03  d E =-.478971E-03  mag=    -0.0000
       N       E                     dE             d eps       ncg     rms          rms(c)
DAV:   1    -0.833402754437E+03   -0.41707E-03   -0.13848E-01  4260   0.455E-01    0.812E-02
DAV:   2    -0.833402933884E+03   -0.17945E-03   -0.21665E-03  4430   0.535E-02    0.648E-02
DAV:   3    -0.833402920974E+03    0.12910E-04   -0.39533E-05  5040   0.102E-02    0.495E-02
DAV:   4    -0.833402940875E+03   -0.19901E-04   -0.12161E-04  4360   0.145E-02    0.981E-03
DAV:   5    -0.833402939909E+03    0.96598E-06   -0.15385E-05  4560   0.589E-03    0.779E-03
DAV:   6    -0.833402938818E+03    0.10905E-05   -0.55172E-06  3960   0.346E-03    0.342E-03
DAV:   7    -0.833402938640E+03    0.17825E-06   -0.85371E-07  3540   0.141E-03
  64 F= -.84103614E+03 E0= -.84103614E+03  d E =-.594955E-03  mag=    -0.0000
       N       E                     dE             d eps       ncg     rms          rms(c)
DAV:   1    -0.833403428613E+03   -0.48979E-03   -0.20874E-01  4260   0.558E-01    0.999E-02
DAV:   2    -0.833403688717E+03   -0.26010E-03   -0.31892E-03  4480   0.651E-02    0.807E-02
DAV:   3    -0.833403665062E+03    0.23656E-04   -0.60398E-05  5020   0.126E-02    0.612E-02
DAV:   4    -0.833403690378E+03   -0.25317E-04   -0.19964E-04  4420   0.185E-02    0.123E-02
DAV:   5    -0.833403688613E+03    0.17654E-05   -0.25104E-05  4500   0.749E-03    0.974E-03
DAV:   6    -0.833403686964E+03    0.16490E-05   -0.85127E-06  4180   0.432E-03    0.429E-03
DAV:   7    -0.833403686665E+03    0.29872E-06   -0.13360E-06  3720   0.175E-03
  65 F= -.84103688E+03 E0= -.84103688E+03  d E =-.737021E-03  mag=     0.0000
       N       E                     dE             d eps       ncg     rms          rms(c)
DAV:   1    -0.833404203460E+03   -0.51650E-03   -0.30995E-01  4260   0.685E-01    0.124E-01
DAV:   2    -0.833404591343E+03   -0.38788E-03   -0.47744E-03  4480   0.805E-02    0.991E-02
DAV:   3    -0.833404556752E+03    0.34591E-04   -0.91831E-05  5020   0.160E-02    0.749E-02
DAV:   4    -0.833404593984E+03   -0.37232E-04   -0.28182E-04  4530   0.225E-02    0.147E-02
DAV:   5    -0.833404591906E+03    0.20783E-05   -0.36303E-05  4540   0.922E-03    0.116E-02
DAV:   6    -0.833404589563E+03    0.23427E-05   -0.11805E-05  4210   0.517E-03    0.523E-03
DAV:   7    -0.833404589142E+03    0.42089E-06   -0.20446E-06  3820   0.218E-03
  66 F= -.84103777E+03 E0= -.84103777E+03  d E =-.889675E-03  mag=    -0.0000
       N       E                     dE             d eps       ncg     rms          rms(c)
DAV:   1    -0.833405014060E+03   -0.42450E-03   -0.46570E-01  4240   0.863E-01    0.152E-01
DAV:   2    -0.833405622420E+03   -0.60836E-03   -0.74258E-03  4495   0.104E-01    0.122E-01
DAV:   3    -0.833405565817E+03    0.56603E-04   -0.14846E-04  5040   0.206E-02    0.924E-02
DAV:   4    -0.833405608970E+03   -0.43153E-04   -0.44790E-04  4530   0.299E-02    0.191E-02
DAV:   5    -0.833405606900E+03    0.20695E-05   -0.58480E-05  4580   0.120E-02    0.149E-02
DAV:   6    -0.833405603411E+03    0.34895E-05   -0.20118E-05  4420   0.685E-03    0.654E-03
DAV:   7    -0.833405602863E+03    0.54748E-06   -0.30366E-06  3960   0.274E-03
  67 F= -.84103876E+03 E0= -.84103876E+03  d E =-.988824E-03  mag=     0.0000
       N       E                     dE             d eps       ncg     rms          rms(c)
DAV:   1    -0.833405496047E+03    0.10736E-03   -0.65768E-01  4240   0.113E+00    0.183E-01
DAV:   2    -0.833406430146E+03   -0.93410E-03   -0.11363E-02  4500   0.142E-01    0.148E-01
DAV:   3    -0.833406334826E+03    0.95320E-04   -0.25063E-04  5040   0.287E-02    0.113E-01
DAV:   4    -0.833406365095E+03   -0.30269E-04   -0.63382E-04  4470   0.412E-02    0.257E-02
DAV:   5    -0.833406365491E+03   -0.39631E-06   -0.94470E-05  4600   0.165E-02    0.186E-02
DAV:   6    -0.833406362612E+03    0.28789E-05   -0.31218E-05  4650   0.892E-03    0.798E-03
DAV:   7    -0.833406362079E+03    0.53296E-06   -0.30040E-06  3950   0.317E-03
  68 F= -.84103948E+03 E0= -.84103948E+03  d E =-.726357E-03  mag=    -0.0000
       N       E                     dE             d eps       ncg     rms          rms(c)
DAV:   1    -0.833406988271E+03   -0.62566E-03   -0.29984E-02  4320   0.354E-01    0.393E-02
DAV:   2    -0.833407041746E+03   -0.53475E-04   -0.75232E-04  5320   0.515E-02    0.349E-02
DAV:   3    -0.833407026510E+03    0.15236E-04   -0.34507E-05  5760   0.112E-02    0.259E-02
DAV:   4    -0.833407013948E+03    0.12562E-04   -0.27877E-05  4360   0.114E-02    0.106E-02
DAV:   5    -0.833407013469E+03    0.47850E-06   -0.82642E-06  4270   0.517E-03
  69 F= -.84104014E+03 E0= -.84104014E+03  d E =-.651628E-03  mag=    -0.0000
       N       E                     dE             d eps       ncg     rms          rms(c)
DAV:   1    -0.833406592667E+03    0.42128E-03   -0.30857E-02  4240   0.356E-01    0.400E-02
DAV:   2    -0.833406648527E+03   -0.55860E-04   -0.75598E-04  5320   0.511E-02    0.347E-02
DAV:   3    -0.833406635018E+03    0.13509E-04   -0.33600E-05  5600   0.111E-02    0.259E-02
DAV:   4    -0.833406624738E+03    0.10280E-04   -0.28533E-05  4320   0.114E-02    0.103E-02
DAV:   5    -0.833406624645E+03    0.93052E-07   -0.75310E-06  4180   0.498E-03
  70 F= -.84103975E+03 E0= -.84103975E+03  d E =0.389150E-03  mag=     0.0000
       N       E                     dE             d eps       ncg     rms          rms(c)
DAV:   1    -0.833406836738E+03   -0.21200E-03   -0.14669E-03  4300   0.783E-02    0.890E-03
DAV:   2    -0.833406839111E+03   -0.23730E-05   -0.38521E-05  5320   0.116E-02    0.816E-03
DAV:   3    -0.833406838150E+03    0.96027E-06   -0.16506E-06  2780   0.264E-03
  71 F= -.84103996E+03 E0= -.84103996E+03  d E =-.213659E-03  mag=     0.0000
       N       E                     dE             d eps       ncg     rms          rms(c)
DAV:   1    -0.833407074386E+03   -0.23528E-03   -0.44386E-03  4240   0.136E-01    0.166E-02
DAV:   2    -0.833407081404E+03   -0.70174E-05   -0.10455E-04  5420   0.192E-02    0.146E-02
DAV:   3    -0.833407078641E+03    0.27627E-05   -0.55246E-06  5020   0.461E-03    0.103E-02
DAV:   4    -0.833407076948E+03    0.16934E-05   -0.45785E-06  4140   0.466E-03    0.388E-03
DAV:   5    -0.833407076904E+03    0.43146E-07   -0.12265E-06  2880   0.199E-03
  72 F= -.84104020E+03 E0= -.84104020E+03  d E =-.238772E-03  mag=    -0.0000
       N       E                     dE             d eps       ncg     rms          rms(c)
DAV:   1    -0.833407136622E+03   -0.59674E-04   -0.64036E-03  4240   0.164E-01    0.183E-02
DAV:   2    -0.833407148394E+03   -0.11772E-04   -0.16115E-04  5360   0.237E-02    0.160E-02
DAV:   3    -0.833407145340E+03    0.30534E-05   -0.75273E-06  5260   0.523E-03    0.118E-02
DAV:   4    -0.833407143066E+03    0.22740E-05   -0.57468E-06  4200   0.514E-03    0.494E-03
DAV:   5    -0.833407142978E+03    0.88228E-07   -0.15360E-06  2960   0.229E-03
  73 F= -.84104026E+03 E0= -.84104026E+03  d E =-.656544E-04  mag=    -0.0000
       N       E                     dE             d eps       ncg     rms          rms(c)
DAV:   1    -0.833407146925E+03   -0.38593E-05   -0.55173E-06  4020   0.452E-03    0.110E-03
DAV:   2    -0.833407146925E+03    0.37107E-09   -0.17773E-07  2240   0.828E-04
  74 F= -.84104027E+03 E0= -.84104027E+03  d E =-.381668E-05  mag=     0.0000
       N       E                     dE             d eps       ncg     rms          rms(c)
DAV:   1    -0.833407154286E+03   -0.73611E-05   -0.17894E-05  4180   0.798E-03    0.119E-03
DAV:   2    -0.833407154304E+03   -0.17382E-07   -0.36392E-07  2295   0.112E-03
  75 F= -.84104028E+03 E0= -.84104028E+03  d E =-.715205E-05  mag=     0.0000
       N       E                     dE             d eps       ncg     rms          rms(c)
DAV:   1    -0.833407164367E+03   -0.10080E-04   -0.37692E-05  4275   0.115E-02    0.195E-03
DAV:   2    -0.833407164396E+03   -0.28827E-07   -0.75342E-07  2490   0.161E-03
  76 F= -.84104029E+03 E0= -.84104029E+03  d E =-.979745E-05  mag=     0.0000
       N       E                     dE             d eps       ncg     rms          rms(c)
DAV:   1    -0.833407176228E+03   -0.11861E-04   -0.59380E-05  4260   0.143E-02    0.263E-03
DAV:   2    -0.833407176269E+03   -0.40753E-07   -0.11390E-06  2740   0.196E-03
  77 F= -.84104030E+03 E0= -.84104030E+03  d E =-.115446E-04  mag=     0.0000
       N       E                     dE             d eps       ncg     rms          rms(c)
DAV:   1    -0.833407189231E+03   -0.13003E-04   -0.80156E-05  4260   0.163E-02    0.315E-03
DAV:   2    -0.833407189289E+03   -0.57596E-07   -0.14904E-06  2980   0.219E-03
  78 F= -.84104031E+03 E0= -.84104031E+03  d E =-.127177E-04  mag=     0.0000
       N       E                     dE             d eps       ncg     rms          rms(c)
DAV:   1    -0.833407202824E+03   -0.13592E-04   -0.98801E-05  4260   0.174E-02    0.356E-03
DAV:   2    -0.833407202893E+03   -0.69514E-07   -0.17354E-06  3240   0.230E-03
  79 F= -.84104032E+03 E0= -.84104032E+03  d E =-.133619E-04  mag=     0.0000
       N       E                     dE             d eps       ncg     rms          rms(c)
DAV:   1    -0.833407218827E+03   -0.16004E-04   -0.14034E-04  4260   0.196E-02    0.413E-03
DAV:   2    -0.833407218932E+03   -0.10496E-06   -0.23290E-06  3230   0.252E-03
  80 F= -.84104034E+03 E0= -.84104034E+03  d E =-.158828E-04  mag=     0.0000
       N       E                     dE             d eps       ncg     rms          rms(c)
DAV:   1    -0.833407238388E+03   -0.19561E-04   -0.19519E-04  4260   0.214E-02    0.489E-03
DAV:   2    -0.833407238521E+03   -0.13283E-06   -0.29462E-06  3230   0.262E-03
  81 F= -.84104036E+03 E0= -.84104036E+03  d E =-.194840E-04  mag=     0.0000
       N       E                     dE             d eps       ncg     rms          rms(c)
DAV:   1    -0.833407263697E+03   -0.25309E-04   -0.28131E-04  4260   0.235E-02    0.578E-03
DAV:   2    -0.833407263892E+03   -0.19465E-06   -0.39296E-06  3280   0.274E-03
  82 F= -.84104038E+03 E0= -.84104038E+03  d E =-.253748E-04  mag=     0.0000
       N       E                     dE             d eps       ncg     rms          rms(c)
DAV:   1    -0.833407297088E+03   -0.33392E-04   -0.43540E-04  4260   0.281E-02    0.701E-03
DAV:   2    -0.833407297415E+03   -0.32667E-06   -0.59543E-06  3400   0.320E-03
  83 F= -.84104042E+03 E0= -.84104042E+03  d E =-.336832E-04  mag=     0.0000
       N       E                     dE             d eps       ncg     rms          rms(c)
DAV:   1    -0.833407340225E+03   -0.43137E-04   -0.71282E-04  4260   0.365E-02    0.883E-03
DAV:   2    -0.833407340829E+03   -0.60389E-06   -0.10163E-05  3960   0.424E-03    0.736E-03
DAV:   3    -0.833407340874E+03   -0.44696E-07   -0.51578E-07  3000   0.133E-03
  84 F= -.84104046E+03 E0= -.84104046E+03  d E =-.438762E-04  mag=     0.0000
       N       E                     dE             d eps       ncg     rms          rms(c)
DAV:   1    -0.833407393061E+03   -0.52232E-04   -0.11807E-03  4250   0.477E-02    0.769E-03
DAV:   2    -0.833407394509E+03   -0.14472E-05   -0.17710E-05  4340   0.557E-03    0.635E-03
DAV:   3    -0.833407394461E+03    0.47192E-07   -0.36498E-07  3320   0.113E-03
  85 F= -.84104052E+03 E0= -.84104052E+03  d E =-.542640E-04  mag=     0.0000
       N       E                     dE             d eps       ncg     rms          rms(c)
DAV:   1    -0.833407454098E+03   -0.59590E-04   -0.18921E-03  4240   0.595E-02    0.957E-03
DAV:   2    -0.833407456395E+03   -0.22963E-05   -0.28266E-05  4420   0.688E-03    0.792E-03
DAV:   3    -0.833407456272E+03    0.12289E-06   -0.57864E-07  3515   0.137E-03
  86 F= -.84104058E+03 E0= -.84104058E+03  d E =-.628775E-04  mag=     0.0000
       N       E                     dE             d eps       ncg     rms          rms(c)
DAV:   1    -0.833407527008E+03   -0.70613E-04   -0.28453E-03  4240   0.706E-02    0.118E-02
DAV:   2    -0.833407530335E+03   -0.33278E-05   -0.41219E-05  4420   0.799E-03    0.969E-03
DAV:   3    -0.833407530189E+03    0.14655E-06   -0.83390E-07  3545   0.161E-03
  87 F= -.84104065E+03 E0= -.84104065E+03  d E =-.755898E-04  mag=     0.0000
       N       E                     dE             d eps       ncg     rms          rms(c)
DAV:   1    -0.833407619581E+03   -0.89246E-04   -0.43293E-03  4240   0.855E-02    0.145E-02
DAV:   2    -0.833407624587E+03   -0.50060E-05   -0.62206E-05  4500   0.962E-03    0.118E-02
DAV:   3    -0.833407624368E+03    0.21941E-06   -0.12579E-06  3600   0.193E-03
  88 F= -.84104075E+03 E0= -.84104075E+03  d E =-.962113E-04  mag=     0.0000
       N       E                     dE             d eps       ncg     rms          rms(c)
DAV:   1    -0.833407731730E+03   -0.10714E-03   -0.67342E-03  4240   0.108E-01    0.180E-02
DAV:   2    -0.833407739581E+03   -0.78505E-05   -0.98097E-05  4470   0.122E-02    0.147E-02
DAV:   3    -0.833407739184E+03    0.39610E-06   -0.20376E-06  3640   0.246E-03
  89 F= -.84104087E+03 E0= -.84104087E+03  d E =-.116860E-03  mag=     0.0000
       N       E                     dE             d eps       ncg     rms          rms(c)
DAV:   1    -0.833407867260E+03   -0.12768E-03   -0.10039E-02  4240   0.132E-01    0.222E-02
DAV:   2    -0.833407878788E+03   -0.11528E-04   -0.14548E-04  4475   0.150E-02    0.181E-02
DAV:   3    -0.833407878211E+03    0.57762E-06   -0.30629E-06  3760   0.302E-03
  90 F= -.84104101E+03 E0= -.84104101E+03  d E =-.140592E-03  mag=     0.0000
       N       E                     dE             d eps       ncg     rms          rms(c)
DAV:   1    -0.833408036961E+03   -0.15817E-03   -0.14878E-02  4240   0.159E-01    0.272E-02
DAV:   2    -0.833408053679E+03   -0.16718E-04   -0.21314E-04  4445   0.179E-02    0.221E-02
DAV:   3    -0.833408052847E+03    0.83190E-06   -0.43634E-06  3920   0.360E-03
  91 F= -.84104118E+03 E0= -.84104118E+03  d E =-.174752E-03  mag=     0.0000
       N       E                     dE             d eps       ncg     rms          rms(c)
DAV:   1    -0.833408246035E+03   -0.19236E-03   -0.22544E-02  4240   0.197E-01    0.335E-02
DAV:   2    -0.833408271563E+03   -0.25529E-04   -0.32570E-04  4420   0.222E-02    0.271E-02
DAV:   3    -0.833408270179E+03    0.13841E-05   -0.65682E-06  4260   0.442E-03    0.202E-02
DAV:   4    -0.833408274851E+03   -0.46719E-05   -0.16479E-05  4000   0.582E-03    0.353E-03
DAV:   5    -0.833408274739E+03    0.11238E-06   -0.22180E-06  3360   0.239E-03
  92 F= -.84104140E+03 E0= -.84104140E+03  d E =-.221253E-03  mag=     0.0000
       N       E                     dE             d eps       ncg     rms          rms(c)
DAV:   1    -0.833408497153E+03   -0.22230E-03   -0.33794E-02  4240   0.240E-01    0.401E-02
DAV:   2    -0.833408538559E+03   -0.41406E-04   -0.52414E-04  4400   0.283E-02    0.326E-02
DAV:   3    -0.833408534962E+03    0.35977E-05   -0.10032E-05  4520   0.546E-03    0.248E-02
DAV:   4    -0.833408541106E+03   -0.61444E-05   -0.31473E-05  4130   0.800E-03    0.504E-03
DAV:   5    -0.833408540732E+03    0.37392E-06   -0.40786E-06  3620   0.326E-03
  93 F= -.84104167E+03 E0= -.84104167E+03  d E =-.264278E-03  mag=     0.0000
       N       E                     dE             d eps       ncg     rms          rms(c)
DAV:   1    -0.833408805316E+03   -0.26421E-03   -0.50102E-02  4280   0.291E-01    0.493E-02
DAV:   2    -0.833408866227E+03   -0.60911E-04   -0.77563E-04  4400   0.341E-02    0.397E-02
DAV:   3    -0.833408861059E+03    0.51683E-05   -0.14606E-05  4740   0.653E-03    0.301E-02
DAV:   4    -0.833408870413E+03   -0.93539E-05   -0.45213E-05  4190   0.951E-03    0.610E-03
DAV:   5    -0.833408869919E+03    0.49404E-06   -0.58423E-06  3980   0.385E-03
  94 F= -.84104199E+03 E0= -.84104199E+03  d E =-.326015E-03  mag=     0.0000
       N       E                     dE             d eps       ncg     rms          rms(c)
DAV:   1    -0.833409174419E+03   -0.30401E-03   -0.75345E-02  4280   0.355E-01    0.610E-02
DAV:   2    -0.833409266270E+03   -0.91851E-04   -0.11765E-03  4380   0.417E-02    0.485E-02
DAV:   3    -0.833409258900E+03    0.73703E-05   -0.21947E-05  5000   0.800E-03    0.367E-02
DAV:   4    -0.833409273028E+03   -0.14128E-04   -0.64814E-05  4160   0.114E-02    0.726E-03
DAV:   5    -0.833409272485E+03    0.54268E-06   -0.84639E-06  4300   0.460E-03
  95 F= -.84104239E+03 E0= -.84104239E+03  d E =-.395484E-03  mag=     0.0000
       N       E                     dE             d eps       ncg     rms          rms(c)
DAV:   1    -0.833409604610E+03   -0.33158E-03   -0.11217E-01  4280   0.431E-01    0.746E-02
DAV:   2    -0.833409742738E+03   -0.13813E-03   -0.17659E-03  4380   0.511E-02    0.591E-02
DAV:   3    -0.833409731441E+03    0.11297E-04   -0.32595E-05  5060   0.977E-03    0.448E-02
DAV:   4    -0.833409752646E+03   -0.21205E-04   -0.99716E-05  4310   0.141E-02    0.913E-03
DAV:   5    -0.833409751716E+03    0.93069E-06   -0.12953E-05  4560   0.570E-03    0.717E-03
DAV:   6    -0.833409750865E+03    0.85083E-06   -0.51917E-06  3840   0.346E-03
  96 F= -.84104286E+03 E0= -.84104286E+03  d E =-.469380E-03  mag=     0.0000
       N       E                     dE             d eps       ncg     rms          rms(c)
DAV:   1    -0.833410090675E+03   -0.33896E-03   -0.16139E-01  4240   0.518E-01    0.896E-02
DAV:   2    -0.833410288706E+03   -0.19803E-03   -0.25291E-03  4380   0.611E-02    0.721E-02
DAV:   3    -0.833410270879E+03    0.17828E-04   -0.47018E-05  5010   0.117E-02    0.546E-02
DAV:   4    -0.833410301068E+03   -0.30189E-04   -0.15986E-04  4370   0.176E-02    0.118E-02
DAV:   5    -0.833410298851E+03    0.22177E-05   -0.20235E-05  4480   0.713E-03    0.911E-03
DAV:   6    -0.833410297635E+03    0.12157E-05   -0.92354E-06  4180   0.444E-03    0.367E-03
DAV:   7    -0.833410297489E+03    0.14576E-06   -0.92001E-07  3620   0.150E-03
  97 F= -.84104339E+03 E0= -.84104339E+03  d E =-.529699E-03  mag=     0.0000
       N       E                     dE             d eps       ncg     rms          rms(c)
DAV:   1    -0.833410682808E+03   -0.38517E-03   -0.20866E-01  4240   0.601E-01    0.104E-01
DAV:   2    -0.833410932502E+03   -0.24969E-03   -0.32466E-03  4390   0.710E-02    0.837E-02
DAV:   3    -0.833410910958E+03    0.21544E-04   -0.65022E-05  4880   0.141E-02    0.626E-02
DAV:   4    -0.833410948351E+03   -0.37393E-04   -0.19492E-04  4435   0.201E-02    0.135E-02
DAV:   5    -0.833410945588E+03    0.27633E-05   -0.26389E-05  4480   0.840E-03    0.102E-02
DAV:   6    -0.833410944135E+03    0.14528E-05   -0.11862E-05  4260   0.508E-03    0.416E-03
DAV:   7    -0.833410943981E+03    0.15389E-06   -0.11175E-06  3760   0.170E-03
  98 F= -.84104402E+03 E0= -.84104402E+03  d E =-.627436E-03  mag=     0.0000
       N       E                     dE             d eps       ncg     rms          rms(c)
DAV:   1    -0.833411234483E+03   -0.29035E-03   -0.36191E-01  4260   0.769E-01    0.131E-01
DAV:   2    -0.833411705185E+03   -0.47070E-03   -0.58873E-03  4520   0.923E-02    0.105E-01
DAV:   3    -0.833411658676E+03    0.46509E-04   -0.10902E-04  5060   0.176E-02    0.804E-02
DAV:   4    -0.833411693241E+03   -0.34565E-04   -0.37274E-04  4440   0.265E-02    0.160E-02
DAV:   5    -0.833411692062E+03    0.11795E-05   -0.47576E-05  4520   0.105E-02    0.127E-02
DAV:   6    -0.833411689873E+03    0.21890E-05   -0.13500E-05  4300   0.572E-03    0.586E-03
DAV:   7    -0.833411689400E+03    0.47330E-06   -0.28073E-06  3980   0.255E-03
  99 F= -.84104476E+03 E0= -.84104476E+03  d E =-.739144E-03  mag=     0.0000
       N       E                     dE             d eps       ncg     rms          rms(c)
DAV:   1    -0.833411997929E+03   -0.30806E-03   -0.39263E-01  4240   0.852E-01    0.146E-01
DAV:   2    -0.833412498916E+03   -0.50099E-03   -0.62991E-03  4490   0.102E-01    0.117E-01
DAV:   3    -0.833412454372E+03    0.44544E-04   -0.13755E-04  4840   0.208E-02    0.875E-02
DAV:   4    -0.833412506136E+03   -0.51764E-04   -0.33739E-04  4525   0.284E-02    0.183E-02
DAV:   5    -0.833412502915E+03    0.32212E-05   -0.49352E-05  4540   0.120E-02    0.136E-02
DAV:   6    -0.833412500473E+03    0.24415E-05   -0.21224E-05  4400   0.716E-03    0.578E-03
DAV:   7    -0.833412500239E+03    0.23375E-06   -0.20953E-06  3940   0.246E-03
 100 F= -.84104554E+03 E0= -.84104554E+03  d E =-.780328E-03  mag=     0.0000
       N       E                     dE             d eps       ncg     rms          rms(c)
DAV:   1    -0.833411974642E+03    0.52583E-03   -0.83073E-01  4240   0.122E+00    0.193E-01
DAV:   2    -0.833413194565E+03   -0.12199E-02   -0.14522E-02  4670   0.153E-01    0.160E-01
DAV:   3    -0.833413053985E+03    0.14058E-03   -0.27866E-04  5080   0.288E-02    0.125E-01
DAV:   4    -0.833413036864E+03    0.17121E-04   -0.98747E-04  4500   0.459E-02    0.277E-02
DAV:   5    -0.833413041917E+03   -0.50530E-05   -0.12993E-04  4640   0.177E-02    0.214E-02
DAV:   6    -0.833413038321E+03    0.35963E-05   -0.34858E-05  4680   0.940E-03    0.964E-03
DAV:   7    -0.833413037259E+03    0.10619E-05   -0.50171E-06  4260   0.373E-03    0.618E-03
DAV:   8    -0.833413037109E+03    0.14934E-06   -0.43032E-06  3500   0.319E-03
 101 F= -.84104609E+03 E0= -.84104609E+03  d E =-.553039E-03  mag=     0.0000
       N       E                     dE             d eps       ncg     rms          rms(c)
DAV:   1    -0.833413661825E+03   -0.62457E-03   -0.31067E-02  4380   0.343E-01    0.395E-02
DAV:   2    -0.833413726285E+03   -0.64461E-04   -0.85223E-04  4960   0.512E-02    0.360E-02
DAV:   3    -0.833413714967E+03    0.11318E-04   -0.28340E-05  5660   0.100E-02    0.292E-02
DAV:   4    -0.833413700854E+03    0.14114E-04   -0.27440E-05  4500   0.110E-02    0.126E-02
DAV:   5    -0.833413700482E+03    0.37195E-06   -0.12299E-05  4600   0.628E-03    0.480E-03
DAV:   6    -0.833413700526E+03   -0.44180E-07   -0.11770E-06  3020   0.209E-03
 102 F= -.84104673E+03 E0= -.84104673E+03  d E =-.640544E-03  mag=     0.0000
       N       E                     dE             d eps       ncg     rms          rms(c)
DAV:   1    -0.833413293703E+03    0.40678E-03   -0.25497E-02  4340   0.314E-01    0.374E-02
DAV:   2    -0.833413348171E+03   -0.54468E-04   -0.71319E-04  4780   0.469E-02    0.330E-02
DAV:   3    -0.833413339112E+03    0.90587E-05   -0.25093E-05  5720   0.946E-03    0.265E-02
DAV:   4    -0.833413329823E+03    0.92893E-05   -0.21146E-05  4400   0.991E-03    0.114E-02
DAV:   5    -0.833413329913E+03   -0.90105E-07   -0.88874E-06  4360   0.549E-03
 103 F= -.84104633E+03 E0= -.84104633E+03  d E =0.395596E-03  mag=     0.0000
       N       E                     dE             d eps       ncg     rms          rms(c)
DAV:   1    -0.833413541204E+03   -0.21138E-03   -0.18829E-03  4400   0.808E-02    0.932E-03
DAV:   2    -0.833413544549E+03   -0.33443E-05   -0.49206E-05  4880   0.120E-02    0.873E-03
DAV:   3    -0.833413543747E+03    0.80158E-06   -0.14607E-06  3630   0.241E-03
 104 F= -.84104655E+03 E0= -.84104655E+03  d E =-.218257E-03  mag=     0.0000
       N       E                     dE             d eps       ncg     rms          rms(c)
DAV:   1    -0.833413768403E+03   -0.22385E-03   -0.57791E-03  4420   0.141E-01    0.182E-02
DAV:   2    -0.833413777860E+03   -0.94565E-05   -0.13667E-04  4960   0.201E-02    0.164E-02
DAV:   3    -0.833413775324E+03    0.25358E-05   -0.47530E-06  4680   0.423E-03    0.129E-02
DAV:   4    -0.833413772954E+03    0.23701E-05   -0.70974E-06  4240   0.536E-03    0.459E-03
DAV:   5    -0.833413773059E+03   -0.10520E-06   -0.19015E-06  3420   0.238E-03
 105 F= -.84104679E+03 E0= -.84104679E+03  d E =-.236871E-03  mag=     0.0000
       N       E                     dE             d eps       ncg     rms          rms(c)
DAV:   1    -0.833413805592E+03   -0.32638E-04   -0.85195E-03  4400   0.169E-01    0.197E-02
DAV:   2    -0.833413822219E+03   -0.16626E-04   -0.21372E-04  4840   0.247E-02    0.176E-02
DAV:   3    -0.833413819531E+03    0.26878E-05   -0.62987E-06  5080   0.476E-03    0.143E-02
DAV:   4    -0.833413816698E+03    0.28331E-05   -0.77106E-06  4280   0.551E-03    0.574E-03
DAV:   5    -0.833413816801E+03   -0.10315E-06   -0.25567E-06  3610   0.277E-03
 106 F= -.84104684E+03 E0= -.84104684E+03  d E =-.516276E-04  mag=     0.0000
       N       E                     dE             d eps       ncg     rms          rms(c)
DAV:   1    -0.833413821668E+03   -0.49703E-05   -0.65622E-06  4100   0.476E-03    0.131E-03
DAV:   2    -0.833413821662E+03    0.65484E-08   -0.22231E-07  2350   0.897E-04
 107 F= -.84104684E+03 E0= -.84104684E+03  d E =-.439643E-05  mag=     0.0000
       N       E                     dE             d eps       ncg     rms          rms(c)
DAV:   1    -0.833413830436E+03   -0.87680E-05   -0.25362E-05  4200   0.897E-03    0.141E-03
DAV:   2    -0.833413830461E+03   -0.24855E-07   -0.52485E-07  2700   0.126E-03
 108 F= -.84104685E+03 E0= -.84104685E+03  d E =-.782572E-05  mag=     0.0000
       N       E                     dE             d eps       ncg     rms          rms(c)
DAV:   1    -0.833413842161E+03   -0.11724E-04   -0.61324E-05  4260   0.134E-02    0.244E-03
DAV:   2    -0.833413842215E+03   -0.54089E-07   -0.12302E-06  3130   0.186E-03
 109 F= -.84104686E+03 E0= -.84104686E+03  d E =-.102328E-04  mag=     0.0000
       N       E                     dE             d eps       ncg     rms          rms(c)
DAV:   1    -0.833413855425E+03   -0.13265E-04   -0.11651E-04  4260   0.174E-02    0.351E-03
DAV:   2    -0.833413855502E+03   -0.77176E-07   -0.21742E-06  3290   0.235E-03
 110 F= -.84104687E+03 E0= -.84104687E+03  d E =-.111651E-04  mag=     0.0000
       N       E                     dE             d eps       ncg     rms          rms(c)
DAV:   1    -0.833413869124E+03   -0.13699E-04   -0.19796E-04  4260   0.210E-02    0.456E-03
DAV:   2    -0.833413869236E+03   -0.11201E-06   -0.34178E-06  3320   0.275E-03
 111 F= -.84104689E+03 E0= -.84104688E+03  d E =-.109887E-04  mag=     0.0000
       N       E                     dE             d eps       ncg     rms          rms(c)
DAV:   1    -0.833413882698E+03   -0.13574E-04   -0.31634E-04  4260   0.243E-02    0.567E-03
DAV:   2    -0.833413882811E+03   -0.11296E-06   -0.50085E-06  3350   0.307E-03
 112 F= -.84104690E+03 E0= -.84104689E+03  d E =-.101778E-04  mag=     0.0000
       N       E                     dE             d eps       ncg     rms          rms(c)
DAV:   1    -0.833413897651E+03   -0.14953E-04   -0.61176E-04  4240   0.309E-02    0.741E-03
DAV:   2    -0.833413897778E+03   -0.12750E-06   -0.89327E-06  3500   0.374E-03
 113 F= -.84104691E+03 E0= -.84104691E+03  d E =-.103785E-04  mag=     0.0000
       N       E                     dE             d eps       ncg     rms          rms(c)
DAV:   1    -0.833413914727E+03   -0.17076E-04   -0.10970E-03  4250   0.384E-02    0.975E-03
DAV:   2    -0.833413914785E+03   -0.58433E-07   -0.14694E-05  3520   0.441E-03    0.710E-03
DAV:   3    -0.833413915213E+03   -0.42802E-06   -0.57961E-07  3160   0.135E-03
 114 F= -.84104692E+03 E0= -.84104692E+03  d E =-.115004E-04  mag=     0.0000
       N       E                     dE             d eps       ncg     rms          rms(c)
DAV:   1    -0.833413936377E+03   -0.21591E-04   -0.18318E-03  4280   0.472E-02    0.914E-03
DAV:   2    -0.833413937411E+03   -0.10347E-05   -0.23136E-05  3830   0.520E-03    0.599E-03
DAV:   3    -0.833413937550E+03   -0.13844E-06   -0.50243E-07  3420   0.109E-03
 115 F= -.84104693E+03 E0= -.84104693E+03  d E =-.148963E-04  mag=     0.0000
       N       E                     dE             d eps       ncg     rms          rms(c)
DAV:   1    -0.833413964444E+03   -0.27033E-04   -0.29732E-03  4280   0.593E-02    0.115E-02
DAV:   2    -0.833413966088E+03   -0.16436E-05   -0.37255E-05  4080   0.648E-03    0.756E-03
DAV:   3    -0.833413966222E+03   -0.13409E-06   -0.74362E-07  3470   0.123E-03
 116 F= -.84104695E+03 E0= -.84104695E+03  d E =-.195449E-04  mag=     0.0000
       N       E                     dE             d eps       ncg     rms          rms(c)
DAV:   1    -0.833414000155E+03   -0.34067E-04   -0.45536E-03  4280   0.746E-02    0.141E-02
DAV:   2    -0.833414002513E+03   -0.23585E-05   -0.57191E-05  4260   0.820E-03    0.941E-03
DAV:   3    -0.833414002802E+03   -0.28841E-06   -0.11089E-06  3400   0.149E-03
 117 F= -.84104698E+03 E0= -.84104698E+03  d E =-.257389E-04  mag=     0.0000
       N       E                     dE             d eps       ncg     rms          rms(c)
DAV:   1    -0.833414041434E+03   -0.38920E-04   -0.67241E-03  4280   0.926E-02    0.170E-02
DAV:   2    -0.833414044959E+03   -0.35258E-05   -0.85454E-05  4280   0.103E-02    0.115E-02
DAV:   3    -0.833414045333E+03   -0.37384E-06   -0.16201E-06  3360   0.186E-03
 118 F= -.84104701E+03 E0= -.84104701E+03  d E =-.295276E-04  mag=     0.0000
       N       E                     dE             d eps       ncg     rms          rms(c)
DAV:   1    -0.833414090793E+03   -0.45834E-04   -0.95405E-03  4280   0.111E-01    0.200E-02
DAV:   2    -0.833414095348E+03   -0.45547E-05   -0.11983E-04  4280   0.123E-02    0.139E-02
DAV:   3    -0.833414095949E+03   -0.60135E-06   -0.21992E-06  3350   0.219E-03
 119 F= -.84104704E+03 E0= -.84104704E+03  d E =-.348930E-04  mag=     0.0000
       N       E                     dE             d eps       ncg     rms          rms(c)
DAV:   1    -0.833414151719E+03   -0.56371E-04   -0.12918E-02  4300   0.129E-01    0.232E-02
DAV:   2    -0.833414157169E+03   -0.54502E-05   -0.15802E-04  4260   0.140E-02    0.163E-02
DAV:   3    -0.833414158052E+03   -0.88339E-06   -0.27828E-06  3360   0.247E-03
 120 F= -.84104708E+03 E0= -.84104708E+03  d E =-.430569E-04  mag=     0.0000
       N       E                     dE             d eps       ncg     rms          rms(c)
DAV:   1    -0.833414230049E+03   -0.72880E-04   -0.16761E-02  4280   0.148E-01    0.266E-02
DAV:   2    -0.833414237484E+03   -0.74352E-05   -0.20640E-04  4260   0.162E-02    0.188E-02
DAV:   3    -0.833414238337E+03   -0.85295E-06   -0.35334E-06  3480   0.283E-03
 121 F= -.84104714E+03 E0= -.84104714E+03  d E =-.576540E-04  mag=     0.0000
       N       E                     dE             d eps       ncg     rms          rms(c)
DAV:   1    -0.833414326555E+03   -0.89070E-04   -0.20996E-02  4280   0.171E-01    0.308E-02
DAV:   2    -0.833414337946E+03   -0.11391E-04   -0.27323E-04  4260   0.191E-02    0.217E-02
DAV:   3    -0.833414338831E+03   -0.88511E-06   -0.46781E-06  3580   0.334E-03
 122 F= -.84104722E+03 E0= -.84104722E+03  d E =-.757325E-04  mag=     0.0000
       N       E                     dE             d eps       ncg     rms          rms(c)
DAV:   1    -0.833414450028E+03   -0.11208E-03   -0.25062E-02  4260   0.189E-01    0.352E-02
DAV:   2    -0.833414465519E+03   -0.15491E-04   -0.34470E-04  4320   0.215E-02    0.248E-02
DAV:   3    -0.833414466768E+03   -0.12488E-05   -0.60259E-06  3720   0.378E-03    0.177E-02
DAV:   4    -0.833414480610E+03   -0.13842E-04   -0.11902E-05  3900   0.489E-03    0.342E-03
DAV:   5    -0.833414480650E+03   -0.39843E-07   -0.13942E-06  3330   0.181E-03
 123 F= -.84104734E+03 E0= -.84104734E+03  d E =-.118017E-03  mag=     0.0000
       N       E                     dE             d eps       ncg     rms          rms(c)
DAV:   1    -0.833414606122E+03   -0.12551E-03   -0.29711E-02  4260   0.209E-01    0.380E-02
DAV:   2    -0.833414631829E+03   -0.25707E-04   -0.46681E-04  4280   0.251E-02    0.275E-02
DAV:   3    -0.833414631158E+03    0.67075E-06   -0.77210E-06  3900   0.444E-03
 124 F= -.84104747E+03 E0= -.84104747E+03  d E =-.131389E-03  mag=     0.0000
       N       E                     dE             d eps       ncg     rms          rms(c)
DAV:   1    -0.833414804244E+03   -0.17242E-03   -0.32920E-02  4260   0.227E-01    0.436E-02
DAV:   2    -0.833414830974E+03   -0.26730E-04   -0.50685E-04  4380   0.262E-02    0.320E-02
DAV:   3    -0.833414832230E+03   -0.12558E-05   -0.10180E-05  4000   0.498E-03    0.230E-02
DAV:   4    -0.833414847471E+03   -0.15240E-04   -0.17025E-05  3970   0.582E-03    0.396E-03
DAV:   5    -0.833414848049E+03   -0.57858E-06   -0.24405E-06  3420   0.230E-03
 125 F= -.84104767E+03 E0= -.84104767E+03  d E =-.203980E-03  mag=     0.0000
       N       E                     dE             d eps       ncg     rms          rms(c)
DAV:   1    -0.833415044789E+03   -0.19732E-03   -0.38874E-02  4280   0.250E-01    0.451E-02
DAV:   2    -0.833415085736E+03   -0.40946E-04   -0.63427E-04  4420   0.298E-02    0.357E-02
DAV:   3    -0.833415082877E+03    0.28593E-05   -0.10976E-05  4110   0.552E-03    0.269E-02
DAV:   4    -0.833415097481E+03   -0.14604E-04   -0.38380E-05  4125   0.844E-03    0.563E-03
DAV:   5    -0.833415097066E+03    0.41475E-06   -0.46957E-06  3580   0.338E-03
 126 F= -.84104791E+03 E0= -.84104791E+03  d E =-.241339E-03  mag=     0.0000
       N       E                     dE             d eps       ncg     rms          rms(c)
DAV:   1    -0.833415340644E+03   -0.24316E-03   -0.49800E-02  4280   0.285E-01    0.503E-02
DAV:   2    -0.833415395894E+03   -0.55249E-04   -0.77647E-04  4385   0.335E-02    0.415E-02
DAV:   3    -0.833415391139E+03    0.47544E-05   -0.14782E-05  4420   0.643E-03    0.315E-02
DAV:   4    -0.833415405527E+03   -0.14388E-04   -0.52027E-05  4205   0.971E-03    0.677E-03
DAV:   5    -0.833415404573E+03    0.95458E-06   -0.64879E-06  3900   0.405E-03
 127 F= -.84104822E+03 E0= -.84104822E+03  d E =-.304612E-03  mag=     0.0000
       N       E                     dE             d eps       ncg     rms          rms(c)
DAV:   1    -0.833415676857E+03   -0.27133E-03   -0.81489E-02  4260   0.354E-01    0.610E-02
DAV:   2    -0.833415771372E+03   -0.94515E-04   -0.12197E-03  4400   0.412E-02    0.514E-02
DAV:   3    -0.833415761199E+03    0.10172E-04   -0.23295E-05  4740   0.776E-03    0.394E-02
DAV:   4    -0.833415775626E+03   -0.14426E-04   -0.88159E-05  4210   0.121E-02    0.811E-03
DAV:   5    -0.833415774251E+03    0.13742E-05   -0.10548E-05  4260   0.495E-03    0.620E-03
DAV:   6    -0.833415773760E+03    0.49167E-06   -0.34883E-06  3580   0.279E-03
 128 F= -.84104859E+03 E0= -.84104859E+03  d E =-.373811E-03  mag=     0.0000
       N       E                     dE             d eps       ncg     rms          rms(c)
DAV:   1    -0.833416056715E+03   -0.28246E-03   -0.14067E-01  4260   0.454E-01    0.770E-02
DAV:   2    -0.833416222288E+03   -0.16557E-03   -0.20627E-03  4480   0.525E-02    0.653E-02
DAV:   3    -0.833416203005E+03    0.19283E-04   -0.38832E-05  4980   0.970E-03    0.504E-02
DAV:   4    -0.833416217334E+03   -0.14329E-04   -0.15622E-04  4340   0.157E-02    0.987E-03
DAV:   5    -0.833416215616E+03    0.17180E-05   -0.18097E-05  4500   0.624E-03    0.781E-03
DAV:   6    -0.833416214743E+03    0.87269E-06   -0.42391E-06  3660   0.316E-03
 129 F= -.84104904E+03 E0= -.84104904E+03  d E =-.452810E-03  mag=     0.0000
       N       E                     dE             d eps       ncg     rms          rms(c)
DAV:   1    -0.833416514884E+03   -0.29927E-03   -0.19253E-01  4260   0.534E-01    0.925E-02
DAV:   2    -0.833416739593E+03   -0.22471E-03   -0.27967E-03  4475   0.614E-02    0.772E-02
DAV:   3    -0.833416715249E+03    0.24344E-04   -0.55977E-05  5020   0.117E-02    0.590E-02
DAV:   4    -0.833416734879E+03   -0.19630E-04   -0.18621E-04  4420   0.176E-02    0.109E-02
DAV:   5    -0.833416733087E+03    0.17925E-05   -0.22107E-05  4460   0.706E-03    0.874E-03
DAV:   6    -0.833416731714E+03    0.13731E-05   -0.54372E-06  4040   0.364E-03    0.426E-03
DAV:   7    -0.833416731333E+03    0.38064E-06   -0.16765E-06  3750   0.188E-03
 130 F= -.84104958E+03 E0= -.84104958E+03  d E =-.532350E-03  mag=     0.0000
       N       E                     dE             d eps       ncg     rms          rms(c)
DAV:   1    -0.833416991692E+03   -0.25998E-03   -0.28850E-01  4260   0.652E-01    0.114E-01
DAV:   2    -0.833417328779E+03   -0.33709E-03   -0.42301E-03  4490   0.753E-02    0.945E-02
DAV:   3    -0.833417286723E+03    0.42056E-04   -0.83378E-05  5040   0.143E-02    0.721E-02
DAV:   4    -0.833417310425E+03   -0.23702E-04   -0.31189E-04  4470   0.223E-02    0.141E-02
DAV:   5    -0.833417307514E+03    0.29105E-05   -0.36018E-05  4460   0.883E-03    0.113E-02
DAV:   6    -0.833417305340E+03    0.21739E-05   -0.93004E-06  4220   0.465E-03    0.539E-03
DAV:   7    -0.833417304693E+03    0.64696E-06   -0.27074E-06  3960   0.237E-03
 131 F= -.84105015E+03 E0= -.84105015E+03  d E =-.574751E-03  mag=     0.0000
       N       E                     dE             d eps       ncg     rms          rms(c)
DAV:   1    -0.833417522551E+03   -0.21721E-03   -0.35918E-01  4240   0.747E-01    0.132E-01
DAV:   2    -0.833417948757E+03   -0.42621E-03   -0.53650E-03  4510   0.871E-02    0.109E-01
DAV:   3    -0.833417896320E+03    0.52437E-04   -0.10784E-04  5040   0.169E-02    0.824E-02
DAV:   4    -0.833417933838E+03   -0.37518E-04   -0.39323E-04  4540   0.261E-02    0.176E-02
DAV:   5    -0.833417928907E+03    0.49315E-05   -0.46836E-05  4460   0.104E-02    0.136E-02
DAV:   6    -0.833417925938E+03    0.29689E-05   -0.17821E-05  4360   0.616E-03    0.584E-03
DAV:   7    -0.833417925427E+03    0.51080E-06   -0.22617E-06  3860   0.232E-03
 132 F= -.84105077E+03 E0= -.84105077E+03  d E =-.616705E-03  mag=     0.0000
       N       E                     dE             d eps       ncg     rms          rms(c)
DAV:   1    -0.833418012403E+03   -0.86465E-04   -0.48700E-01  4240   0.899E-01    0.159E-01
DAV:   2    -0.833418639604E+03   -0.62720E-03   -0.79207E-03  4540   0.109E-01    0.127E-01
DAV:   3    -0.833418569683E+03    0.69920E-04   -0.16302E-04  5020   0.215E-02    0.954E-02
DAV:   4    -0.833418614888E+03   -0.45205E-04   -0.48542E-04  4530   0.312E-02    0.199E-02
DAV:   5    -0.833418613158E+03    0.17303E-05   -0.60720E-05  4480   0.125E-02    0.154E-02
DAV:   6    -0.833418609968E+03    0.31901E-05   -0.23379E-05  4560   0.748E-03    0.667E-03
DAV:   7    -0.833418609564E+03    0.40338E-06   -0.30234E-06  3980   0.281E-03
 133 F= -.84105141E+03 E0= -.84105141E+03  d E =-.645447E-03  mag=     0.0000
       N       E                     dE             d eps       ncg     rms          rms(c)
DAV:   1    -0.833417835419E+03    0.77455E-03   -0.72726E-01  4240   0.122E+00    0.195E-01
DAV:   2    -0.833418908726E+03   -0.10733E-02   -0.13312E-02  4570   0.158E-01    0.156E-01
DAV:   3    -0.833418779363E+03    0.12936E-03   -0.31365E-04  5080   0.321E-02    0.120E-01
DAV:   4    -0.833418791022E+03   -0.11659E-04   -0.74268E-04  4460   0.453E-02    0.302E-02
DAV:   5    -0.833418799995E+03   -0.89732E-05   -0.11091E-04  4580   0.183E-02    0.210E-02
DAV:   6    -0.833418798200E+03    0.17949E-05   -0.35434E-05  4640   0.983E-03    0.936E-03
DAV:   7    -0.833418797518E+03    0.68208E-06   -0.35268E-06  4120   0.362E-03
 134 F= -.84105160E+03 E0= -.84105160E+03  d E =-.183857E-03  mag=     0.0000
       N       E                     dE             d eps       ncg     rms          rms(c)
DAV:   1    -0.833419631266E+03   -0.83307E-03   -0.44551E-02  4340   0.435E-01    0.487E-02
DAV:   2    -0.833419714294E+03   -0.83028E-04   -0.11668E-03  5360   0.646E-02    0.431E-02
DAV:   3    -0.833419692588E+03    0.21705E-04   -0.56977E-05  5680   0.144E-02    0.326E-02
DAV:   4    -0.833419674931E+03    0.17657E-04   -0.38237E-05  4520   0.134E-02    0.152E-02
DAV:   5    -0.833419673728E+03    0.12038E-05   -0.12985E-05  4500   0.693E-03    0.597E-03
DAV:   6    -0.833419673942E+03   -0.21427E-06   -0.13169E-06  2880   0.238E-03
 135 F= -.84105245E+03 E0= -.84105245E+03  d E =-.854552E-03  mag=     0.0000
       N       E                     dE             d eps       ncg     rms          rms(c)
DAV:   1    -0.833419681602E+03   -0.78742E-05   -0.36677E-05  4300   0.109E-02    0.232E-03
DAV:   2    -0.833419681616E+03   -0.13948E-07   -0.81557E-07  2830   0.163E-03
 136 F= -.84105246E+03 E0= -.84105246E+03  d E =-.804409E-05  mag=     0.0000
       N       E                     dE             d eps       ncg     rms          rms(c)
DAV:   1    -0.833419695087E+03   -0.13485E-04   -0.13395E-04  4280   0.202E-02    0.337E-03
DAV:   2    -0.833419695200E+03   -0.11260E-06   -0.25454E-06  3180   0.271E-03
 137 F= -.84105247E+03 E0= -.84105247E+03  d E =-.140803E-04  mag=     0.0000
       N       E                     dE             d eps       ncg     rms          rms(c)
DAV:   1    -0.833419712799E+03   -0.17712E-04   -0.27206E-04  4280   0.271E-02    0.539E-03
DAV:   2    -0.833419712965E+03   -0.16579E-06   -0.50648E-06  3740   0.355E-03
 138 F= -.84105249E+03 E0= -.84105249E+03  d E =-.180660E-04  mag=     0.0000
       N       E                     dE             d eps       ncg     rms          rms(c)
DAV:   1    -0.833419734115E+03   -0.21316E-04   -0.43702E-04  4270   0.315E-02    0.724E-03
DAV:   2    -0.833419734264E+03   -0.14847E-06   -0.73517E-06  3700   0.387E-03
 139 F= -.84105251E+03 E0= -.84105251E+03  d E =-.209500E-04  mag=     0.0000
       N       E                     dE             d eps       ncg     rms          rms(c)
DAV:   1    -0.833419760994E+03   -0.26879E-04   -0.66089E-04  4260   0.356E-02    0.895E-03
DAV:   2    -0.833419761092E+03   -0.97476E-07   -0.10403E-05  3800   0.418E-03    0.706E-03
DAV:   3    -0.833419761508E+03   -0.41597E-06   -0.48351E-07  3020   0.137E-03
 140 F= -.84105254E+03 E0= -.84105254E+03  d E =-.258818E-04  mag=     0.0000
       N       E                     dE             d eps       ncg     rms          rms(c)
DAV:   1    -0.833419794254E+03   -0.33162E-04   -0.98988E-04  4260   0.418E-02    0.755E-03
DAV:   2    -0.833419795077E+03   -0.82324E-06   -0.15464E-05  4040   0.490E-03    0.552E-03
DAV:   3    -0.833419795198E+03   -0.12098E-06   -0.30318E-07  3340   0.100E-03
 141 F= -.84105257E+03 E0= -.84105257E+03  d E =-.311110E-04  mag=     0.0000
       N       E                     dE             d eps       ncg     rms          rms(c)
DAV:   1    -0.833419836949E+03   -0.41872E-04   -0.18560E-03  4260   0.559E-02    0.101E-02
DAV:   2    -0.833419838420E+03   -0.14711E-05   -0.28924E-05  4280   0.660E-03    0.731E-03
DAV:   3    -0.833419838560E+03   -0.14014E-06   -0.53279E-07  3440   0.125E-03
 142 F= -.84105261E+03 E0= -.84105261E+03  d E =-.389200E-04  mag=     0.0000
       N       E                     dE             d eps       ncg     rms          rms(c)
DAV:   1    -0.833419888564E+03   -0.50144E-04   -0.33997E-03  4240   0.731E-02    0.137E-02
DAV:   2    -0.833419890880E+03   -0.23160E-05   -0.51566E-05  4340   0.855E-03    0.973E-03
DAV:   3    -0.833419891247E+03   -0.36674E-06   -0.95348E-07  3420   0.160E-03
 143 F= -.84105265E+03 E0= -.84105265E+03  d E =-.457725E-04  mag=     0.0000
       N       E                     dE             d eps       ncg     rms          rms(c)
DAV:   1    -0.833419951819E+03   -0.60938E-04   -0.59956E-03  4280   0.935E-02    0.180E-02
DAV:   2    -0.833419955387E+03   -0.35682E-05   -0.87678E-05  4400   0.108E-02    0.127E-02
DAV:   3    -0.833419956103E+03   -0.71607E-06   -0.15533E-06  3370   0.196E-03
 144 F= -.84105271E+03 E0= -.84105271E+03  d E =-.548565E-04  mag=     0.0000
       N       E                     dE             d eps       ncg     rms          rms(c)
DAV:   1    -0.833420031608E+03   -0.76221E-04   -0.10488E-02  4260   0.121E-01    0.235E-02
DAV:   2    -0.833420037804E+03   -0.61958E-05   -0.14912E-04  4300   0.139E-02    0.164E-02
DAV:   3    -0.833420038774E+03   -0.97024E-06   -0.26298E-06  3460   0.251E-03
 145 F= -.84105278E+03 E0= -.84105278E+03  d E =-.687642E-04  mag=     0.0000
       N       E                     dE             d eps       ncg     rms          rms(c)
DAV:   1    -0.833420134653E+03   -0.96849E-04   -0.16414E-02  4280   0.152E-01    0.294E-02
DAV:   2    -0.833420144582E+03   -0.99299E-05   -0.22845E-04  4320   0.173E-02    0.208E-02
DAV:   3    -0.833420146066E+03   -0.14839E-05   -0.40131E-06  3520   0.311E-03    0.148E-02
DAV:   4    -0.833420154862E+03   -0.87962E-05   -0.84934E-06  3820   0.406E-03    0.290E-03
DAV:   5    -0.833420154849E+03    0.13642E-07   -0.97899E-07  3340   0.154E-03
 146 F= -.84105288E+03 E0= -.84105288E+03  d E =-.978567E-04  mag=     0.0000
       N       E                     dE             d eps       ncg     rms          rms(c)
DAV:   1    -0.833420270127E+03   -0.11526E-03   -0.24214E-02  4300   0.184E-01    0.345E-02
DAV:   2    -0.833420289010E+03   -0.18883E-04   -0.35290E-04  4300   0.217E-02    0.251E-02
DAV:   3    -0.833420288981E+03    0.29017E-07   -0.58908E-06  3630   0.392E-03
 147 F= -.84105299E+03 E0= -.84105299E+03  d E =-.111434E-03  mag=    -0.0000
       N       E                     dE             d eps       ncg     rms          rms(c)
DAV:   1    -0.833420448930E+03   -0.15992E-03   -0.32925E-02  4280   0.218E-01    0.432E-02
DAV:   2    -0.833420472761E+03   -0.23831E-04   -0.46313E-04  4360   0.248E-02    0.314E-02
DAV:   3    -0.833420474437E+03   -0.16758E-05   -0.89641E-06  4040   0.460E-03    0.223E-02
DAV:   4    -0.833420489185E+03   -0.14748E-04   -0.16432E-05  3980   0.554E-03    0.390E-03
DAV:   5    -0.833420489235E+03   -0.49768E-07   -0.20246E-06  3360   0.214E-03
 148 F= -.84105316E+03 E0= -.84105316E+03  d E =-.175025E-03  mag=     0.0000
       N       E                     dE             d eps       ncg     rms          rms(c)
DAV:   1    -0.833420658929E+03   -0.16974E-03   -0.44902E-02  4280   0.258E-01    0.484E-02
DAV:   2    -0.833420701849E+03   -0.42920E-04   -0.68237E-04  4350   0.305E-02    0.369E-02
DAV:   3    -0.833420699301E+03    0.25475E-05   -0.12162E-05  4390   0.576E-03    0.273E-02
DAV:   4    -0.833420715826E+03   -0.16525E-04   -0.39761E-05  4200   0.847E-03    0.640E-03
DAV:   5    -0.833420715302E+03    0.52472E-06   -0.43989E-06  3580   0.325E-03
 149 F= -.84105337E+03 E0= -.84105337E+03  d E =-.205348E-03  mag=     0.0000
       N       E                     dE             d eps       ncg     rms          rms(c)
DAV:   1    -0.833420911018E+03   -0.19519E-03   -0.59541E-02  4260   0.300E-01    0.561E-02
DAV:   2    -0.833420974297E+03   -0.63278E-04   -0.92364E-04  4370   0.355E-02    0.436E-02
DAV:   3    -0.833420969903E+03    0.43934E-05   -0.16734E-05  4660   0.681E-03    0.326E-02
DAV:   4    -0.833420987943E+03   -0.18040E-04   -0.53921E-05  4300   0.985E-03    0.702E-03
DAV:   5    -0.833420987264E+03    0.67917E-06   -0.62127E-06  3920   0.386E-03
 150 F= -.84105363E+03 E0= -.84105363E+03  d E =-.260376E-03  mag=     0.0000
       N       E                     dE             d eps       ncg     rms          rms(c)
DAV:   1    -0.833421182274E+03   -0.19433E-03   -0.83232E-02  4280   0.357E-01    0.646E-02
DAV:   2    -0.833421276836E+03   -0.94562E-04   -0.12699E-03  4390   0.419E-02    0.522E-02
DAV:   3    -0.833421268217E+03    0.86191E-05   -0.23986E-05  4820   0.815E-03    0.395E-02
DAV:   4    -0.833421286596E+03   -0.18379E-04   -0.84847E-05  4280   0.122E-02    0.845E-03
DAV:   5    -0.833421285370E+03    0.12256E-05   -0.98908E-06  4260   0.489E-03    0.660E-03
DAV:   6    -0.833421284581E+03    0.78972E-06   -0.43594E-06  3700   0.308E-03
 151 F= -.84105392E+03 E0= -.84105392E+03  d E =-.290736E-03  mag=     0.0000
       N       E                     dE             d eps       ncg     rms          rms(c)
DAV:   1    -0.833421502486E+03   -0.21712E-03   -0.11886E-01  4240   0.431E-01    0.752E-02
DAV:   2    -0.833421640867E+03   -0.13838E-03   -0.17618E-03  4440   0.505E-02    0.631E-02
DAV:   3    -0.833421624955E+03    0.15912E-04   -0.35874E-05  5020   0.101E-02    0.478E-02
DAV:   4    -0.833421642255E+03   -0.17300E-04   -0.12990E-04  4420   0.153E-02    0.103E-02
DAV:   5    -0.833421640220E+03    0.20343E-05   -0.15882E-05  4500   0.637E-03    0.773E-03
DAV:   6    -0.833421639422E+03    0.79867E-06   -0.55194E-06  3900   0.350E-03
 152 F= -.84105427E+03 E0= -.84105427E+03  d E =-.353384E-03  mag=     0.0000
       N       E                     dE             d eps       ncg     rms          rms(c)
DAV:   1    -0.833421851196E+03   -0.21098E-03   -0.18471E-01  4240   0.536E-01    0.917E-02
DAV:   2    -0.833422073584E+03   -0.22239E-03   -0.27589E-03  4545   0.631E-02    0.767E-02
DAV:   3    -0.833422049066E+03    0.24518E-04   -0.56327E-05  5020   0.125E-02    0.587E-02
DAV:   4    -0.833422066732E+03   -0.17666E-04   -0.19575E-04  4480   0.191E-02    0.116E-02
DAV:   5    -0.833422064875E+03    0.18573E-05   -0.23943E-05  4500   0.777E-03    0.912E-03
DAV:   6    -0.833422063521E+03    0.13539E-05   -0.62153E-06  4120   0.396E-03    0.432E-03
DAV:   7    -0.833422063140E+03    0.38029E-06   -0.15096E-06  3760   0.192E-03
 153 F= -.84105471E+03 E0= -.84105471E+03  d E =-.440733E-03  mag=     0.0000
       N       E                     dE             d eps       ncg     rms          rms(c)
DAV:   1    -0.833422191447E+03   -0.12793E-03   -0.27150E-01  4240   0.668E-01    0.111E-01
DAV:   2    -0.833422524926E+03   -0.33348E-03   -0.41513E-03  4530   0.800E-02    0.934E-02
DAV:   3    -0.833422483533E+03    0.41393E-04   -0.89240E-05  5060   0.158E-02    0.714E-02
DAV:   4    -0.833422499190E+03   -0.15656E-04   -0.28978E-04  4500   0.241E-02    0.142E-02
DAV:   5    -0.833422497527E+03    0.16628E-05   -0.36554E-05  4500   0.976E-03    0.110E-02
DAV:   6    -0.833422495916E+03    0.16112E-05   -0.86519E-06  4340   0.486E-03    0.521E-03
DAV:   7    -0.833422495469E+03    0.44687E-06   -0.19581E-06  3860   0.226E-03
 154 F= -.84105516E+03 E0= -.84105516E+03  d E =-.444114E-03  mag=     0.0000
       N       E                     dE             d eps       ncg     rms          rms(c)
DAV:   1    -0.833422370542E+03    0.12537E-03   -0.36423E-01  4240   0.848E-01    0.131E-01
DAV:   2    -0.833422842167E+03   -0.47162E-03   -0.59087E-03  4590   0.106E-01    0.112E-01
DAV:   3    -0.833422775778E+03    0.66389E-04   -0.14757E-04  5120   0.216E-02    0.861E-02
DAV:   4    -0.833422786823E+03   -0.11045E-04   -0.42183E-04  4470   0.330E-02    0.207E-02
DAV:   5    -0.833422784717E+03    0.21059E-05   -0.59167E-05  4620   0.135E-02    0.146E-02
DAV:   6    -0.833422783549E+03    0.11681E-05   -0.18770E-05  4660   0.706E-03    0.596E-03
DAV:   7    -0.833422783213E+03    0.33571E-06   -0.16134E-06  3900   0.239E-03
 155 F= -.84105547E+03 E0= -.84105547E+03  d E =-.310113E-03  mag=    -0.0000
       N       E                     dE             d eps       ncg     rms          rms(c)
DAV:   1    -0.833423093044E+03   -0.30950E-03   -0.13560E-02  4260   0.238E-01    0.273E-02
DAV:   2    -0.833423116614E+03   -0.23570E-04   -0.34728E-04  5320   0.351E-02    0.237E-02
DAV:   3    -0.833423109255E+03    0.73585E-05   -0.18880E-05  5500   0.825E-03    0.173E-02
DAV:   4    -0.833423104668E+03    0.45873E-05   -0.11617E-05  4300   0.725E-03    0.837E-03
DAV:   5    -0.833423104342E+03    0.32585E-06   -0.34452E-06  3440   0.356E-03
 156 F= -.84105578E+03 E0= -.84105578E+03  d E =-.312247E-03  mag=     0.0000
       N       E                     dE             d eps       ncg     rms          rms(c)
DAV:   1    -0.833422916497E+03    0.18817E-03   -0.15692E-02  4240   0.253E-01    0.296E-02
DAV:   2    -0.833422943494E+03   -0.26997E-04   -0.38880E-04  5200   0.368E-02    0.248E-02
DAV:   3    -0.833422936082E+03    0.74115E-05   -0.20427E-05  5580   0.864E-03    0.180E-02
DAV:   4    -0.833422932333E+03    0.37498E-05   -0.12417E-05  4380   0.745E-03    0.872E-03
DAV:   5    -0.833422932331E+03    0.18626E-08   -0.35344E-06  3660   0.361E-03
 157 F= -.84105560E+03 E0= -.84105560E+03  d E =0.183989E-03  mag=     0.0000
       N       E                     dE             d eps       ncg     rms          rms(c)
DAV:   1    -0.833423027122E+03   -0.94789E-04   -0.63672E-04  4380   0.515E-02    0.609E-03
DAV:   2    -0.833423028077E+03   -0.95548E-06   -0.17021E-05  5320   0.775E-03    0.552E-03
DAV:   3    -0.833423027602E+03    0.47485E-06   -0.78383E-07  2300   0.188E-03
 158 F= -.84105569E+03 E0= -.84105569E+03  d E =-.968765E-04  mag=     0.0000
       N       E                     dE             d eps       ncg     rms          rms(c)
DAV:   1    -0.833423133834E+03   -0.10576E-03   -0.19319E-03  4280   0.897E-02    0.114E-02
DAV:   2    -0.833423136822E+03   -0.29880E-05   -0.46444E-05  5400   0.129E-02    0.989E-03
DAV:   3    -0.833423135550E+03    0.12721E-05   -0.27172E-06  3670   0.328E-03    0.710E-03
DAV:   4    -0.833423134895E+03    0.65465E-06   -0.28788E-06  3650   0.348E-03
 159 F= -.84105580E+03 E0= -.84105580E+03  d E =-.110280E-03  mag=     0.0000
       N       E                     dE             d eps       ncg     rms          rms(c)
DAV:   1    -0.833423161809E+03   -0.26260E-04   -0.28165E-03  4280   0.108E-01    0.133E-02
DAV:   2    -0.833423166581E+03   -0.47713E-05   -0.70687E-05  5330   0.159E-02    0.115E-02
DAV:   3    -0.833423164867E+03    0.17137E-05   -0.39759E-06  4330   0.388E-03    0.833E-03
DAV:   4    -0.833423163963E+03    0.90421E-06   -0.35998E-06  3860   0.388E-03
 160 F= -.84105584E+03 E0= -.84105584E+03  d E =-.326747E-04  mag=    -0.0000
       N       E                     dE             d eps       ncg     rms          rms(c)
DAV:   1    -0.833423165452E+03   -0.58474E-06   -0.27275E-06  3100   0.327E-03    0.157E-03
DAV:   2    -0.833423165464E+03   -0.12122E-07   -0.16623E-07  2210   0.869E-04
 161 F= -.84105584E+03 E0= -.84105584E+03  d E =-.148766E-05  mag=    -0.0000
       N       E                     dE             d eps       ncg     rms          rms(c)
DAV:   1    -0.833423168519E+03   -0.30676E-05   -0.76882E-06  4040   0.517E-03    0.729E-04
DAV:   2    -0.833423168534E+03   -0.14224E-07   -0.17231E-07  2195   0.800E-04
 162 F= -.84105584E+03 E0= -.84105584E+03  d E =-.304789E-05  mag=    -0.0000
       N       E                     dE             d eps       ncg     rms          rms(c)
DAV:   1    -0.833423172621E+03   -0.41020E-05   -0.16195E-05  4160   0.740E-03    0.121E-03
DAV:   2    -0.833423172640E+03   -0.18372E-07   -0.32466E-07  2230   0.108E-03
 163 F= -.84105584E+03 E0= -.84105584E+03  d E =-.408021E-05  mag=    -0.0000
       N       E                     dE             d eps       ncg     rms          rms(c)
DAV:   1    -0.833423177550E+03   -0.49288E-05   -0.26483E-05  4180   0.928E-03    0.169E-03
DAV:   2    -0.833423177575E+03   -0.25342E-07   -0.48629E-07  2370   0.128E-03
 164 F= -.84105585E+03 E0= -.84105585E+03  d E =-.491573E-05  mag=    -0.0000
       N       E                     dE             d eps       ncg     rms          rms(c)
DAV:   1    -0.833423182970E+03   -0.54203E-05   -0.37903E-05  4260   0.108E-02    0.207E-03
DAV:   2    -0.833423183005E+03   -0.34095E-07   -0.65256E-07  2690   0.143E-03
 165 F= -.84105585E+03 E0= -.84105585E+03  d E =-.542265E-05  mag=    -0.0000
       N       E                     dE             d eps       ncg     rms          rms(c)
DAV:   1    -0.833423188723E+03   -0.57530E-05   -0.49361E-05  4260   0.118E-02    0.242E-03
DAV:   2    -0.833423188763E+03   -0.39734E-07   -0.80300E-07  2920   0.153E-03
 166 F= -.84105586E+03 E0= -.84105586E+03  d E =-.579375E-05  mag=    -0.0000
