<?xml version="1.0" encoding="ISO-8859-1"?>
<modeling>
 <generator>
  <i name="program" type="string">vasp </i>
  <i name="version" type="string">6.4.2  </i>
  <i name="subversion" type="string">20Jul23 (build Aug 26 2025 15:10:52) complex                          parallel </i>
  <i name="platform" type="string">LinuxIFC </i>
  <i name="date" type="string">2025 12 07 </i>
  <i name="time" type="string">12:45:22 </i>
 </generator>
 <incar>
  <i type="int" name="ISTART">     0</i>
  <i type="string" name="ALGO">Normal</i>
  <i type="logical" name="ADDGRID"> T  </i>
  <i type="int" name="ISPIN">     2</i>
  <i type="int" name="IMIX">     4</i>
  <i name="AMIX">      0.20000000</i>
  <i name="BMIX">      0.00010000</i>
  <i name="AMIX_MAG">      0.80000000</i>
  <i name="BMIX_MAG">      0.00010000</i>
  <i type="int" name="ICHARG">     2</i>
  <i type="int" name="NELM">   200</i>
  <i type="int" name="IBRION">     3</i>
  <i name="EDIFF">      0.00000100</i>
  <i name="EDIFFG">     -0.03000000</i>
  <i type="int" name="NSW">  1000</i>
  <i type="int" name="ISIF">     2</i>
  <i type="int" name="ISYM">     0</i>
  <i name="ENCUT">    520.00000000</i>
  <i name="POTIM">      0.00000000</i>
  <v name="MAGMOM">      0.60000000      0.60000000      0.60000000      0.60000000      0.60000000      0.60000000      0.60000000      0.60000000      0.60000000      0.60000000      0.60000000      0.60000000      0.60000000      0.60000000      0.60000000      0.60000000      0.60000000      0.60000000      0.60000000      0.60000000
      0.60000000      0.60000000      0.60000000      0.60000000      0.60000000      0.60000000      0.60000000      0.60000000      0.60000000      0.60000000      0.60000000      0.60000000      0.60000000      0.60000000      0.60000000      0.60000000      0.60000000      0.60000000      0.60000000      0.60000000
      0.60000000      0.60000000      0.60000000      0.60000000      0.60000000      0.60000000      0.60000000      0.60000000      0.60000000      0.60000000      0.60000000      0.60000000      0.60000000      0.60000000      0.60000000      0.60000000      0.60000000      0.60000000      0.60000000      0.60000000
      0.60000000      0.60000000      0.60000000      0.60000000      0.60000000      0.60000000      0.60000000      0.60000000      0.60000000      0.60000000      0.60000000      0.60000000      0.60000000      0.60000000      0.60000000      0.60000000      0.60000000      0.60000000      0.60000000      0.60000000
      0.60000000      0.60000000      0.60000000      0.60000000      0.60000000      0.60000000      0.60000000      0.60000000      0.60000000      0.60000000      0.60000000      0.60000000      0.60000000      0.60000000      0.60000000</v>
  <i type="string" name="LREAL">Auto</i>
  <i type="int" name="ISMEAR">     0</i>
  <i name="SIGMA">      0.05000000</i>
  <i type="logical" name="LWAVE"> F  </i>
  <i type="logical" name="LCHARG"> F  </i>
  <i type="logical" name="LASPH"> T  </i>
  <i type="int" name="IVDW">    12</i>
  <i name="SPRING">     -5.00000000</i>
 </incar>
 <primitive_cell>
  <structure name="primitive_cell" >
   <crystal>
    <varray name="basis" >
     <v>      17.27103806       0.00000000       0.00000000 </v>
     <v>      -8.63551903      14.95715771       0.00000000 </v>
     <v>       0.00000000       0.00000000      15.00000000 </v>
    </varray>
    <i name="volume">   3874.88459904 </i>
    <varray name="rec_basis" >
     <v>       0.05790040       0.03342881       0.00000000 </v>
     <v>       0.00000000       0.06685762       0.00000000 </v>
     <v>       0.00000000       0.00000000       0.06666667 </v>
    </varray>
   </crystal>
   <varray name="positions" >
    <v>       0.00022385       0.00014552       0.49892119 </v>
    <v>       0.99939828       0.14232097       0.49955157 </v>
    <v>       0.99943198       0.28547363       0.49990534 </v>
    <v>       0.99984911       0.42860227       0.50003104 </v>
    <v>       0.99997722       0.57159109       0.49971538 </v>
    <v>       0.00059346       0.71463762       0.49920134 </v>
    <v>       0.00156529       0.85821432       0.49881794 </v>
    <v>       0.14423494       0.00190078       0.49926024 </v>
    <v>       0.14351471       0.14421704       0.49913668 </v>
    <v>       0.14184039       0.28566287       0.49909820 </v>
    <v>       0.14293661       0.42908085       0.49938126 </v>
    <v>       0.14326484       0.57160647       0.49970341 </v>
    <v>       0.14343313       0.71470685       0.49993390 </v>
    <v>       0.14383196       0.85830410       0.49972839 </v>
    <v>       0.28689503       0.00208605       0.49980157 </v>
    <v>       0.28743906       0.14621773       0.49885744 </v>
    <v>       0.28689596       0.29160134       0.49799899 </v>
    <v>       0.28507880       0.42661951       0.49811138 </v>
    <v>       0.28775021       0.57112399       0.49911482 </v>
    <v>       0.28626083       0.71505241       0.49997790 </v>
    <v>       0.28595719       0.85838556       0.50014741 </v>
    <v>       0.42921719       0.00097583       0.50004536 </v>
    <v>       0.43037206       0.14553941       0.49954979 </v>
    <v>       0.42971211       0.28704536       0.49914779 </v>
    <v>       0.42789573       0.85688738       0.49997329 </v>
    <v>       0.57110097       0.99920946       0.49980849 </v>
    <v>       0.57188879       0.14304819       0.50009530 </v>
    <v>       0.57578656       0.28981588       0.49951984 </v>
    <v>       0.57007807       0.85415032       0.49927212 </v>
    <v>       0.71313795       0.99748516       0.49925100 </v>
    <v>       0.71419995       0.14185723       0.50010167 </v>
    <v>       0.71483340       0.28548900       0.50021269 </v>
    <v>       0.71093590       0.42567069       0.49932875 </v>
    <v>       0.71585434       0.57387896       0.49845348 </v>
    <v>       0.71206364       0.85345197       0.49809407 </v>
    <v>       0.85632924       0.99856999       0.49885295 </v>
    <v>       0.85634787       0.14172744       0.49979511 </v>
    <v>       0.85694262       0.28522717       0.50031841 </v>
    <v>       0.85700949       0.42851681       0.50001807 </v>
    <v>       0.85638928       0.57117992       0.49883790 </v>
    <v>       0.85853648       0.71518746       0.49799141 </v>
    <v>       0.85764768       0.85623597       0.49806691 </v>
    <v>       0.04795436       0.09561093       0.49927634 </v>
    <v>       0.04649339       0.23750215       0.49961094 </v>
    <v>       0.04725426       0.38097800       0.49985274 </v>
    <v>       0.04783372       0.52401723       0.49987089 </v>
    <v>       0.04801311       0.66702714       0.49962181 </v>
    <v>       0.04851621       0.81016289       0.49925325 </v>
    <v>       0.04870846       0.95336205       0.49901911 </v>
    <v>       0.19184643       0.09718741       0.49903938 </v>
    <v>       0.19058816       0.23960010       0.49887352 </v>
    <v>       0.18935668       0.38052017       0.49887720 </v>
    <v>       0.19140612       0.52447606       0.49928894 </v>
    <v>       0.19089754       0.66710639       0.49995393 </v>
    <v>       0.19105046       0.81040760       0.50000645 </v>
    <v>       0.19168250       0.95390739       0.49964651 </v>
    <v>       0.33494162       0.09819725       0.49941855 </v>
    <v>       0.33620070       0.24241552       0.49847460 </v>
    <v>       0.33171970       0.52181210       0.49891138 </v>
    <v>       0.33700606       0.67000532       0.49951743 </v>
    <v>       0.33315922       0.81010828       0.50008916 </v>
    <v>       0.33382444       0.95373383       0.50006955 </v>
    <v>       0.47690767       0.09634285       0.49991155 </v>
    <v>       0.47799164       0.24144306       0.49936265 </v>
    <v>       0.47228375       0.80575708       0.49952761 </v>
    <v>       0.47613682       0.95249992       0.50000138 </v>
    <v>       0.61883199       0.09458675       0.50003725 </v>
    <v>       0.62011328       0.23865884       0.50006729 </v>
    <v>       0.61856736       0.80874386       0.49893376 </v>
    <v>       0.61770595       0.95006623       0.49939299 </v>
    <v>       0.76116624       0.09354250       0.49974318 </v>
    <v>       0.76204296       0.23720449       0.50031878 </v>
    <v>       0.76166715       0.38056744       0.50000159 </v>
    <v>       0.75996565       0.52460722       0.49875204 </v>
    <v>       0.76279923       0.66916388       0.49740005 </v>
    <v>       0.76135096       0.80425292       0.49735152 </v>
    <v>       0.76071071       0.94956867       0.49862123 </v>
    <v>       0.90386072       0.09382018       0.49949006 </v>
    <v>       0.90413108       0.23730260       0.50009471 </v>
    <v>       0.90443060       0.38086435       0.50023952 </v>
    <v>       0.90452731       0.52402941       0.49953808 </v>
    <v>       0.90490468       0.66658200       0.49866846 </v>
    <v>       0.90621195       0.81005040       0.49816578 </v>
    <v>       0.90467335       0.95157350       0.49863876 </v>
    <v>       0.46732928       0.35979690       0.50008999 </v>
    <v>       0.40443930       0.55794480       0.50162348 </v>
    <v>       0.64301721       0.53807785       0.50144825 </v>
    <v>       0.58146835       0.73600771       0.49986774 </v>
    <v>       0.55809900       0.58865858       0.49525900 </v>
    <v>       0.47192875       0.49191452       0.50134706 </v>
    <v>       0.42691467       0.71528968       0.49903507 </v>
    <v>       0.71653367       0.71452136       0.49637798 </v>
    <v>       0.33152123       0.38143508       0.49694965 </v>
    <v>       0.62104920       0.38023723       0.49883468 </v>
    <v>       0.52249956       0.53841809       0.53488800 </v>
   </varray>
  </structure>
  <varray name="primitive_index" >
   <v type="int" >        1 </v>
   <v type="int" >        2 </v>
   <v type="int" >        3 </v>
   <v type="int" >        4 </v>
   <v type="int" >        5 </v>
   <v type="int" >        6 </v>
   <v type="int" >        7 </v>
   <v type="int" >        8 </v>
   <v type="int" >        9 </v>
   <v type="int" >       10 </v>
   <v type="int" >       11 </v>
   <v type="int" >       12 </v>
   <v type="int" >       13 </v>
   <v type="int" >       14 </v>
   <v type="int" >       15 </v>
   <v type="int" >       16 </v>
   <v type="int" >       17 </v>
   <v type="int" >       18 </v>
   <v type="int" >       19 </v>
   <v type="int" >       20 </v>
   <v type="int" >       21 </v>
   <v type="int" >       22 </v>
   <v type="int" >       23 </v>
   <v type="int" >       24 </v>
   <v type="int" >       25 </v>
   <v type="int" >       26 </v>
   <v type="int" >       27 </v>
   <v type="int" >       28 </v>
   <v type="int" >       29 </v>
   <v type="int" >       30 </v>
   <v type="int" >       31 </v>
   <v type="int" >       32 </v>
   <v type="int" >       33 </v>
   <v type="int" >       34 </v>
   <v type="int" >       35 </v>
   <v type="int" >       36 </v>
   <v type="int" >       37 </v>
   <v type="int" >       38 </v>
   <v type="int" >       39 </v>
   <v type="int" >       40 </v>
   <v type="int" >       41 </v>
   <v type="int" >       42 </v>
   <v type="int" >       43 </v>
   <v type="int" >       44 </v>
   <v type="int" >       45 </v>
   <v type="int" >       46 </v>
   <v type="int" >       47 </v>
   <v type="int" >       48 </v>
   <v type="int" >       49 </v>
   <v type="int" >       50 </v>
   <v type="int" >       51 </v>
   <v type="int" >       52 </v>
   <v type="int" >       53 </v>
   <v type="int" >       54 </v>
   <v type="int" >       55 </v>
   <v type="int" >       56 </v>
   <v type="int" >       57 </v>
   <v type="int" >       58 </v>
   <v type="int" >       59 </v>
   <v type="int" >       60 </v>
   <v type="int" >       61 </v>
   <v type="int" >       62 </v>
   <v type="int" >       63 </v>
   <v type="int" >       64 </v>
   <v type="int" >       65 </v>
   <v type="int" >       66 </v>
   <v type="int" >       67 </v>
   <v type="int" >       68 </v>
   <v type="int" >       69 </v>
   <v type="int" >       70 </v>
   <v type="int" >       71 </v>
   <v type="int" >       72 </v>
   <v type="int" >       73 </v>
   <v type="int" >       74 </v>
   <v type="int" >       75 </v>
   <v type="int" >       76 </v>
   <v type="int" >       77 </v>
   <v type="int" >       78 </v>
   <v type="int" >       79 </v>
   <v type="int" >       80 </v>
   <v type="int" >       81 </v>
   <v type="int" >       82 </v>
   <v type="int" >       83 </v>
   <v type="int" >       84 </v>
   <v type="int" >       85 </v>
   <v type="int" >       86 </v>
   <v type="int" >       87 </v>
   <v type="int" >       88 </v>
   <v type="int" >       89 </v>
   <v type="int" >       90 </v>
   <v type="int" >       91 </v>
   <v type="int" >       92 </v>
   <v type="int" >       93 </v>
   <v type="int" >       94 </v>
   <v type="int" >       95 </v>
  </varray>
 </primitive_cell>
 <kpoints>
  <generation param="Gamma">
   <v type="int" name="divisions">       2        2        1 </v>
   <v name="usershift">      0.00000000       0.00000000       0.00000000 </v>
   <v name="genvec1">      0.50000000       0.00000000       0.00000000 </v>
   <v name="genvec2">      0.00000000       0.50000000       0.00000000 </v>
   <v name="genvec3">      0.00000000       0.00000000       1.00000000 </v>
   <v name="shift">      0.00000000       0.00000000       0.00000000 </v>
  </generation>
  <varray name="kpointlist" >
   <v>       0.00000000       0.00000000       0.00000000 </v>
   <v>       0.50000000       0.00000000       0.00000000 </v>
   <v>       0.00000000       0.50000000       0.00000000 </v>
   <v>       0.50000000       0.50000000       0.00000000 </v>
  </varray>
  <varray name="weights" >
   <v>       0.25000000 </v>
   <v>       0.25000000 </v>
   <v>       0.25000000 </v>
   <v>       0.25000000 </v>
  </varray>
 </kpoints>
 <parameters>
  <separator name="general" >
   <i type="string" name="SYSTEM">unknown system</i>
   <i type="logical" name="LCOMPAT"> F  </i>
  </separator>
  <separator name="electronic" >
   <i type="string" name="PREC">normal</i>
   <i name="ENMAX">    520.00000000</i>
   <i name="ENAUG">    644.87300000</i>
   <i name="EDIFF">      0.00000100</i>
   <i type="int" name="IALGO">    38</i>
   <i type="int" name="IWAVPR">    11</i>
   <i type="int" name="NBANDS">   265</i>
   <i type="int" name="NBANDSLOW">    -1</i>
   <i type="int" name="NBANDSHIGH">    -1</i>
   <i name="NELECT">    368.00000000</i>
   <i type="int" name="TURBO">     0</i>
   <i type="int" name="IRESTART">     0</i>
   <i type="int" name="NREBOOT">     0</i>
   <i type="int" name="NMIN">     0</i>
   <i name="EREF">      0.00000000</i>
   <separator name="electronic smearing" >
    <i type="int" name="ISMEAR">     0</i>
    <i name="SIGMA">      0.05000000</i>
    <i name="KSPACING">      0.50000000</i>
    <i type="logical" name="KGAMMA"> T  </i>
    <i type="logical" name="KBLOWUP"> T  </i>
   </separator>
   <separator name="electronic projectors" >
    <i type="logical" name="LREAL"> T  </i>
    <v name="ROPT">     -0.00050000     -0.00050000     -0.00050000     -0.00050000</v>
    <i type="int" name="LMAXPAW">  -100</i>
    <i type="int" name="LMAXMIX">     2</i>
    <i type="logical" name="NLSPLINE"> F  </i>
   </separator>
   <separator name="electronic startup" >
    <i type="int" name="ISTART">     0</i>
    <i type="int" name="ICHARG">     2</i>
    <i type="int" name="INIWAV">     1</i>
   </separator>
   <separator name="electronic spin" >
    <i type="int" name="ISPIN">     2</i>
    <i type="logical" name="LNONCOLLINEAR"> F  </i>
    <v name="MAGMOM">      0.60000000      0.60000000      0.60000000      0.60000000      0.60000000      0.60000000      0.60000000      0.60000000      0.60000000      0.60000000      0.60000000      0.60000000      0.60000000      0.60000000      0.60000000      0.60000000      0.60000000      0.60000000      0.60000000      0.60000000
      0.60000000      0.60000000      0.60000000      0.60000000      0.60000000      0.60000000      0.60000000      0.60000000      0.60000000      0.60000000      0.60000000      0.60000000      0.60000000      0.60000000      0.60000000      0.60000000      0.60000000      0.60000000      0.60000000      0.60000000
      0.60000000      0.60000000      0.60000000      0.60000000      0.60000000      0.60000000      0.60000000      0.60000000      0.60000000      0.60000000      0.60000000      0.60000000      0.60000000      0.60000000      0.60000000      0.60000000      0.60000000      0.60000000      0.60000000      0.60000000
      0.60000000      0.60000000      0.60000000      0.60000000      0.60000000      0.60000000      0.60000000      0.60000000      0.60000000      0.60000000      0.60000000      0.60000000      0.60000000      0.60000000      0.60000000      0.60000000      0.60000000      0.60000000      0.60000000      0.60000000
      0.60000000      0.60000000      0.60000000      0.60000000      0.60000000      0.60000000      0.60000000      0.60000000      0.60000000      0.60000000      0.60000000      0.60000000      0.60000000      0.60000000      0.60000000</v>
    <i name="NUPDOWN">     -1.00000000</i>
    <i type="logical" name="LSORBIT"> F  </i>
    <v name="SAXIS">      0.00000000      0.00000000      1.00000000</v>
    <i type="logical" name="LSPIRAL"> F  </i>
    <v name="QSPIRAL">      0.00000000      0.00000000      0.00000000</v>
    <i type="logical" name="LZEROZ"> F  </i>
   </separator>
   <separator name="electronic exchange-correlation" >
    <i type="logical" name="LASPH"> T  </i>
    <i type="logical" name="LMETAGGA"> F  </i>
   </separator>
   <separator name="electronic convergence" >
    <i type="int" name="NELM">   200</i>
    <i type="int" name="NELMDL">    -5</i>
    <i type="int" name="NELMIN">     2</i>
    <i name="ENINI">    520.00000000</i>
    <separator name="electronic convergence detail" >
     <i type="logical" name="LDIAG"> T  </i>
     <i type="logical" name="LSUBROT"> F  </i>
     <i name="WEIMIN">      0.00100000</i>
     <i name="EBREAK">      0.00000000</i>
     <i name="DEPER">      0.30000000</i>
     <i type="int" name="NRMM">     4</i>
     <i name="TIME">      0.40000000</i>
    </separator>
   </separator>
   <separator name="electronic mixer" >
    <i name="AMIX">      0.20000000</i>
    <i name="BMIX">      0.00010000</i>
    <i name="AMIN">      0.10000000</i>
    <i name="AMIX_MAG">      0.80000000</i>
    <i name="BMIX_MAG">      0.00010000</i>
    <separator name="electronic mixer details" >
     <i type="int" name="IMIX">     4</i>
     <i type="logical" name="MIXFIRST"> F  </i>
     <i type="int" name="MAXMIX">   -45</i>
     <i name="WC">    100.00000000</i>
     <i type="int" name="INIMIX">     1</i>
     <i type="int" name="MIXPRE">     1</i>
     <i type="int" name="MREMOVE">     5</i>
    </separator>
   </separator>
   <separator name="electronic dipolcorrection" >
    <i type="logical" name="LDIPOL"> F  </i>
    <i type="logical" name="LMONO"> F  </i>
    <i type="int" name="IDIPOL">     0</i>
    <i name="EPSILON">      1.00000000</i>
    <v name="DIPOL">   -100.00000000   -100.00000000   -100.00000000</v>
    <i name="EFIELD">      0.00000000</i>
   </separator>
  </separator>
  <separator name="grids" >
   <i type="int" name="NGX">    96</i>
   <i type="int" name="NGY">    96</i>
   <i type="int" name="NGZ">    84</i>
   <i type="int" name="NGXF">   192</i>
   <i type="int" name="NGYF">   192</i>
   <i type="int" name="NGZF">   168</i>
   <i type="logical" name="ADDGRID"> T  </i>
  </separator>
  <separator name="ionic" >
   <i type="int" name="NSW">  1000</i>
   <i type="int" name="IBRION">     3</i>
   <i type="int" name="MDALGO">     0</i>
   <i type="int" name="ISIF">     2</i>
   <i name="PSTRESS">      0.00000000</i>
   <i name="EDIFFG">     -0.03000000</i>
   <i type="int" name="NFREE">     0</i>
   <i name="POTIM">      0.00000000</i>
   <i name="SMASS">     -3.00000000</i>
   <i name="SCALEE">      1.00000000</i>
  </separator>
  <separator name="ionic md" >
   <i name="TEBEG">      0.00010000</i>
   <i name="TEEND">      0.00010000</i>
   <i type="int" name="NBLOCK">     1</i>
   <i type="int" name="KBLOCK">  1000</i>
   <i type="int" name="NPACO">   256</i>
   <i name="APACO">     10.00000000</i>
  </separator>
  <separator name="symmetry" >
   <i type="int" name="ISYM">     0</i>
   <i name="SYMPREC">      0.00001000</i>
  </separator>
  <separator name="dos" >
   <i type="int" name="LORBIT">     0</i>
   <v name="RWIGS">     -1.00000000     -1.00000000     -1.00000000     -1.00000000</v>
   <i type="int" name="NEDOS">   301</i>
   <i name="EMIN">     10.00000000</i>
   <i name="EMAX">    -10.00000000</i>
   <i name="EFERMI">      0.00000000</i>
  </separator>
  <separator name="writing" >
   <i type="int" name="NWRITE">     2</i>
   <i type="logical" name="LWAVE"> F  </i>
   <i type="logical" name="LDOWNSAMPLE"> F  </i>
   <i type="logical" name="LCHARG"> F  </i>
   <i type="logical" name="LPARD"> F  </i>
   <i type="logical" name="LVTOT"> F  </i>
   <i type="logical" name="LVHAR"> F  </i>
   <i type="logical" name="LELF"> F  </i>
   <i type="logical" name="LOPTICS"> F  </i>
   <v name="STM">      0.00000000      0.00000000      0.00000000      0.00000000      0.00000000      0.00000000      0.00000000</v>
  </separator>
  <separator name="performance" >
   <i type="int" name="NPAR">     5</i>
   <i type="int" name="NSIM">     4</i>
   <i type="int" name="NBLK">    -1</i>
   <i type="logical" name="LPLANE"> T  </i>
   <i type="logical" name="LSCALAPACK"> T  </i>
   <i type="logical" name="LSCAAWARE"> F  </i>
   <i type="logical" name="LSCALU"> F  </i>
   <i type="logical" name="LASYNC"> F  </i>
   <i type="logical" name="LORBITALREAL"> F  </i>
  </separator>
  <separator name="miscellaneous" >
   <i type="int" name="IDIOT">     3</i>
   <i type="int" name="PHON_NSTRUCT">    -1</i>
   <i type="logical" name="LMUSIC"> F  </i>
   <v name="POMASS">     12.01100000      1.00000000     14.00100000     16.00000000</v>
   <v name="DARWINR">      0.00000000      0.00000000      0.00000000      0.00000000</v>
   <v name="DARWINV">      1.00000000      1.00000000      1.00000000      1.00000000</v>
   <i type="logical" name="LCORR"> T  </i>
  </separator>
  <i type="logical" name="GGA_COMPAT"> T  </i>
  <i type="logical" name="LBERRY"> F  </i>
  <i type="int" name="ICORELEVEL">     0</i>
  <i type="logical" name="LDAU"> F  </i>
  <i type="int" name="I_CONSTRAINED_M">     0</i>
  <separator name="electronic exchange-correlation" >
   <i type="string" name="GGA">--</i>
   <i type="int" name="VOSKOWN">     0</i>
   <i type="logical" name="LHFCALC"> F  </i>
   <i type="string" name="PRECFOCK"></i>
   <i type="logical" name="LSYMGRAD"> F  </i>
   <i type="logical" name="LHFONE"> F  </i>
   <i type="logical" name="LRHFCALC"> F  </i>
   <i type="logical" name="LTHOMAS"> F  </i>
   <i type="logical" name="LMODELHF"> F  </i>
   <i type="logical" name="LFOCKACE"> F  </i>
   <i name="ENCUT4O">     -1.00000000</i>
   <i type="int" name="EXXOEP">     0</i>
   <i type="int" name="FOURORBIT">     0</i>
   <i name="AEXX">      0.00000000</i>
   <i name="HFALPHA">      0.00000000</i>
   <i name="MCALPHA">      0.00000000</i>
   <i name="ALDAX">      1.00000000</i>
   <i name="AGGAX">      1.00000000</i>
   <i name="ALDAC">      1.00000000</i>
   <i name="AGGAC">      1.00000000</i>
   <i type="int" name="NKREDX">     1</i>
   <i type="int" name="NKREDY">     1</i>
   <i type="int" name="NKREDZ">     1</i>
   <i type="logical" name="SHIFTRED"> F  </i>
   <i type="logical" name="ODDONLY"> F  </i>
   <i type="logical" name="EVENONLY"> F  </i>
   <i type="int" name="LMAXFOCK">     0</i>
   <i type="int" name="NMAXFOCKAE">     0</i>
   <i type="logical" name="LFOCKAEDFT"> F  </i>
   <i name="HFSCREEN">      0.00000000</i>
   <i name="HFSCREENC">      0.00000000</i>
   <i type="int" name="NBANDSGWLOW">     0</i>
  </separator>
  <separator name="vdW DFT" >
   <i type="logical" name="LUSE_VDW"> F  </i>
   <i type="int" name="IVDW_NL">     1</i>
   <i type="logical" name="LSPIN_VDW"> F  </i>
   <i name="Zab_VDW">     -0.84910000</i>
   <i name="PARAM1">      0.12340000</i>
   <i name="PARAM2">      1.00000000</i>
   <i name="PARAM3">      0.00000000</i>
  </separator>
  <separator name="model GW" >
   <i type="int" name="MODEL_GW">     0</i>
   <i name="MODEL_EPS0">     24.47295536</i>
   <i name="MODEL_ALPHA">      1.00000000</i>
  </separator>
  <separator name="linear response parameters" >
   <i type="logical" name="LEPSILON"> F  </i>
   <i type="logical" name="LRPA"> F  </i>
   <i type="logical" name="LNABLA"> F  </i>
   <i type="logical" name="LVEL"> F  </i>
   <i name="CSHIFT">      0.10000000</i>
   <i name="OMEGAMAX">     -1.00000000</i>
   <i name="DEG_THRESHOLD">      0.00200000</i>
   <i name="RTIME">     -0.10000000</i>
   <i name="WPLASMAI">      0.00000000</i>
   <v name="DFIELD">      0.00000000      0.00000000      0.00000000</v>
   <v name="WPLASMA">      0.00000000      0.00000000      0.00000000      0.00000000      0.00000000      0.00000000      0.00000000      0.00000000      0.00000000</v>
  </separator>
  <separator name="orbital magnetization" >
   <i type="logical" name="NUCIND"> F  </i>
   <v name="MAGPOS">      0.00000000      0.00000000      0.00000000</v>
   <i type="logical" name="LNICSALL"> T  </i>
   <i type="logical" name="ORBITALMAG"> F  </i>
   <i type="logical" name="LMAGBLOCH"> F  </i>
   <i type="logical" name="LCHIMAG"> F  </i>
   <i type="logical" name="LGAUGE"> T  </i>
   <i type="int" name="MAGATOM">     0</i>
   <v name="MAGDIPOL">      0.00000000      0.00000000      0.00000000</v>
   <v name="AVECCONST">      0.00000000      0.00000000      0.00000000</v>
  </separator>
  <separator name="response functions" >
   <i type="logical" name="LALL_IN_ONE"> F  </i>
   <i type="int" name="IALL_IN_ONE">    -1</i>
   <i type="int" name="NBANDS_WAVE">    -1</i>
   <i type="logical" name="LFINITE_TEMPERATURE"> F  </i>
   <i type="logical" name="LADDER"> F  </i>
   <i type="logical" name="LRPAFORCE"> F  </i>
   <i type="logical" name="LFXC"> F  </i>
   <i type="logical" name="LHARTREE"> T  </i>
   <i type="int" name="IBSE">     0</i>
   <v type="int" name="KPOINT">    -1     0     0     0</v>
   <i type="logical" name="LTCTC"> F  </i>
   <i type="logical" name="LTCTE"> F  </i>
   <i type="logical" name="LTETE"> F  </i>
   <i type="logical" name="LTRIPLET"> F  </i>
   <i type="logical" name="LFXCEPS"> F  </i>
   <i type="logical" name="LFXHEG"> F  </i>
   <i type="int" name="NATURALO">     2</i>
   <i type="logical" name="LHOLEGF"> F  </i>
   <i type="logical" name="L2ORDER"> F  </i>
   <i type="logical" name="LDMP1"> F  </i>
   <i type="logical" name="LMP2LT"> F  </i>
   <i type="logical" name="LSMP2LT"> F  </i>
   <i type="logical" name="LGWLF"> F  </i>
   <i name="ENCUTGW">     -1.60000002</i>
   <i name="ENCUTGWSOFT">     -1.60000002</i>
   <i name="ENCUTLF">     -1.00000000</i>
   <i type="logical" name="LESF_SPLINES"> F  </i>
   <i type="int" name="LMAXMP2">    -1</i>
   <i name="SCISSOR">      0.00000000</i>
   <i type="int" name="NOMEGA">     0</i>
   <i type="int" name="NOMEGAR">     0</i>
   <i type="int" name="NBANDSGW">    -1</i>
   <i type="int" name="NBANDSO">    -1</i>
   <i type="int" name="NBANDSV">    -1</i>
   <i type="int" name="NELMGW">     1</i>
   <i type="int" name="NELMHF">     1</i>
   <i type="int" name="DIM">     3</i>
   <i type="int" name="IESPILON">     4</i>
   <i type="int" name="ANTIRES">     0</i>
   <i name="OMEGAMAX">    -30.00000000</i>
   <i name="OMEGAMIN">    -30.00000000</i>
   <i name="OMEGATL">   -200.00000000</i>
   <i type="int" name="OMEGAGRID">     0</i>
   <i name="CSHIFT">     -0.10000000</i>
   <i type="logical" name="LSELFENERGY"> F  </i>
   <i type="logical" name="LSPECTRAL"> F  </i>
   <i type="logical" name="LSPECTRALGW"> F  </i>
   <i type="logical" name="LSINGLES"> F  </i>
   <i type="logical" name="LFERMIGW"> F  </i>
   <i type="logical" name="ODDONLYGW"> F  </i>
   <i type="logical" name="EVENONLYGW"> F  </i>
   <i type="int" name="NKREDLFX">     1</i>
   <i type="int" name="NKREDLFY">     1</i>
   <i type="int" name="NKREDLFZ">     1</i>
   <i type="int" name="MAXMEM">  2800</i>
   <i type="int" name="TELESCOPE">     0</i>
   <i type="int" name="NTAUPAR">    -1</i>
   <i type="int" name="NOMEGAPAR">    -1</i>
   <i name="DAMP_NEWTON">      0.80000001</i>
   <i name="LAMBDA">      1.00000000</i>
  </separator>
  <separator name="External order field" >
   <i name="OFIELD_KAPPA">      0.00000000</i>
   <v name="OFIELD_K">      0.00000000      0.00000000      0.00000000</v>
   <i name="OFIELD_Q6_NEAR">      0.00000000</i>
   <i name="OFIELD_Q6_FAR">      0.00000000</i>
   <i name="OFIELD_A">      0.00000000</i>
  </separator>
  <separator name="optional k-points parameters" >
   <i type="int" name="KPOINTS_OPT_MODE">     1</i>
   <i type="logical" name="LKPOINTS_OPT"> F  </i>
  </separator>
 </parameters>
 <atominfo>
  <atoms>      95 </atoms>
  <types>       4 </types>
  <array name="atoms" >
   <dimension dim="1">ion</dimension>
   <field type="string">element</field>
   <field type="int">atomtype</field>
   <set>
    <rc><c>C </c><c>   1</c></rc>
    <rc><c>C </c><c>   1</c></rc>
    <rc><c>C </c><c>   1</c></rc>
    <rc><c>C </c><c>   1</c></rc>
    <rc><c>C </c><c>   1</c></rc>
    <rc><c>C </c><c>   1</c></rc>
    <rc><c>C </c><c>   1</c></rc>
    <rc><c>C </c><c>   1</c></rc>
    <rc><c>C </c><c>   1</c></rc>
    <rc><c>C </c><c>   1</c></rc>
    <rc><c>C </c><c>   1</c></rc>
    <rc><c>C </c><c>   1</c></rc>
    <rc><c>C </c><c>   1</c></rc>
    <rc><c>C </c><c>   1</c></rc>
    <rc><c>C </c><c>   1</c></rc>
    <rc><c>C </c><c>   1</c></rc>
    <rc><c>C </c><c>   1</c></rc>
    <rc><c>C </c><c>   1</c></rc>
    <rc><c>C </c><c>   1</c></rc>
    <rc><c>C </c><c>   1</c></rc>
    <rc><c>C </c><c>   1</c></rc>
    <rc><c>C </c><c>   1</c></rc>
    <rc><c>C </c><c>   1</c></rc>
    <rc><c>C </c><c>   1</c></rc>
    <rc><c>C </c><c>   1</c></rc>
    <rc><c>C </c><c>   1</c></rc>
    <rc><c>C </c><c>   1</c></rc>
    <rc><c>C </c><c>   1</c></rc>
    <rc><c>C </c><c>   1</c></rc>
    <rc><c>C </c><c>   1</c></rc>
    <rc><c>C </c><c>   1</c></rc>
    <rc><c>C </c><c>   1</c></rc>
    <rc><c>C </c><c>   1</c></rc>
    <rc><c>C </c><c>   1</c></rc>
    <rc><c>C </c><c>   1</c></rc>
    <rc><c>C </c><c>   1</c></rc>
    <rc><c>C </c><c>   1</c></rc>
    <rc><c>C </c><c>   1</c></rc>
    <rc><c>C </c><c>   1</c></rc>
    <rc><c>C </c><c>   1</c></rc>
    <rc><c>C </c><c>   1</c></rc>
    <rc><c>C </c><c>   1</c></rc>
    <rc><c>C </c><c>   1</c></rc>
    <rc><c>C </c><c>   1</c></rc>
    <rc><c>C </c><c>   1</c></rc>
    <rc><c>C </c><c>   1</c></rc>
    <rc><c>C </c><c>   1</c></rc>
    <rc><c>C </c><c>   1</c></rc>
    <rc><c>C </c><c>   1</c></rc>
    <rc><c>C </c><c>   1</c></rc>
    <rc><c>C </c><c>   1</c></rc>
    <rc><c>C </c><c>   1</c></rc>
    <rc><c>C </c><c>   1</c></rc>
    <rc><c>C </c><c>   1</c></rc>
    <rc><c>C </c><c>   1</c></rc>
    <rc><c>C </c><c>   1</c></rc>
    <rc><c>C </c><c>   1</c></rc>
    <rc><c>C </c><c>   1</c></rc>
    <rc><c>C </c><c>   1</c></rc>
    <rc><c>C </c><c>   1</c></rc>
    <rc><c>C </c><c>   1</c></rc>
    <rc><c>C </c><c>   1</c></rc>
    <rc><c>C </c><c>   1</c></rc>
    <rc><c>C </c><c>   1</c></rc>
    <rc><c>C </c><c>   1</c></rc>
    <rc><c>C </c><c>   1</c></rc>
    <rc><c>C </c><c>   1</c></rc>
    <rc><c>C </c><c>   1</c></rc>
    <rc><c>C </c><c>   1</c></rc>
    <rc><c>C </c><c>   1</c></rc>
    <rc><c>C </c><c>   1</c></rc>
    <rc><c>C </c><c>   1</c></rc>
    <rc><c>C </c><c>   1</c></rc>
    <rc><c>C </c><c>   1</c></rc>
    <rc><c>C </c><c>   1</c></rc>
    <rc><c>C </c><c>   1</c></rc>
    <rc><c>C </c><c>   1</c></rc>
    <rc><c>C </c><c>   1</c></rc>
    <rc><c>C </c><c>   1</c></rc>
    <rc><c>C </c><c>   1</c></rc>
    <rc><c>C </c><c>   1</c></rc>
    <rc><c>C </c><c>   1</c></rc>
    <rc><c>C </c><c>   1</c></rc>
    <rc><c>C </c><c>   1</c></rc>
    <rc><c>H </c><c>   2</c></rc>
    <rc><c>H </c><c>   2</c></rc>
    <rc><c>H </c><c>   2</c></rc>
    <rc><c>H </c><c>   2</c></rc>
    <rc><c>H </c><c>   2</c></rc>
    <rc><c>H </c><c>   2</c></rc>
    <rc><c>N </c><c>   3</c></rc>
    <rc><c>N </c><c>   3</c></rc>
    <rc><c>N </c><c>   3</c></rc>
    <rc><c>N </c><c>   3</c></rc>
    <rc><c>O </c><c>   4</c></rc>
   </set>
  </array>
  <array name="atomtypes" >
   <dimension dim="1">type</dimension>
   <field type="int">atomspertype</field>
   <field type="string">element</field>
   <field>mass</field>
   <field>valence</field>
   <field type="string">pseudopotential</field>
   <set>
    <rc><c>  84</c><c>C </c><c>     12.01100000</c><c>      4.00000000</c><c>  PAW_PBE C 08Apr2002                   </c></rc>
    <rc><c>   6</c><c>H </c><c>      1.00000000</c><c>      1.00000000</c><c>  PAW_PBE H 15Jun2001                   </c></rc>
    <rc><c>   4</c><c>N </c><c>     14.00100000</c><c>      5.00000000</c><c>  PAW_PBE N 08Apr2002                   </c></rc>
    <rc><c>   1</c><c>O </c><c>     16.00000000</c><c>      6.00000000</c><c>  PAW_PBE O 08Apr2002                   </c></rc>
   </set>
  </array>
 </atominfo>
 <structure name="initialpos" >
  <crystal>
   <varray name="basis" >
    <v>      17.27103806       0.00000000       0.00000000 </v>
    <v>      -8.63551903      14.95715771       0.00000000 </v>
    <v>       0.00000000       0.00000000      15.00000000 </v>
   </varray>
   <i name="volume">   3874.88459904 </i>
   <varray name="rec_basis" >
    <v>       0.05790040       0.03342881       0.00000000 </v>
    <v>       0.00000000       0.06685762       0.00000000 </v>
    <v>       0.00000000       0.00000000       0.06666667 </v>
   </varray>
  </crystal>
  <varray name="positions" >
   <v>       0.00022385       0.00014552       0.49892119 </v>
   <v>       0.99939828       0.14232097       0.49955157 </v>
   <v>       0.99943198       0.28547363       0.49990534 </v>
   <v>       0.99984911       0.42860227       0.50003104 </v>
   <v>       0.99997722       0.57159109       0.49971538 </v>
   <v>       0.00059346       0.71463762       0.49920134 </v>
   <v>       0.00156529       0.85821432       0.49881794 </v>
   <v>       0.14423494       0.00190078       0.49926024 </v>
   <v>       0.14351471       0.14421704       0.49913668 </v>
   <v>       0.14184039       0.28566287       0.49909820 </v>
   <v>       0.14293661       0.42908085       0.49938126 </v>
   <v>       0.14326484       0.57160647       0.49970341 </v>
   <v>       0.14343313       0.71470685       0.49993390 </v>
   <v>       0.14383196       0.85830410       0.49972839 </v>
   <v>       0.28689503       0.00208605       0.49980157 </v>
   <v>       0.28743906       0.14621773       0.49885744 </v>
   <v>       0.28689596       0.29160134       0.49799899 </v>
   <v>       0.28507880       0.42661951       0.49811138 </v>
   <v>       0.28775021       0.57112399       0.49911482 </v>
   <v>       0.28626083       0.71505241       0.49997790 </v>
   <v>       0.28595719       0.85838556       0.50014741 </v>
   <v>       0.42921719       0.00097583       0.50004536 </v>
   <v>       0.43037206       0.14553941       0.49954979 </v>
   <v>       0.42971211       0.28704536       0.49914779 </v>
   <v>       0.42789573       0.85688738       0.49997329 </v>
   <v>       0.57110097       0.99920946       0.49980849 </v>
   <v>       0.57188879       0.14304819       0.50009530 </v>
   <v>       0.57578656       0.28981588       0.49951984 </v>
   <v>       0.57007807       0.85415032       0.49927212 </v>
   <v>       0.71313795       0.99748516       0.49925100 </v>
   <v>       0.71419995       0.14185723       0.50010167 </v>
   <v>       0.71483340       0.28548900       0.50021269 </v>
   <v>       0.71093590       0.42567069       0.49932875 </v>
   <v>       0.71585434       0.57387896       0.49845348 </v>
   <v>       0.71206364       0.85345197       0.49809407 </v>
   <v>       0.85632924       0.99856999       0.49885295 </v>
   <v>       0.85634787       0.14172744       0.49979511 </v>
   <v>       0.85694262       0.28522717       0.50031841 </v>
   <v>       0.85700949       0.42851681       0.50001807 </v>
   <v>       0.85638928       0.57117992       0.49883790 </v>
   <v>       0.85853648       0.71518746       0.49799141 </v>
   <v>       0.85764768       0.85623597       0.49806691 </v>
   <v>       0.04795436       0.09561093       0.49927634 </v>
   <v>       0.04649339       0.23750215       0.49961094 </v>
   <v>       0.04725426       0.38097800       0.49985274 </v>
   <v>       0.04783372       0.52401723       0.49987089 </v>
   <v>       0.04801311       0.66702714       0.49962181 </v>
   <v>       0.04851621       0.81016289       0.49925325 </v>
   <v>       0.04870846       0.95336205       0.49901911 </v>
   <v>       0.19184643       0.09718741       0.49903938 </v>
   <v>       0.19058816       0.23960010       0.49887352 </v>
   <v>       0.18935668       0.38052017       0.49887720 </v>
   <v>       0.19140612       0.52447606       0.49928894 </v>
   <v>       0.19089754       0.66710639       0.49995393 </v>
   <v>       0.19105046       0.81040760       0.50000645 </v>
   <v>       0.19168250       0.95390739       0.49964651 </v>
   <v>       0.33494162       0.09819725       0.49941855 </v>
   <v>       0.33620070       0.24241552       0.49847460 </v>
   <v>       0.33171970       0.52181210       0.49891138 </v>
   <v>       0.33700606       0.67000532       0.49951743 </v>
   <v>       0.33315922       0.81010828       0.50008916 </v>
   <v>       0.33382444       0.95373383       0.50006955 </v>
   <v>       0.47690767       0.09634285       0.49991155 </v>
   <v>       0.47799164       0.24144306       0.49936265 </v>
   <v>       0.47228375       0.80575708       0.49952761 </v>
   <v>       0.47613682       0.95249992       0.50000138 </v>
   <v>       0.61883199       0.09458675       0.50003725 </v>
   <v>       0.62011328       0.23865884       0.50006729 </v>
   <v>       0.61856736       0.80874386       0.49893376 </v>
   <v>       0.61770595       0.95006623       0.49939299 </v>
   <v>       0.76116624       0.09354250       0.49974318 </v>
   <v>       0.76204296       0.23720449       0.50031878 </v>
   <v>       0.76166715       0.38056744       0.50000159 </v>
   <v>       0.75996565       0.52460722       0.49875204 </v>
   <v>       0.76279923       0.66916388       0.49740005 </v>
   <v>       0.76135096       0.80425292       0.49735152 </v>
   <v>       0.76071071       0.94956867       0.49862123 </v>
   <v>       0.90386072       0.09382018       0.49949006 </v>
   <v>       0.90413108       0.23730260       0.50009471 </v>
   <v>       0.90443060       0.38086435       0.50023952 </v>
   <v>       0.90452731       0.52402941       0.49953808 </v>
   <v>       0.90490468       0.66658200       0.49866846 </v>
   <v>       0.90621195       0.81005040       0.49816578 </v>
   <v>       0.90467335       0.95157350       0.49863876 </v>
   <v>       0.46732928       0.35979690       0.50008999 </v>
   <v>       0.40443930       0.55794480       0.50162348 </v>
   <v>       0.64301721       0.53807785       0.50144825 </v>
   <v>       0.58146835       0.73600771       0.49986774 </v>
   <v>       0.55809900       0.58865858       0.49525900 </v>
   <v>       0.47192875       0.49191452       0.50134706 </v>
   <v>       0.42691467       0.71528968       0.49903507 </v>
   <v>       0.71653367       0.71452136       0.49637798 </v>
   <v>       0.33152123       0.38143508       0.49694965 </v>
   <v>       0.62104920       0.38023723       0.49883468 </v>
   <v>       0.52249956       0.53841809       0.53488800 </v>
  </varray>
  <varray name="selective"  type="logical" >
   <v type="logical" >  T  T  T </v>
   <v type="logical" >  T  T  T </v>
   <v type="logical" >  T  T  T </v>
   <v type="logical" >  T  T  T </v>
   <v type="logical" >  T  T  T </v>
   <v type="logical" >  T  T  T </v>
   <v type="logical" >  T  T  T </v>
   <v type="logical" >  T  T  T </v>
   <v type="logical" >  T  T  T </v>
   <v type="logical" >  T  T  T </v>
   <v type="logical" >  T  T  T </v>
   <v type="logical" >  T  T  T </v>
   <v type="logical" >  T  T  T </v>
   <v type="logical" >  T  T  T </v>
   <v type="logical" >  T  T  T </v>
   <v type="logical" >  T  T  T </v>
   <v type="logical" >  T  T  T </v>
   <v type="logical" >  T  T  T </v>
   <v type="logical" >  T  T  T </v>
   <v type="logical" >  T  T  T </v>
   <v type="logical" >  T  T  T </v>
   <v type="logical" >  T  T  T </v>
   <v type="logical" >  T  T  T </v>
   <v type="logical" >  T  T  T </v>
   <v type="logical" >  T  T  T </v>
   <v type="logical" >  T  T  T </v>
   <v type="logical" >  T  T  T </v>
   <v type="logical" >  T  T  T </v>
   <v type="logical" >  T  T  T </v>
   <v type="logical" >  T  T  T </v>
   <v type="logical" >  T  T  T </v>
   <v type="logical" >  T  T  T </v>
   <v type="logical" >  T  T  T </v>
   <v type="logical" >  T  T  T </v>
   <v type="logical" >  T  T  T </v>
   <v type="logical" >  T  T  T </v>
   <v type="logical" >  T  T  T </v>
   <v type="logical" >  T  T  T </v>
   <v type="logical" >  T  T  T </v>
   <v type="logical" >  T  T  T </v>
   <v type="logical" >  T  T  T </v>
   <v type="logical" >  T  T  T </v>
   <v type="logical" >  T  T  T </v>
   <v type="logical" >  T  T  T </v>
   <v type="logical" >  T  T  T </v>
   <v type="logical" >  T  T  T </v>
   <v type="logical" >  T  T  T </v>
   <v type="logical" >  T  T  T </v>
   <v type="logical" >  T  T  T </v>
   <v type="logical" >  T  T  T </v>
   <v type="logical" >  T  T  T </v>
   <v type="logical" >  T  T  T </v>
   <v type="logical" >  T  T  T </v>
   <v type="logical" >  T  T  T </v>
   <v type="logical" >  T  T  T </v>
   <v type="logical" >  T  T  T </v>
   <v type="logical" >  T  T  T </v>
   <v type="logical" >  T  T  T </v>
   <v type="logical" >  T  T  T </v>
   <v type="logical" >  T  T  T </v>
   <v type="logical" >  T  T  T </v>
   <v type="logical" >  T  T  T </v>
   <v type="logical" >  T  T  T </v>
   <v type="logical" >  T  T  T </v>
   <v type="logical" >  T  T  T </v>
   <v type="logical" >  T  T  T </v>
   <v type="logical" >  T  T  T </v>
   <v type="logical" >  T  T  T </v>
   <v type="logical" >  T  T  T </v>
   <v type="logical" >  T  T  T </v>
   <v type="logical" >  T  T  T </v>
   <v type="logical" >  T  T  T </v>
   <v type="logical" >  T  T  T </v>
   <v type="logical" >  T  T  T </v>
   <v type="logical" >  T  T  T </v>
   <v type="logical" >  T  T  T </v>
   <v type="logical" >  T  T  T </v>
   <v type="logical" >  T  T  T </v>
   <v type="logical" >  T  T  T </v>
   <v type="logical" >  T  T  T </v>
   <v type="logical" >  T  T  T </v>
   <v type="logical" >  T  T  T </v>
   <v type="logical" >  T  T  T </v>
   <v type="logical" >  T  T  T </v>
   <v type="logical" >  T  T  T </v>
   <v type="logical" >  T  T  T </v>
   <v type="logical" >  T  T  T </v>
   <v type="logical" >  T  T  T </v>
   <v type="logical" >  T  T  T </v>
   <v type="logical" >  T  T  T </v>
   <v type="logical" >  T  T  T </v>
   <v type="logical" >  T  T  T </v>
   <v type="logical" >  T  T  T </v>
   <v type="logical" >  T  T  T </v>
   <v type="logical" >  T  T  T </v>
  </varray>
  <nose>
   <v>      -3.00000000       0.00000000       0.00010000       0.00010000 </v>
  </nose>
 </structure>
 <calculation>
  <scstep>
   <time name="dav">   77.72   78.30</time>
   <time name="total">   83.07   83.70</time>
   <energy>
    <i name="alphaZ">    175.60570339 </i>
    <i name="ewald">  36575.10907015 </i>
    <i name="hartreedc"> -46984.74819048 </i>
    <i name="XCdc">   1231.28665033 </i>
    <i name="pawpsdc">  10290.17603344 </i>
    <i name="pawaedc"> -10344.35078173 </i>
    <i name="eentropy">     -0.04572746 </i>
    <i name="bandstr">  -1591.16546766 </i>
    <i name="atom">  13925.93113153 </i>
    <i name="e_fr_energy">   3277.79842150 </i>
    <i name="e_wo_entrp">   3277.84414897 </i>
    <i name="e_0_energy">   3277.82128523 </i>
   </energy>
  </scstep>
  <scstep>
   <time name="dav">  100.87  101.60</time>
   <time name="total">  100.87  101.60</time>
   <energy>
    <i name="e_fr_energy">   -235.01010165 </i>
    <i name="e_wo_entrp">   -235.01008244 </i>
    <i name="e_0_energy">   -235.01009205 </i>
   </energy>
  </scstep>
  <scstep>
   <time name="dav">   86.68   87.29</time>
   <time name="total">   86.68   87.29</time>
   <energy>
    <i name="e_fr_energy">   -852.99169927 </i>
    <i name="e_wo_entrp">   -852.99082104 </i>
    <i name="e_0_energy">   -852.99126016 </i>
   </energy>
  </scstep>
  <scstep>
   <time name="dav">   87.39   87.98</time>
   <time name="total">   87.39   87.99</time>
   <energy>
    <i name="e_fr_energy">   -875.14356663 </i>
    <i name="e_wo_entrp">   -875.14171969 </i>
    <i name="e_0_energy">   -875.14264316 </i>
   </energy>
  </scstep>
  <scstep>
   <time name="dav">   95.11   95.79</time>
   <time name="total">  100.52  101.23</time>
   <energy>
    <i name="e_fr_energy">   -875.78717076 </i>
    <i name="e_wo_entrp">   -875.78524246 </i>
    <i name="e_0_energy">   -875.78620661 </i>
   </energy>
  </scstep>
  <scstep>
   <time name="dav">   83.57   84.13</time>
   <time name="total">   94.99   95.63</time>
   <energy>
    <i name="e_fr_energy">   -859.37603259 </i>
    <i name="e_wo_entrp">   -859.37166846 </i>
    <i name="e_0_energy">   -859.37385052 </i>
   </energy>
  </scstep>
  <scstep>
   <time name="dav">   83.16   83.70</time>
   <time name="total">   94.25   94.86</time>
   <energy>
    <i name="e_fr_energy">   -838.27720922 </i>
    <i name="e_wo_entrp">   -838.27715592 </i>
    <i name="e_0_energy">   -838.27718257 </i>
   </energy>
  </scstep>
  <scstep>
   <time name="dav">   84.61   85.21</time>
   <time name="total">   95.53   96.20</time>
   <energy>
    <i name="e_fr_energy">   -833.58084038 </i>
    <i name="e_wo_entrp">   -833.58083885 </i>
    <i name="e_0_energy">   -833.58083962 </i>
   </energy>
  </scstep>
  <scstep>
   <time name="dav">   82.47   83.03</time>
   <time name="total">   93.98   94.62</time>
   <energy>
    <i name="e_fr_energy">   -833.49322687 </i>
    <i name="e_wo_entrp">   -833.49322587 </i>
    <i name="e_0_energy">   -833.49322637 </i>
   </energy>
  </scstep>
  <scstep>
   <time name="dav">   80.61   81.12</time>
   <time name="total">   91.70   92.39</time>
   <energy>
    <i name="e_fr_energy">   -833.39689776 </i>
    <i name="e_wo_entrp">   -833.39689664 </i>
    <i name="e_0_energy">   -833.39689720 </i>
   </energy>
  </scstep>
  <scstep>
   <time name="dav">   80.94   81.48</time>
   <time name="total">   92.52   93.16</time>
   <energy>
    <i name="e_fr_energy">   -833.38577682 </i>
    <i name="e_wo_entrp">   -833.38577584 </i>
    <i name="e_0_energy">   -833.38577633 </i>
   </energy>
  </scstep>
  <scstep>
   <time name="dav">   86.81   87.36</time>
   <time name="total">   98.19   98.83</time>
   <energy>
    <i name="e_fr_energy">   -833.38529630 </i>
    <i name="e_wo_entrp">   -833.38529535 </i>
    <i name="e_0_energy">   -833.38529583 </i>
   </energy>
  </scstep>
  <scstep>
   <time name="dav">   85.78   86.35</time>
   <time name="total">   97.07   97.72</time>
   <energy>
    <i name="e_fr_energy">   -833.38518244 </i>
    <i name="e_wo_entrp">   -833.38518148 </i>
    <i name="e_0_energy">   -833.38518196 </i>
   </energy>
  </scstep>
  <scstep>
   <time name="dav">   83.46   84.03</time>
   <time name="total">   94.51   95.16</time>
   <energy>
    <i name="e_fr_energy">   -833.38524977 </i>
    <i name="e_wo_entrp">   -833.38524881 </i>
    <i name="e_0_energy">   -833.38524929 </i>
   </energy>
  </scstep>
  <scstep>
   <time name="dav">   80.58   81.14</time>
   <time name="total">   92.03   92.67</time>
   <energy>
    <i name="e_fr_energy">   -833.38528608 </i>
    <i name="e_wo_entrp">   -833.38528512 </i>
    <i name="e_0_energy">   -833.38528560 </i>
   </energy>
  </scstep>
  <scstep>
   <time name="dav">   83.42   84.01</time>
   <time name="total">   95.24   95.91</time>
   <energy>
    <i name="e_fr_energy">   -833.38528791 </i>
    <i name="e_wo_entrp">   -833.38528695 </i>
    <i name="e_0_energy">   -833.38528743 </i>
   </energy>
  </scstep>
  <scstep>
   <time name="dav">   82.29   82.84</time>
   <time name="total">   88.08   88.67</time>
   <energy>
    <i name="alphaZ">    175.60570339 </i>
    <i name="ewald">  36575.10907015 </i>
    <i name="hartreedc"> -48448.67822381 </i>
    <i name="XCdc">   1280.22084449 </i>
    <i name="pawpsdc">  37187.16091131 </i>
    <i name="pawaedc"> -37252.20581993 </i>
    <i name="eentropy">     -0.00000096 </i>
    <i name="bandstr">  -4276.52890341 </i>
    <i name="atom">  13925.93113153 </i>
    <i name="e_fr_energy">   -833.38528724 </i>
    <i name="e_wo_entrp">   -833.38528628 </i>
    <i name="e_0_energy">   -833.38528676 </i>
   </energy>
  </scstep>
  <structure>
   <crystal>
    <varray name="basis" >
     <v>      17.27103806       0.00000000       0.00000000 </v>
     <v>      -8.63551903      14.95715771       0.00000000 </v>
     <v>       0.00000000       0.00000000      15.00000000 </v>
    </varray>
    <i name="volume">   3874.88459904 </i>
    <varray name="rec_basis" >
     <v>       0.05790040       0.03342881       0.00000000 </v>
     <v>       0.00000000       0.06685762       0.00000000 </v>
     <v>       0.00000000       0.00000000       0.06666667 </v>
    </varray>
   </crystal>
   <varray name="positions" >
    <v>       0.00022385       0.00014552       0.49892119 </v>
    <v>       0.99939828       0.14232097       0.49955157 </v>
    <v>       0.99943198       0.28547363       0.49990534 </v>
    <v>       0.99984911       0.42860227       0.50003104 </v>
    <v>       0.99997722       0.57159109       0.49971538 </v>
    <v>       0.00059346       0.71463762       0.49920134 </v>
    <v>       0.00156529       0.85821432       0.49881794 </v>
    <v>       0.14423494       0.00190078       0.49926024 </v>
    <v>       0.14351471       0.14421704       0.49913668 </v>
    <v>       0.14184039       0.28566287       0.49909820 </v>
    <v>       0.14293661       0.42908085       0.49938126 </v>
    <v>       0.14326484       0.57160647       0.49970341 </v>
    <v>       0.14343313       0.71470685       0.49993390 </v>
    <v>       0.14383196       0.85830410       0.49972839 </v>
    <v>       0.28689503       0.00208605       0.49980157 </v>
    <v>       0.28743906       0.14621773       0.49885744 </v>
    <v>       0.28689596       0.29160134       0.49799899 </v>
    <v>       0.28507880       0.42661951       0.49811138 </v>
    <v>       0.28775021       0.57112399       0.49911482 </v>
    <v>       0.28626083       0.71505241       0.49997790 </v>
    <v>       0.28595719       0.85838556       0.50014741 </v>
    <v>       0.42921719       0.00097583       0.50004536 </v>
    <v>       0.43037206       0.14553941       0.49954979 </v>
    <v>       0.42971211       0.28704536       0.49914779 </v>
    <v>       0.42789573       0.85688738       0.49997329 </v>
    <v>       0.57110097       0.99920946       0.49980849 </v>
    <v>       0.57188879       0.14304819       0.50009530 </v>
    <v>       0.57578656       0.28981588       0.49951984 </v>
    <v>       0.57007807       0.85415032       0.49927212 </v>
    <v>       0.71313795       0.99748516       0.49925100 </v>
    <v>       0.71419995       0.14185723       0.50010167 </v>
    <v>       0.71483340       0.28548900       0.50021269 </v>
    <v>       0.71093590       0.42567069       0.49932875 </v>
    <v>       0.71585434       0.57387896       0.49845348 </v>
    <v>       0.71206364       0.85345197       0.49809407 </v>
    <v>       0.85632924       0.99856999       0.49885295 </v>
    <v>       0.85634787       0.14172744       0.49979511 </v>
    <v>       0.85694262       0.28522717       0.50031841 </v>
    <v>       0.85700949       0.42851681       0.50001807 </v>
    <v>       0.85638928       0.57117992       0.49883790 </v>
    <v>       0.85853648       0.71518746       0.49799141 </v>
    <v>       0.85764768       0.85623597       0.49806691 </v>
    <v>       0.04795436       0.09561093       0.49927634 </v>
    <v>       0.04649339       0.23750215       0.49961094 </v>
    <v>       0.04725426       0.38097800       0.49985274 </v>
    <v>       0.04783372       0.52401723       0.49987089 </v>
    <v>       0.04801311       0.66702714       0.49962181 </v>
    <v>       0.04851621       0.81016289       0.49925325 </v>
    <v>       0.04870846       0.95336205       0.49901911 </v>
    <v>       0.19184643       0.09718741       0.49903938 </v>
    <v>       0.19058816       0.23960010       0.49887352 </v>
    <v>       0.18935668       0.38052017       0.49887720 </v>
    <v>       0.19140612       0.52447606       0.49928894 </v>
    <v>       0.19089754       0.66710639       0.49995393 </v>
    <v>       0.19105046       0.81040760       0.50000645 </v>
    <v>       0.19168250       0.95390739       0.49964651 </v>
    <v>       0.33494162       0.09819725       0.49941855 </v>
    <v>       0.33620070       0.24241552       0.49847460 </v>
    <v>       0.33171970       0.52181210       0.49891138 </v>
    <v>       0.33700606       0.67000532       0.49951743 </v>
    <v>       0.33315922       0.81010828       0.50008916 </v>
    <v>       0.33382444       0.95373383       0.50006955 </v>
    <v>       0.47690767       0.09634285       0.49991155 </v>
    <v>       0.47799164       0.24144306       0.49936265 </v>
    <v>       0.47228375       0.80575708       0.49952761 </v>
    <v>       0.47613682       0.95249992       0.50000138 </v>
    <v>       0.61883199       0.09458675       0.50003725 </v>
    <v>       0.62011328       0.23865884       0.50006729 </v>
    <v>       0.61856736       0.80874386       0.49893376 </v>
    <v>       0.61770595       0.95006623       0.49939299 </v>
    <v>       0.76116624       0.09354250       0.49974318 </v>
    <v>       0.76204296       0.23720449       0.50031878 </v>
    <v>       0.76166715       0.38056744       0.50000159 </v>
    <v>       0.75996565       0.52460722       0.49875204 </v>
    <v>       0.76279923       0.66916388       0.49740005 </v>
    <v>       0.76135096       0.80425292       0.49735152 </v>
    <v>       0.76071071       0.94956867       0.49862123 </v>
    <v>       0.90386072       0.09382018       0.49949006 </v>
    <v>       0.90413108       0.23730260       0.50009471 </v>
    <v>       0.90443060       0.38086435       0.50023952 </v>
    <v>       0.90452731       0.52402941       0.49953808 </v>
    <v>       0.90490468       0.66658200       0.49866846 </v>
    <v>       0.90621195       0.81005040       0.49816578 </v>
    <v>       0.90467335       0.95157350       0.49863876 </v>
    <v>       0.46732928       0.35979690       0.50008999 </v>
    <v>       0.40443930       0.55794480       0.50162348 </v>
    <v>       0.64301721       0.53807785       0.50144825 </v>
    <v>       0.58146835       0.73600771       0.49986774 </v>
    <v>       0.55809900       0.58865858       0.49525900 </v>
    <v>       0.47192875       0.49191452       0.50134706 </v>
    <v>       0.42691467       0.71528968       0.49903507 </v>
    <v>       0.71653367       0.71452136       0.49637798 </v>
    <v>       0.33152123       0.38143508       0.49694965 </v>
    <v>       0.62104920       0.38023723       0.49883468 </v>
    <v>       0.52249956       0.53841809       0.53488800 </v>
   </varray>
  </structure>
  <varray name="forces" >
   <v>       0.00004527       0.00083597      -0.00349761 </v>
   <v>      -0.00069004       0.00096814      -0.00186130 </v>
   <v>      -0.00229443       0.00056209      -0.00079387 </v>
   <v>      -0.00164356      -0.00201423      -0.00096702 </v>
   <v>       0.00216814      -0.00024622      -0.00188037 </v>
   <v>       0.00441900      -0.00103302      -0.00204993 </v>
   <v>       0.00041688       0.00079310      -0.00348512 </v>
   <v>       0.00143216       0.00195428      -0.00155681 </v>
   <v>       0.00167634       0.00240580      -0.00224951 </v>
   <v>       0.00093247       0.00201747      -0.00143196 </v>
   <v>       0.00022476       0.00112786      -0.00086259 </v>
   <v>       0.00236969       0.00208920       0.00019472 </v>
   <v>       0.00505310       0.00332245       0.00032651 </v>
   <v>       0.00309286       0.00030141      -0.00054406 </v>
   <v>       0.00179521      -0.00124370      -0.00008993 </v>
   <v>       0.00141463       0.00221732      -0.00021050 </v>
   <v>       0.00148394       0.00155456      -0.00001549 </v>
   <v>       0.00010747       0.00101492       0.00062541 </v>
   <v>      -0.00241984       0.00046483       0.00084991 </v>
   <v>       0.00336721       0.00060253       0.00100409 </v>
   <v>       0.00747849      -0.00091970      -0.00061586 </v>
   <v>       0.00487365      -0.00008307      -0.00020926 </v>
   <v>       0.00241415       0.00061145       0.00028001 </v>
   <v>       0.00104099       0.00103761       0.00015491 </v>
   <v>       0.00156704      -0.00085094       0.00004405 </v>
   <v>       0.00573133       0.00067489      -0.00013252 </v>
   <v>       0.00556051       0.00122842       0.00044273 </v>
   <v>       0.00343533      -0.00102134      -0.00044465 </v>
   <v>      -0.00030120       0.00049848       0.00018656 </v>
   <v>      -0.00048129       0.00187232      -0.00040564 </v>
   <v>       0.00133154       0.00184343      -0.00015475 </v>
   <v>       0.00271204      -0.00605647      -0.00081252 </v>
   <v>       0.00082368      -0.00362405      -0.00130457 </v>
   <v>      -0.00090287       0.00055277      -0.00090526 </v>
   <v>      -0.00007839       0.00091942      -0.00045681 </v>
   <v>      -0.00109749       0.00045373      -0.00109816 </v>
   <v>      -0.00651380       0.00011663      -0.00124871 </v>
   <v>      -0.00456154      -0.00797916      -0.00055883 </v>
   <v>      -0.00127053      -0.00519022      -0.00181183 </v>
   <v>       0.00035886      -0.00062219      -0.00252904 </v>
   <v>      -0.00073517       0.00025474      -0.00286763 </v>
   <v>      -0.00050926       0.00059325      -0.00302824 </v>
   <v>       0.00011417       0.00020863      -0.00283642 </v>
   <v>       0.00113675      -0.00035453      -0.00139460 </v>
   <v>       0.00065205       0.00132633      -0.00086965 </v>
   <v>      -0.00146148       0.00085491      -0.00169334 </v>
   <v>      -0.00595474       0.00163049      -0.00029483 </v>
   <v>      -0.00145040       0.00039689      -0.00200170 </v>
   <v>      -0.00022304       0.00031890      -0.00331909 </v>
   <v>      -0.00257540      -0.00189646      -0.00151020 </v>
   <v>      -0.00137370      -0.00169865      -0.00246445 </v>
   <v>       0.00018148       0.00026215      -0.00081809 </v>
   <v>       0.00022194       0.00055212      -0.00075865 </v>
   <v>      -0.00253493      -0.00038722      -0.00012254 </v>
   <v>      -0.00614767      -0.00160585       0.00067500 </v>
   <v>      -0.00129593       0.00035418      -0.00053000 </v>
   <v>      -0.00078798       0.00013612      -0.00013736 </v>
   <v>      -0.00013924       0.00025305       0.00031880 </v>
   <v>       0.00038341       0.00066772       0.00063991 </v>
   <v>      -0.00032112       0.00048548      -0.00063022 </v>
   <v>      -0.00279400       0.00219539       0.00034846 </v>
   <v>      -0.00306455       0.00199700       0.00021302 </v>
   <v>      -0.00588456      -0.00027392       0.00049407 </v>
   <v>      -0.00151782       0.00098304       0.00087614 </v>
   <v>       0.00018325       0.00108822      -0.00030817 </v>
   <v>      -0.00358022       0.00160123       0.00064206 </v>
   <v>      -0.00505987      -0.00086129       0.00071638 </v>
   <v>      -0.00505205       0.00238206       0.00039712 </v>
   <v>       0.00101681       0.00078049       0.00028643 </v>
   <v>      -0.00107180       0.00052218       0.00022192 </v>
   <v>       0.00338244       0.00060765      -0.00038373 </v>
   <v>       0.00144837       0.00318598      -0.00056842 </v>
   <v>      -0.00055318       0.01559179      -0.00147606 </v>
   <v>       0.00117923       0.00163966      -0.00175275 </v>
   <v>       0.00088833       0.00111378      -0.00174035 </v>
   <v>       0.00103738       0.00087747      -0.00150017 </v>
   <v>       0.00188961       0.00039466      -0.00088071 </v>
   <v>       0.00360387      -0.00012203      -0.00138750 </v>
   <v>       0.00686144      -0.00036050      -0.00101865 </v>
   <v>       0.00480026       0.00929675      -0.00095956 </v>
   <v>      -0.00089967       0.00258503      -0.00238491 </v>
   <v>      -0.00042830       0.00089213      -0.00257763 </v>
   <v>       0.00098454       0.00041066      -0.00350868 </v>
   <v>      -0.00003161       0.00215458      -0.00156548 </v>
   <v>       0.00148610       0.00062560      -0.00055435 </v>
   <v>      -0.00107433       0.00176064      -0.00018979 </v>
   <v>      -0.00012789       0.00086426       0.00000247 </v>
   <v>       0.00122221       0.00097041       0.00058090 </v>
   <v>      -0.01893752      -0.02004286      -0.01398130 </v>
   <v>      -0.01630954      -0.02008918       0.01640877 </v>
   <v>      -0.00078391       0.00020896      -0.00036846 </v>
   <v>       0.00033886       0.00118510      -0.00093528 </v>
   <v>      -0.00026007       0.00147065       0.00258358 </v>
   <v>       0.00110743       0.00216112      -0.00066306 </v>
   <v>       0.01374925      -0.02130578       0.06865262 </v>
  </varray>
  <varray name="stress" >
   <v>      -2.32620823       0.14492525       0.00893110 </v>
   <v>       0.14492543     -11.10355283      -0.00159072 </v>
   <v>       0.00893099      -0.00159100      -0.26059354 </v>
  </varray>
  <energy>
   <i name="e_fr_energy">   -841.01868161 </i>
   <i name="e_wo_entrp">   -841.01868065 </i>
   <i name="e_0_energy">   -841.01868113 </i>
  </energy>
  <time name="totalsc"> 1772.83 1785.07</time>
 </calculation>
 <calculation>
  <scstep>
   <time name="dav">   76.63   77.13</time>
   <time name="total">   88.26   88.85</time>
   <energy>
    <i name="alphaZ">    175.60570339 </i>
    <i name="ewald">  36574.99563036 </i>
    <i name="hartreedc"> -48448.59247119 </i>
    <i name="XCdc">   1280.21995183 </i>
    <i name="pawpsdc">  37187.67629138 </i>
    <i name="pawaedc"> -37252.72091618 </i>
    <i name="eentropy">     -0.00000096 </i>
    <i name="bandstr">  -4276.50067665 </i>
    <i name="atom">  13925.93113153 </i>
    <i name="e_fr_energy">   -833.38535649 </i>
    <i name="e_wo_entrp">   -833.38535553 </i>
    <i name="e_0_energy">   -833.38535601 </i>
   </energy>
  </scstep>
  <scstep>
   <time name="dav">   74.31   74.76</time>
   <time name="total">   82.89   83.41</time>
   <energy>
    <i name="e_fr_energy">   -833.38535923 </i>
    <i name="e_wo_entrp">   -833.38535827 </i>
    <i name="e_0_energy">   -833.38535875 </i>
   </energy>
  </scstep>
  <scstep>
   <time name="dav">   39.38   39.56</time>
   <time name="total">   43.37   43.57</time>
   <energy>
    <i name="alphaZ">    175.60570339 </i>
    <i name="ewald">  36574.99563036 </i>
    <i name="hartreedc"> -48448.56375256 </i>
    <i name="XCdc">   1280.21853863 </i>
    <i name="pawpsdc">  37187.24532797 </i>
    <i name="pawaedc"> -37252.28964804 </i>
    <i name="eentropy">     -0.00000096 </i>
    <i name="bandstr">  -4276.52828876 </i>
    <i name="atom">  13925.93113153 </i>
    <i name="e_fr_energy">   -833.38535844 </i>
    <i name="e_wo_entrp">   -833.38535748 </i>
    <i name="e_0_energy">   -833.38535796 </i>
   </energy>
  </scstep>
  <structure>
   <crystal>
    <varray name="basis" >
     <v>      17.27103806       0.00000000       0.00000000 </v>
     <v>      -8.63551903      14.95715771       0.00000000 </v>
     <v>       0.00000000       0.00000000      15.00000000 </v>
    </varray>
    <i name="volume">   3874.88459904 </i>
    <varray name="rec_basis" >
     <v>       0.05790040       0.03342881       0.00000000 </v>
     <v>       0.00000000       0.06685762       0.00000000 </v>
     <v>       0.00000000       0.00000000       0.06666667 </v>
    </varray>
   </crystal>
   <varray name="positions" >
    <v>       0.00022433       0.00014627       0.49891905 </v>
    <v>       0.99939834       0.14232178       0.49955042 </v>
    <v>       0.99943096       0.28547416       0.49990488 </v>
    <v>       0.99984758       0.42860108       0.50003049 </v>
    <v>       0.99997850       0.57159108       0.49971426 </v>
    <v>       0.00059581       0.71463710       0.49920016 </v>
    <v>       0.00156596       0.85821503       0.49881584 </v>
    <v>       0.14423658       0.00190226       0.49925930 </v>
    <v>       0.14351663       0.14421881       0.49913533 </v>
    <v>       0.14184171       0.28566436       0.49909744 </v>
    <v>       0.14293719       0.42908175       0.49938091 </v>
    <v>       0.14326700       0.57160802       0.49970370 </v>
    <v>       0.14343729       0.71470924       0.49993417 </v>
    <v>       0.14383399       0.85830447       0.49972807 </v>
    <v>       0.28689580       0.00208538       0.49980151 </v>
    <v>       0.28744077       0.14621939       0.49885746 </v>
    <v>       0.28689745       0.29160250       0.49799932 </v>
    <v>       0.28507922       0.42662033       0.49811222 </v>
    <v>       0.28774901       0.57112446       0.49911571 </v>
    <v>       0.28626308       0.71505296       0.49997865 </v>
    <v>       0.28596133       0.85838510       0.50014697 </v>
    <v>       0.42922011       0.00097592       0.50004519 </v>
    <v>       0.43037380       0.14553996       0.49955004 </v>
    <v>       0.42971326       0.28704625       0.49914806 </v>
    <v>       0.42789648       0.85688694       0.49997336 </v>
    <v>       0.57110464       0.99921005       0.49980844 </v>
    <v>       0.57189255       0.14304915       0.50009559 </v>
    <v>       0.57578836       0.28981534       0.49951969 </v>
    <v>       0.57007820       0.85415079       0.49927244 </v>
    <v>       0.71313843       0.99748657       0.49925089 </v>
    <v>       0.71420146       0.14185862       0.50010157 </v>
    <v>       0.71483307       0.28548510       0.50021216 </v>
    <v>       0.71093528       0.42566844       0.49932810 </v>
    <v>       0.71585409       0.57387952       0.49845322 </v>
    <v>       0.71206409       0.85345279       0.49809415 </v>
    <v>       0.85632893       0.99857048       0.49885244 </v>
    <v>       0.85634426       0.14172768       0.49979433 </v>
    <v>       0.85693743       0.28522199       0.50031804 </v>
    <v>       0.85700713       0.42851350       0.50001694 </v>
    <v>       0.85638939       0.57117968       0.49883650 </v>
    <v>       0.85853629       0.71518783       0.49798988 </v>
    <v>       0.85764778       0.85623658       0.49806525 </v>
    <v>       0.04795465       0.09561125       0.49927458 </v>
    <v>       0.04649404       0.23750207       0.49961011 </v>
    <v>       0.04725517       0.38097904       0.49985228 </v>
    <v>       0.04783326       0.52401796       0.49986988 </v>
    <v>       0.04801032       0.66702839       0.49962174 </v>
    <v>       0.04851565       0.81016333       0.49925206 </v>
    <v>       0.04870860       0.95336244       0.49901707 </v>
    <v>       0.19184446       0.09718631       0.49903852 </v>
    <v>       0.19058692       0.23959912       0.49887209 </v>
    <v>       0.18935692       0.38052048       0.49887693 </v>
    <v>       0.19140650       0.52447658       0.49928870 </v>
    <v>       0.19089604       0.66710628       0.49995393 </v>
    <v>       0.19104649       0.81040668       0.50000690 </v>
    <v>       0.19168201       0.95390780       0.49964619 </v>
    <v>       0.33494134       0.09819750       0.49941852 </v>
    <v>       0.33620088       0.24241588       0.49847506 </v>
    <v>       0.33172014       0.52181266       0.49891216 </v>
    <v>       0.33700612       0.67000579       0.49951724 </v>
    <v>       0.33315845       0.81010990       0.50008941 </v>
    <v>       0.33382346       0.95373532       0.50006965 </v>
    <v>       0.47690430       0.09634281       0.49991188 </v>
    <v>       0.47799123       0.24144385       0.49936337 </v>
    <v>       0.47228434       0.80575793       0.49952759 </v>
    <v>       0.47613541       0.95250113       0.50000181 </v>
    <v>       0.61882890       0.09458632       0.50003772 </v>
    <v>       0.62011128       0.23866057       0.50006757 </v>
    <v>       0.61856841       0.80874456       0.49893422 </v>
    <v>       0.61770564       0.95006671       0.49939327 </v>
    <v>       0.76116853       0.09354307       0.49974298 </v>
    <v>       0.76204499       0.23720677       0.50031839 </v>
    <v>       0.76167216       0.38057802       0.50000069 </v>
    <v>       0.75996699       0.52460851       0.49875119 </v>
    <v>       0.76280028       0.66916483       0.49739937 </v>
    <v>       0.76135207       0.80425372       0.49735100 </v>
    <v>       0.76071210       0.94956912       0.49862091 </v>
    <v>       0.90386291       0.09382027       0.49948924 </v>
    <v>       0.90413505       0.23730251       0.50009404 </v>
    <v>       0.90443659       0.38087072       0.50023891 </v>
    <v>       0.90452776       0.52403131       0.49953665 </v>
    <v>       0.90490487       0.66658278       0.49866704 </v>
    <v>       0.90621284       0.81005087       0.49816378 </v>
    <v>       0.90467424       0.95157514       0.49863798 </v>
    <v>       0.46733076       0.35979750       0.50008967 </v>
    <v>       0.40443924       0.55794618       0.50162320 </v>
    <v>       0.64301746       0.53807868       0.50144804 </v>
    <v>       0.58146971       0.73600855       0.49986826 </v>
    <v>       0.55807509       0.58864136       0.49524803 </v>
    <v>       0.47190797       0.49189609       0.50135538 </v>
    <v>       0.42691438       0.71528994       0.49903515 </v>
    <v>       0.71653447       0.71452240       0.49637797 </v>
    <v>       0.33152155       0.38143619       0.49695191 </v>
    <v>       0.62105069       0.38023881       0.49883455 </v>
    <v>       0.52249938       0.53839755       0.53492381 </v>
   </varray>
  </structure>
  <varray name="forces" >
   <v>       0.00024687       0.00085465      -0.00344771 </v>
   <v>       0.00053797       0.00066285      -0.00189778 </v>
   <v>       0.00092468       0.00105214      -0.00082908 </v>
   <v>       0.00046461       0.00108558      -0.00102385 </v>
   <v>       0.00005515       0.00072522      -0.00185828 </v>
   <v>      -0.00122106       0.00107975      -0.00164872 </v>
   <v>       0.00033716       0.00058181      -0.00351616 </v>
   <v>       0.00024270       0.00049308      -0.00161988 </v>
   <v>       0.00018041       0.00078547      -0.00233262 </v>
   <v>       0.00033631       0.00065373      -0.00147592 </v>
   <v>       0.00019103       0.00069683      -0.00087139 </v>
   <v>      -0.00043323       0.00026751      -0.00140160 </v>
   <v>      -0.00079455      -0.00073001      -0.00098720 </v>
   <v>      -0.00035850       0.00050188      -0.00052529 </v>
   <v>      -0.00024534      -0.00021521      -0.00007249 </v>
   <v>       0.00014205       0.00067311      -0.00020457 </v>
   <v>       0.00063582       0.00104649       0.00002205 </v>
   <v>       0.00029264       0.00125115       0.00070347 </v>
   <v>       0.00226863       0.00056030       0.00046545 </v>
   <v>      -0.00045201       0.00078795      -0.00062694 </v>
   <v>       0.00105533       0.00026880      -0.00043774 </v>
   <v>       0.00042999       0.00069537      -0.00008592 </v>
   <v>      -0.00021045       0.00060882       0.00035013 </v>
   <v>       0.00063415       0.00103612       0.00019593 </v>
   <v>       0.00003301       0.00074223       0.00010689 </v>
   <v>      -0.00182967       0.00087482       0.00117639 </v>
   <v>      -0.00067795       0.00054102       0.00052131 </v>
   <v>      -0.00002905       0.00092461      -0.00032938 </v>
   <v>       0.00027703       0.00031027       0.00021105 </v>
   <v>       0.00072322       0.00050191      -0.00037882 </v>
   <v>       0.00032153       0.00037462      -0.00011340 </v>
   <v>      -0.00226183       0.00152353      -0.00077110 </v>
   <v>       0.00016430       0.00146655      -0.00133152 </v>
   <v>       0.00016619       0.00051809      -0.00104234 </v>
   <v>       0.00059960       0.00089524      -0.00046146 </v>
   <v>       0.00056122       0.00091867      -0.00110511 </v>
   <v>       0.00020380       0.00002412      -0.00123342 </v>
   <v>       0.00162712       0.00395694      -0.00061593 </v>
   <v>       0.00059370       0.00165036      -0.00183925 </v>
   <v>      -0.00154834       0.00240445      -0.00114630 </v>
   <v>       0.00053584       0.00070581      -0.00288855 </v>
   <v>       0.00068558       0.00119734      -0.00295396 </v>
   <v>       0.00047638       0.00094557      -0.00285693 </v>
   <v>       0.00046967       0.00096579      -0.00139852 </v>
   <v>       0.00018286       0.00052634      -0.00085950 </v>
   <v>       0.00054861       0.00064439      -0.00160274 </v>
   <v>      -0.00001222       0.00098465      -0.00037984 </v>
   <v>       0.00058923       0.00057624      -0.00202257 </v>
   <v>       0.00034858       0.00069799      -0.00335204 </v>
   <v>       0.00098661       0.00169945      -0.00045208 </v>
   <v>       0.00093701       0.00196455      -0.00119157 </v>
   <v>       0.00019405       0.00082692      -0.00077888 </v>
   <v>       0.00028108       0.00083486      -0.00058507 </v>
   <v>       0.00097693       0.00105412       0.00003247 </v>
   <v>       0.00023670       0.00005167       0.00060396 </v>
   <v>       0.00044067       0.00036569      -0.00053525 </v>
   <v>       0.00038262       0.00054171      -0.00009036 </v>
   <v>      -0.00022896      -0.00025205      -0.00100706 </v>
   <v>      -0.00041548       0.00103410       0.00062227 </v>
   <v>       0.00003758       0.00045837      -0.00041854 </v>
   <v>       0.00087717       0.00051274       0.00034367 </v>
   <v>       0.00087338       0.00018208       0.00014312 </v>
   <v>      -0.00006437       0.00068077       0.00048474 </v>
   <v>       0.00035329       0.00093554       0.00080736 </v>
   <v>       0.00044246       0.00061548      -0.00023863 </v>
   <v>       0.00100235       0.00039645       0.00054981 </v>
   <v>       0.00013808       0.00057476       0.00065588 </v>
   <v>       0.00048610       0.00060589       0.00035470 </v>
   <v>       0.00037056       0.00089750       0.00030676 </v>
   <v>       0.00060997       0.00074685       0.00019517 </v>
   <v>      -0.00020888       0.00090591      -0.00040242 </v>
   <v>      -0.00007485      -0.00016641      -0.00055927 </v>
   <v>       0.00061040      -0.00548565      -0.00144374 </v>
   <v>      -0.00017776       0.00069960      -0.00174993 </v>
   <v>      -0.00010288       0.00062227      -0.00172426 </v>
   <v>       0.00055151       0.00079365      -0.00150571 </v>
   <v>       0.00001909       0.00071759      -0.00083020 </v>
   <v>      -0.00018926       0.00053379      -0.00139660 </v>
   <v>      -0.00000899      -0.00094262       0.00051440 </v>
   <v>      -0.00175522      -0.00072847       0.00027991 </v>
   <v>       0.00033906       0.00025546      -0.00240039 </v>
   <v>       0.00019369       0.00049851      -0.00263270 </v>
   <v>       0.00015141       0.00072046      -0.00357137 </v>
   <v>       0.00156712      -0.00040539      -0.00318292 </v>
   <v>       0.00158708       0.00092195      -0.00051338 </v>
   <v>      -0.00068787       0.00192967      -0.00008102 </v>
   <v>      -0.00045909       0.00071219       0.00010022 </v>
   <v>       0.00135076       0.00078312       0.00062200 </v>
   <v>      -0.02053520      -0.03092155      -0.00167053 </v>
   <v>      -0.00938848      -0.01154248       0.02635048 </v>
   <v>       0.00040330       0.00002892      -0.00043257 </v>
   <v>       0.00039163       0.00097199      -0.00102785 </v>
   <v>       0.00002361       0.00112906       0.00234024 </v>
   <v>       0.00035890       0.00023266      -0.00070524 </v>
   <v>       0.00911435      -0.01728663       0.04561348 </v>
  </varray>
  <varray name="stress" >
   <v>      -2.32245546       0.14197066       0.00721013 </v>
   <v>       0.14197084     -11.11565842      -0.00090694 </v>
   <v>       0.00721001      -0.00090720      -0.25986622 </v>
  </varray>
  <energy>
   <i name="e_fr_energy">   -841.01874969 </i>
   <i name="e_wo_entrp">   -841.01874873 </i>
   <i name="e_0_energy">   -841.01874921 </i>
  </energy>
  <time name="totalsc">  349.07  351.36</time>
 </calculation>
 <calculation>
  <scstep>
   <time name="dav">   76.73   77.22</time>
   <time name="total">   88.44   89.02</time>
   <energy>
    <i name="alphaZ">    175.60570339 </i>
    <i name="ewald">  36574.82780665 </i>
    <i name="hartreedc"> -48448.43838172 </i>
    <i name="XCdc">   1280.21711667 </i>
    <i name="pawpsdc">  37186.99914252 </i>
    <i name="pawaedc"> -37252.04333908 </i>
    <i name="eentropy">     -0.00000096 </i>
    <i name="bandstr">  -4276.48462621 </i>
    <i name="atom">  13925.93113153 </i>
    <i name="e_fr_energy">   -833.38544721 </i>
    <i name="e_wo_entrp">   -833.38544625 </i>
    <i name="e_0_energy">   -833.38544673 </i>
   </energy>
  </scstep>
  <scstep>
   <time name="dav">   77.66   78.15</time>
   <time name="total">   88.75   89.37</time>
   <energy>
    <i name="e_fr_energy">   -833.38545252 </i>
    <i name="e_wo_entrp">   -833.38545156 </i>
    <i name="e_0_energy">   -833.38545204 </i>
   </energy>
  </scstep>
  <scstep>
   <time name="dav">   64.48   64.85</time>
   <time name="total">   69.30   69.70</time>
   <energy>
    <i name="alphaZ">    175.60570339 </i>
    <i name="ewald">  36574.82780665 </i>
    <i name="hartreedc"> -48448.40845233 </i>
    <i name="XCdc">   1280.21543263 </i>
    <i name="pawpsdc">  37186.71402633 </i>
    <i name="pawaedc"> -37251.75773357 </i>
    <i name="eentropy">     -0.00000096 </i>
    <i name="bandstr">  -4276.51336562 </i>
    <i name="atom">  13925.93113153 </i>
    <i name="e_fr_energy">   -833.38545196 </i>
    <i name="e_wo_entrp">   -833.38545100 </i>
    <i name="e_0_energy">   -833.38545148 </i>
   </energy>
  </scstep>
  <structure>
   <crystal>
    <varray name="basis" >
     <v>      17.27103806       0.00000000       0.00000000 </v>
     <v>      -8.63551903      14.95715771       0.00000000 </v>
     <v>       0.00000000       0.00000000      15.00000000 </v>
    </varray>
    <i name="volume">   3874.88459904 </i>
    <varray name="rec_basis" >
     <v>       0.05790040       0.03342881       0.00000000 </v>
     <v>       0.00000000       0.06685762       0.00000000 </v>
     <v>       0.00000000       0.00000000       0.06666667 </v>
    </varray>
   </crystal>
   <varray name="positions" >
    <v>       0.00022538       0.00014774       0.49891467 </v>
    <v>       0.99939909       0.14232313       0.49954802 </v>
    <v>       0.99943111       0.28547555       0.49990388 </v>
    <v>       0.99984699       0.42860094       0.50002928 </v>
    <v>       0.99998004       0.57159174       0.49971194 </v>
    <v>       0.00059762       0.71463757       0.49919798 </v>
    <v>       0.00156713       0.85821625       0.49881145 </v>
[...]
       <r>   -13.5856    11.6258    62.2338 </r>
       <r>   -13.4867     6.7789    62.9038 </r>
       <r>   -13.3879     6.8061    63.5765 </r>
       <r>   -13.2891     5.0361    64.0742 </r>
       <r>   -13.1902     4.2353    64.4928 </r>
       <r>   -13.0914     2.0493    64.6953 </r>
       <r>   -12.9926     6.0529    65.2936 </r>
       <r>   -12.8937     7.2530    66.0104 </r>
       <r>   -12.7949     6.9670    66.6990 </r>
       <r>   -12.6960    10.0382    67.6911 </r>
       <r>   -12.5972    16.8361    69.3552 </r>
       <r>   -12.4984     9.7199    70.3158 </r>
       <r>   -12.3995    11.0376    71.4067 </r>
       <r>   -12.3007     3.7232    71.7747 </r>
       <r>   -12.2019     5.8221    72.3501 </r>
       <r>   -12.1030     3.6563    72.7115 </r>
       <r>   -12.0042     7.6315    73.4658 </r>
       <r>   -11.9054     5.7195    74.0311 </r>
       <r>   -11.8065     8.1821    74.8397 </r>
       <r>   -11.7077    10.1411    75.8420 </r>
       <r>   -11.6089    10.2372    76.8538 </r>
       <r>   -11.5100    10.9677    77.9378 </r>
       <r>   -11.4112    14.7076    79.3915 </r>
       <r>   -11.3124     8.5519    80.2367 </r>
       <r>   -11.2135     8.9775    81.1240 </r>
       <r>   -11.1147    10.9530    82.2065 </r>
       <r>   -11.0159    11.2799    83.3214 </r>
       <r>   -10.9170     8.1487    84.1267 </r>
       <r>   -10.8182     7.5566    84.8736 </r>
       <r>   -10.7193     9.0377    85.7668 </r>
       <r>   -10.6205     9.1944    86.6756 </r>
       <r>   -10.5217     5.0046    87.1702 </r>
       <r>   -10.4228     8.8094    88.0409 </r>
       <r>   -10.3240    13.2351    89.3490 </r>
       <r>   -10.2252    15.1877    90.8500 </r>
       <r>   -10.1263    15.8344    92.4150 </r>
       <r>   -10.0275    20.0454    94.3962 </r>
       <r>    -9.9287    16.6336    96.0402 </r>
       <r>    -9.8298    15.1074    97.5334 </r>
       <r>    -9.7310    13.3580    98.8536 </r>
       <r>    -9.6322    19.9496   100.8253 </r>
       <r>    -9.5333    18.1157   102.6158 </r>
       <r>    -9.4345    17.3019   104.3258 </r>
       <r>    -9.3357    14.8964   105.7981 </r>
       <r>    -9.2368    16.6832   107.4470 </r>
       <r>    -9.1380    24.0016   109.8192 </r>
       <r>    -9.0391    28.2530   112.6116 </r>
       <r>    -8.9403    24.4422   115.0274 </r>
       <r>    -8.8415    22.5694   117.2580 </r>
       <r>    -8.7426    16.7579   118.9143 </r>
       <r>    -8.6438    14.9248   120.3894 </r>
       <r>    -8.5450    16.7629   122.0461 </r>
       <r>    -8.4461    15.7838   123.6061 </r>
       <r>    -8.3473    19.2740   125.5111 </r>
       <r>    -8.2485    25.6709   128.0483 </r>
       <r>    -8.1496    18.0058   129.8279 </r>
       <r>    -8.0508    14.3044   131.2417 </r>
       <r>    -7.9520    16.8638   132.9084 </r>
       <r>    -7.8531    16.9622   134.5849 </r>
       <r>    -7.7543     4.8881   135.0680 </r>
       <r>    -7.6555    12.1404   136.2679 </r>
       <r>    -7.5566    11.5076   137.4052 </r>
       <r>    -7.4578    22.3672   139.6159 </r>
       <r>    -7.3589    19.1171   141.5053 </r>
       <r>    -7.2601    18.5406   143.3378 </r>
       <r>    -7.1613    13.4882   144.6709 </r>
       <r>    -7.0624    13.2496   145.9804 </r>
       <r>    -6.9636    14.8474   147.4479 </r>
       <r>    -6.8648     9.8525   148.4216 </r>
       <r>    -6.7659     9.4622   149.3568 </r>
       <r>    -6.6671    14.4817   150.7881 </r>
       <r>    -6.5683    12.8214   152.0553 </r>
       <r>    -6.4694    13.6491   153.4044 </r>
       <r>    -6.3706    18.0545   155.1888 </r>
       <r>    -6.2718    22.5932   157.4218 </r>
       <r>    -6.1729    14.4918   158.8541 </r>
       <r>    -6.0741     6.2224   159.4691 </r>
       <r>    -5.9753    12.3194   160.6867 </r>
       <r>    -5.8764    12.8900   161.9607 </r>
       <r>    -5.7776     9.3226   162.8821 </r>
       <r>    -5.6788     3.9030   163.2678 </r>
       <r>    -5.5799     4.7155   163.7339 </r>
       <r>    -5.4811     2.0579   163.9373 </r>
       <r>    -5.3822     4.7980   164.4115 </r>
       <r>    -5.2834     8.0421   165.2063 </r>
       <r>    -5.1846    21.7365   167.3546 </r>
       <r>    -5.0857    13.4226   168.6813 </r>
       <r>    -4.9869    19.4871   170.6073 </r>
       <r>    -4.8881    12.8877   171.8810 </r>
       <r>    -4.7892    10.9833   172.9666 </r>
       <r>    -4.6904     8.1436   173.7714 </r>
       <r>    -4.5916    12.5529   175.0121 </r>
       <r>    -4.4927    14.1979   176.4154 </r>
       <r>    -4.3939    21.7770   178.5677 </r>
       <r>    -4.2951     6.7098   179.2309 </r>
       <r>    -4.1962    11.4942   180.3669 </r>
       <r>    -4.0974     7.7338   181.1313 </r>
       <r>    -3.9986     8.2964   181.9512 </r>
       <r>    -3.8997     0.4952   182.0002 </r>
       <r>    -3.8009     0.9071   182.0898 </r>
       <r>    -3.7020     1.6508   182.2530 </r>
       <r>    -3.6032     3.9831   182.6467 </r>
       <r>    -3.5044     3.6588   183.0083 </r>
       <r>    -3.4055     2.1217   183.2180 </r>
       <r>    -3.3067     0.5531   183.2727 </r>
       <r>    -3.2079     2.1173   183.4819 </r>
       <r>    -3.1090     0.1836   183.5001 </r>
       <r>    -3.0102     0.6683   183.5661 </r>
       <r>    -2.9114     2.5343   183.8166 </r>
       <r>    -2.8125     1.8220   183.9967 </r>
       <r>    -2.7137     0.0339   184.0000 </r>
       <r>    -2.6149     0.4464   184.0441 </r>
       <r>    -2.5160     3.5317   184.3932 </r>
       <r>    -2.4172     1.0778   184.4997 </r>
       <r>    -2.3184     0.0028   184.5000 </r>
       <r>    -2.2195     0.0183   184.5018 </r>
       <r>    -2.1207     2.7009   184.7688 </r>
       <r>    -2.0218     2.3536   185.0014 </r>
       <r>    -1.9230     2.6437   185.2627 </r>
       <r>    -1.8242     4.0302   185.6610 </r>
       <r>    -1.7253     3.1123   185.9686 </r>
       <r>    -1.6265     0.3383   186.0020 </r>
       <r>    -1.5277     3.6550   186.3633 </r>
       <r>    -1.4288     8.7181   187.2249 </r>
       <r>    -1.3300     2.6738   187.4892 </r>
       <r>    -1.2312     0.2233   187.5113 </r>
       <r>    -1.1323     5.1713   188.0224 </r>
       <r>    -1.0335    15.7782   189.5818 </r>
       <r>    -0.9347    12.6787   190.8349 </r>
       <r>    -0.8358     5.0964   191.3386 </r>
       <r>    -0.7370    10.3416   192.3607 </r>
       <r>    -0.6382    11.2368   193.4713 </r>
       <r>    -0.5393     5.7309   194.0377 </r>
       <r>    -0.4405     3.3080   194.3647 </r>
       <r>    -0.3416     8.1321   195.1684 </r>
       <r>    -0.2428     9.7126   196.1284 </r>
       <r>    -0.1440    10.2621   197.1426 </r>
       <r>    -0.0451    10.2641   198.1571 </r>
       <r>     0.0537    11.6814   199.3116 </r>
       <r>     0.1525     5.3032   199.8357 </r>
       <r>     0.2514     1.6505   199.9989 </r>
       <r>     0.3502     1.3913   200.1364 </r>
       <r>     0.4490     7.3244   200.8603 </r>
       <r>     0.5479     9.0801   201.7577 </r>
       <r>     0.6467     6.6840   202.4183 </r>
       <r>     0.7455     5.0841   202.9208 </r>
       <r>     0.8444     5.0669   203.4216 </r>
       <r>     0.9432     8.3804   204.2499 </r>
       <r>     1.0420    12.3619   205.4717 </r>
       <r>     1.1409     3.3229   205.8001 </r>
       <r>     1.2397     7.7618   206.5672 </r>
       <r>     1.3385    17.6471   208.3114 </r>
       <r>     1.4374    22.2358   210.5091 </r>
       <r>     1.5362     8.9864   211.3972 </r>
       <r>     1.6351     7.6705   212.1554 </r>
       <r>     1.7339     6.8477   212.8321 </r>
       <r>     1.8327     9.8561   213.8063 </r>
       <r>     1.9316    16.5576   215.4428 </r>
       <r>     2.0304    29.0412   218.3130 </r>
       <r>     2.1292    11.2749   219.4274 </r>
       <r>     2.2281    12.4617   220.6591 </r>
       <r>     2.3269    19.2563   222.5623 </r>
       <r>     2.4257    24.2759   224.9616 </r>
       <r>     2.5246    13.1433   226.2606 </r>
       <r>     2.6234     7.6410   227.0158 </r>
       <r>     2.7222    16.1611   228.6131 </r>
       <r>     2.8211    22.8528   230.8717 </r>
       <r>     2.9199    54.9582   236.3036 </r>
       <r>     3.0187    26.9753   238.9697 </r>
       <r>     3.1176     9.8044   239.9387 </r>
       <r>     3.2164    13.1406   241.2374 </r>
       <r>     3.3153    16.2831   242.8468 </r>
       <r>     3.4141    19.2129   244.7457 </r>
       <r>     3.5129    24.8067   247.1975 </r>
       <r>     3.6118    12.5159   248.4345 </r>
       <r>     3.7106    12.9459   249.7140 </r>
       <r>     3.8094    26.0241   252.2861 </r>
       <r>     3.9083    29.8257   255.2339 </r>
       <r>     4.0071    21.6094   257.3697 </r>
       <r>     4.1059    12.5069   258.6058 </r>
       <r>     4.2048    15.3073   260.1187 </r>
       <r>     4.3036    35.0084   263.5788 </r>
       <r>     4.4024    14.1390   264.9762 </r>
       <r>     4.5013     0.2407   265.0000 </r>
       <r>     4.6001     0.0000   265.0000 </r>
       <r>     4.6989     0.0000   265.0000 </r>
       <r>     4.7978     0.0000   265.0000 </r>
       <r>     4.8966     0.0000   265.0000 </r>
       <r>     4.9955     0.0000   265.0000 </r>
       <r>     5.0943     0.0000   265.0000 </r>
       <r>     5.1931     0.0000   265.0000 </r>
       <r>     5.2920     0.0000   265.0000 </r>
       <r>     5.3908     0.0000   265.0000 </r>
       <r>     5.4896     0.0000   265.0000 </r>
       <r>     5.5885     0.0000   265.0000 </r>
       <r>     5.6873     0.0000   265.0000 </r>
      </set>
     </set>
    </array>
   </total>
  </dos>
 </calculation>
 <structure name="finalpos" >
  <crystal>
   <varray name="basis" >
    <v>      17.27103806       0.00000000       0.00000000 </v>
    <v>      -8.63551903      14.95715771       0.00000000 </v>
    <v>       0.00000000       0.00000000      15.00000000 </v>
   </varray>
   <i name="volume">   3874.88459904 </i>
   <varray name="rec_basis" >
    <v>       0.05790040       0.03342881       0.00000000 </v>
    <v>       0.00000000       0.06685762       0.00000000 </v>
    <v>       0.00000000       0.00000000       0.06666667 </v>
   </varray>
  </crystal>
  <varray name="positions" >
   <v>       0.00071906       0.00075959       0.49736988 </v>
   <v>       0.99983481       0.14290224       0.49771408 </v>
   <v>       0.99982870       0.28602044       0.49854364 </v>
   <v>       1.00019975       0.42911449       0.49892601 </v>
   <v>       1.00030633       0.57213140       0.49855254 </v>
   <v>       0.00095055       0.71516703       0.49802584 </v>
   <v>       0.00201424       0.85877967       0.49752466 </v>
   <v>       0.14468935       0.00246549       0.49835185 </v>
   <v>       0.14397849       0.14479355       0.49799062 </v>
   <v>       0.14223329       0.28618099       0.49815869 </v>
   <v>       0.14328581       0.42961112       0.49857597 </v>
   <v>       0.14360777       0.57215043       0.49894992 </v>
   <v>       0.14379252       0.71524750       0.49910285 </v>
   <v>       0.14425017       0.85884544       0.49885382 </v>
   <v>       0.28731371       0.00261758       0.49964967 </v>
   <v>       0.28789237       0.14677138       0.49897849 </v>
   <v>       0.28731631       0.29204715       0.49867767 </v>
   <v>       0.28534973       0.42713711       0.49877764 </v>
   <v>       0.28809167       0.57166941       0.49900423 </v>
   <v>       0.28661208       0.71556823       0.49974752 </v>
   <v>       0.28634055       0.85890828       0.50003172 </v>
   <v>       0.42960160       0.00145855       0.50042368 </v>
   <v>       0.43077949       0.14602076       0.49984568 </v>
   <v>       0.43025717       0.28760389       0.49928457 </v>
   <v>       0.42831236       0.85738140       0.50026868 </v>
   <v>       0.57151235       0.99970975       0.50014291 </v>
   <v>       0.57228333       0.14352667       0.50032964 </v>
   <v>       0.57620119       0.29029063       0.49942720 </v>
   <v>       0.57052457       0.85463009       0.49946487 </v>
   <v>       0.71356437       0.99804901       0.49886666 </v>
   <v>       0.71459334       0.14238490       0.49976406 </v>
   <v>       0.71521484       0.28600995       0.49985261 </v>
   <v>       0.71125800       0.42620028       0.49877794 </v>
   <v>       0.71597444       0.57443302       0.49832246 </v>
   <v>       0.71262124       0.85411757       0.49789359 </v>
   <v>       0.85681719       0.99918301       0.49749655 </v>
   <v>       0.85677428       0.14229684       0.49853896 </v>
   <v>       0.85731036       0.28574322       0.49935220 </v>
   <v>       0.85737276       0.42905989       0.49907339 </v>
   <v>       0.85665367       0.57172994       0.49788460 </v>
   <v>       0.85888298       0.71574367       0.49716531 </v>
   <v>       0.85818894       0.85689209       0.49708444 </v>
   <v>       0.04841939       0.09621834       0.49760604 </v>
   <v>       0.04690450       0.23806142       0.49808067 </v>
   <v>       0.04761626       0.38149985       0.49871499 </v>
   <v>       0.04816293       0.52454418       0.49882054 </v>
   <v>       0.04835463       0.66756108       0.49851366 </v>
   <v>       0.04893635       0.81071433       0.49805978 </v>
   <v>       0.04916929       0.95393870       0.49768227 </v>
   <v>       0.19230045       0.09775989       0.49842784 </v>
   <v>       0.19104150       0.24014752       0.49817013 </v>
   <v>       0.18968063       0.38102840       0.49839568 </v>
   <v>       0.19173883       0.52500344       0.49877216 </v>
   <v>       0.19125316       0.66764833       0.49932392 </v>
   <v>       0.19142773       0.81093247       0.49941024 </v>
   <v>       0.19211820       0.95445736       0.49900496 </v>
   <v>       0.33536188       0.09871656       0.49955499 </v>
   <v>       0.33670642       0.24299108       0.49898224 </v>
   <v>       0.33196890       0.52227303       0.49925489 </v>
   <v>       0.33734351       0.67052531       0.49940949 </v>
   <v>       0.33355736       0.81063747       0.50014166 </v>
   <v>       0.33422811       0.95425612       0.50015247 </v>
   <v>       0.47729670       0.09681702       0.50027982 </v>
   <v>       0.47840342       0.24188348       0.49950193 </v>
   <v>       0.47270481       0.80622615       0.49976110 </v>
   <v>       0.47653588       0.95299134       0.50042689 </v>
   <v>       0.61923243       0.09508747       0.50019185 </v>
   <v>       0.62050051       0.23913765       0.50005593 </v>
   <v>       0.61913923       0.80934818       0.49891843 </v>
   <v>       0.61813111       0.95057458       0.49953438 </v>
   <v>       0.76158593       0.09411601       0.49904851 </v>
   <v>       0.76242932       0.23773890       0.49974313 </v>
   <v>       0.76201684       0.38111297       0.49938374 </v>
   <v>       0.76017464       0.52516609       0.49814635 </v>
   <v>       0.76310477       0.66976906       0.49728423 </v>
   <v>       0.76191662       0.80491403       0.49716832 </v>
   <v>       0.76119665       0.95019075       0.49793954 </v>
   <v>       0.90431383       0.09441000       0.49779815 </v>
   <v>       0.90453465       0.23785551       0.49885311 </v>
   <v>       0.90480121       0.38139537       0.49919146 </v>
   <v>       0.90484210       0.52458493       0.49844641 </v>
   <v>       0.90524281       0.66713306       0.49759711 </v>
   <v>       0.90665451       0.81062755       0.49707594 </v>
   <v>       0.90520308       0.95221626       0.49722999 </v>
   <v>       0.46841511       0.36037473       0.49968725 </v>
   <v>       0.40463803       0.55854660       0.50136274 </v>
   <v>       0.64307060       0.53854156       0.50151461 </v>
   <v>       0.58244067       0.73660919       0.49956704 </v>
   <v>       0.54085155       0.57279243       0.50774237 </v>
   <v>       0.45801505       0.47584511       0.52149173 </v>
   <v>       0.42727416       0.71574879       0.49921011 </v>
   <v>       0.71699857       0.71524115       0.49696771 </v>
   <v>       0.33173722       0.38192187       0.49899308 </v>
   <v>       0.62140012       0.38068175       0.49842756 </v>
   <v>       0.51648866       0.52050019       0.54630385 </v>
  </varray>
  <varray name="selective"  type="logical" >
   <v type="logical" >  T  T  T </v>
   <v type="logical" >  T  T  T </v>
   <v type="logical" >  T  T  T </v>
   <v type="logical" >  T  T  T </v>
   <v type="logical" >  T  T  T </v>
   <v type="logical" >  T  T  T </v>
   <v type="logical" >  T  T  T </v>
   <v type="logical" >  T  T  T </v>
   <v type="logical" >  T  T  T </v>
   <v type="logical" >  T  T  T </v>
   <v type="logical" >  T  T  T </v>
   <v type="logical" >  T  T  T </v>
   <v type="logical" >  T  T  T </v>
   <v type="logical" >  T  T  T </v>
   <v type="logical" >  T  T  T </v>
   <v type="logical" >  T  T  T </v>
   <v type="logical" >  T  T  T </v>
   <v type="logical" >  T  T  T </v>
   <v type="logical" >  T  T  T </v>
   <v type="logical" >  T  T  T </v>
   <v type="logical" >  T  T  T </v>
   <v type="logical" >  T  T  T </v>
   <v type="logical" >  T  T  T </v>
   <v type="logical" >  T  T  T </v>
   <v type="logical" >  T  T  T </v>
   <v type="logical" >  T  T  T </v>
   <v type="logical" >  T  T  T </v>
   <v type="logical" >  T  T  T </v>
   <v type="logical" >  T  T  T </v>
   <v type="logical" >  T  T  T </v>
   <v type="logical" >  T  T  T </v>
   <v type="logical" >  T  T  T </v>
   <v type="logical" >  T  T  T </v>
   <v type="logical" >  T  T  T </v>
   <v type="logical" >  T  T  T </v>
   <v type="logical" >  T  T  T </v>
   <v type="logical" >  T  T  T </v>
   <v type="logical" >  T  T  T </v>
   <v type="logical" >  T  T  T </v>
   <v type="logical" >  T  T  T </v>
   <v type="logical" >  T  T  T </v>
   <v type="logical" >  T  T  T </v>
   <v type="logical" >  T  T  T </v>
   <v type="logical" >  T  T  T </v>
   <v type="logical" >  T  T  T </v>
   <v type="logical" >  T  T  T </v>
   <v type="logical" >  T  T  T </v>
   <v type="logical" >  T  T  T </v>
   <v type="logical" >  T  T  T </v>
   <v type="logical" >  T  T  T </v>
   <v type="logical" >  T  T  T </v>
   <v type="logical" >  T  T  T </v>
   <v type="logical" >  T  T  T </v>
   <v type="logical" >  T  T  T </v>
   <v type="logical" >  T  T  T </v>
   <v type="logical" >  T  T  T </v>
   <v type="logical" >  T  T  T </v>
   <v type="logical" >  T  T  T </v>
   <v type="logical" >  T  T  T </v>
   <v type="logical" >  T  T  T </v>
   <v type="logical" >  T  T  T </v>
   <v type="logical" >  T  T  T </v>
   <v type="logical" >  T  T  T </v>
   <v type="logical" >  T  T  T </v>
   <v type="logical" >  T  T  T </v>
   <v type="logical" >  T  T  T </v>
   <v type="logical" >  T  T  T </v>
   <v type="logical" >  T  T  T </v>
   <v type="logical" >  T  T  T </v>
   <v type="logical" >  T  T  T </v>
   <v type="logical" >  T  T  T </v>
   <v type="logical" >  T  T  T </v>
   <v type="logical" >  T  T  T </v>
   <v type="logical" >  T  T  T </v>
   <v type="logical" >  T  T  T </v>
   <v type="logical" >  T  T  T </v>
   <v type="logical" >  T  T  T </v>
   <v type="logical" >  T  T  T </v>
   <v type="logical" >  T  T  T </v>
   <v type="logical" >  T  T  T </v>
   <v type="logical" >  T  T  T </v>
   <v type="logical" >  T  T  T </v>
   <v type="logical" >  T  T  T </v>
   <v type="logical" >  T  T  T </v>
   <v type="logical" >  T  T  T </v>
   <v type="logical" >  T  T  T </v>
   <v type="logical" >  T  T  T </v>
   <v type="logical" >  T  T  T </v>
   <v type="logical" >  T  T  T </v>
   <v type="logical" >  T  T  T </v>
   <v type="logical" >  T  T  T </v>
   <v type="logical" >  T  T  T </v>
   <v type="logical" >  T  T  T </v>
   <v type="logical" >  T  T  T </v>
   <v type="logical" >  T  T  T </v>
  </varray>
  <nose>
   <v>      -3.00000000       0.00000000       0.00010000       0.00010000 </v>
  </nose>
 </structure>
</modeling>
