unknown system                          
           1
    17.271038    0.000000    0.000000
    -8.635519   14.957158    0.000000
     0.000000    0.000000   15.000000
   C    H    N    O 
    84     6     4     1
Direct configuration=     1
   0.00022433  0.00014627  0.49891905
   0.99939834  0.14232178  0.49955042
   0.99943096  0.28547416  0.49990488
   0.99984758  0.42860108  0.50003049
   0.99997850  0.57159108  0.49971426
   0.00059581  0.71463710  0.49920016
   0.00156596  0.85821503  0.49881584
   0.14423658  0.00190226  0.49925930
   0.14351663  0.14421881  0.49913533
   0.14184171  0.28566436  0.49909744
   0.14293719  0.42908175  0.49938091
   0.14326700  0.57160802  0.49970370
   0.14343729  0.71470924  0.49993417
   0.14383399  0.85830447  0.49972807
   0.28689580  0.00208538  0.49980151
   0.28744077  0.14621939  0.49885746
   0.28689745  0.29160250  0.49799932
   0.28507922  0.42662033  0.49811222
   0.28774901  0.57112446  0.49911571
   0.28626308  0.71505296  0.49997865
   0.28596133  0.85838510  0.50014697
   0.42922011  0.00097592  0.50004519
   0.43037380  0.14553996  0.49955004
   0.42971326  0.28704625  0.49914806
   0.42789648  0.85688694  0.49997336
   0.57110464  0.99921005  0.49980844
   0.57189255  0.14304915  0.50009559
   0.57578836  0.28981534  0.49951969
   0.57007820  0.85415079  0.49927244
   0.71313843  0.99748657  0.49925089
   0.71420146  0.14185862  0.50010157
   0.71483307  0.28548510  0.50021216
   0.71093528  0.42566844  0.49932810
   0.71585409  0.57387952  0.49845322
   0.71206409  0.85345279  0.49809415
   0.85632893  0.99857048  0.49885244
   0.85634426  0.14172768  0.49979433
   0.85693743  0.28522199  0.50031804
   0.85700713  0.42851350  0.50001694
   0.85638939  0.57117968  0.49883650
   0.85853629  0.71518783  0.49798988
   0.85764778  0.85623658  0.49806525
   0.04795465  0.09561125  0.49927458
   0.04649404  0.23750207  0.49961011
   0.04725517  0.38097904  0.49985228
   0.04783326  0.52401796  0.49986988
   0.04801032  0.66702839  0.49962174
   0.04851565  0.81016333  0.49925206
   0.04870860  0.95336244  0.49901707
   0.19184446  0.09718631  0.49903852
   0.19058692  0.23959912  0.49887209
   0.18935692  0.38052048  0.49887693
   0.19140650  0.52447658  0.49928870
   0.19089604  0.66710628  0.49995393
   0.19104649  0.81040668  0.50000690
   0.19168201  0.95390780  0.49964619
   0.33494134  0.09819750  0.49941852
   0.33620088  0.24241588  0.49847506
   0.33172014  0.52181266  0.49891216
   0.33700612  0.67000579  0.49951724
   0.33315845  0.81010990  0.50008941
   0.33382346  0.95373532  0.50006965
   0.47690430  0.09634281  0.49991188
   0.47799123  0.24144385  0.49936337
   0.47228434  0.80575793  0.49952759
   0.47613541  0.95250113  0.50000181
   0.61882890  0.09458632  0.50003772
   0.62011128  0.23866057  0.50006757
   0.61856841  0.80874456  0.49893422
   0.61770564  0.95006671  0.49939327
   0.76116853  0.09354307  0.49974298
   0.76204499  0.23720677  0.50031839
   0.76167216  0.38057802  0.50000069
   0.75996699  0.52460851  0.49875119
   0.76280028  0.66916483  0.49739937
   0.76135207  0.80425372  0.49735100
   0.76071210  0.94956912  0.49862091
   0.90386291  0.09382027  0.49948924
   0.90413505  0.23730251  0.50009404
   0.90443659  0.38087072  0.50023891
   0.90452776  0.52403131  0.49953665
   0.90490487  0.66658278  0.49866704
   0.90621284  0.81005087  0.49816378
   0.90467424  0.95157514  0.49863798
   0.46733076  0.35979750  0.50008967
   0.40443924  0.55794618  0.50162320
   0.64301746  0.53807868  0.50144804
   0.58146971  0.73600855  0.49986826
   0.55807509  0.58864136  0.49524803
   0.47190797  0.49189609  0.50135538
   0.42691438  0.71528994  0.49903515
   0.71653447  0.71452240  0.49637797
   0.33152155  0.38143619  0.49695191
   0.62105069  0.38023881  0.49883455
   0.52249938  0.53839755  0.53492381
Direct configuration=     2
   0.00022538  0.00014774  0.49891467
   0.99939909  0.14232313  0.49954802
   0.99943111  0.28547555  0.49990388
   0.99984699  0.42860094  0.50002928
   0.99998004  0.57159174  0.49971194
   0.00059762  0.71463757  0.49919798
   0.00156713  0.85821625  0.49881145
   0.14423853  0.00190410  0.49925732
   0.14351888  0.14422112  0.49913246
   0.14184343  0.28566630  0.49909579
   0.14293815  0.42908319  0.49938010
   0.14326882  0.57160974  0.49970302
   0.14344031  0.71471095  0.49993371
   0.14383588  0.85830530  0.49972741
   0.28689635  0.00208474  0.49980139
   0.28744278  0.14622153  0.49885745
   0.28689969  0.29160443  0.49799990
   0.28508026  0.42662211  0.49811382
   0.28774967  0.57112541  0.49911709
   0.28626518  0.71505417  0.49997893
   0.28596595  0.85838500  0.50014623
   0.42922337  0.00097662  0.50004495
   0.43037555  0.14554103  0.49955058
   0.42971523  0.28704797  0.49914858
   0.42789754  0.85688721  0.49997354
   0.57110717  0.99921134  0.49980931
   0.57189579  0.14305052  0.50009622
   0.57579041  0.28981566  0.49951941
   0.57007871  0.85415153  0.49927304
   0.71313962  0.99748834  0.49925060
   0.71420326  0.14186026  0.50010139
   0.71483196  0.28548286  0.50021113
   0.71093548  0.42566764  0.49932668
   0.71585422  0.57388055  0.49845245
   0.71206536  0.85345435  0.49809414
   0.85632947  0.99857174  0.49885131
   0.85634126  0.14172802  0.49979273
   0.85693540  0.28522043  0.50031723
   0.85700611  0.42851189  0.50001460
   0.85638947  0.57118141  0.49883459
   0.85853686  0.71518884  0.49798662
   0.85764893  0.85623820  0.49806179
   0.04795569  0.09561238  0.49927094
   0.04649539  0.23750283  0.49960838
   0.04725636  0.38098048  0.49985130
   0.04783351  0.52401921  0.49986784
   0.04800827  0.66703038  0.49962147
   0.04851586  0.81016429  0.49924957
   0.04870934  0.95336346  0.49901283
   0.19184409  0.09718674  0.49903750
   0.19058726  0.23959983  0.49887005
   0.18935761  0.38052149  0.49887632
   0.19140738  0.52447777  0.49928823
   0.19089581  0.66710710  0.49995402
   0.19104319  0.81040601  0.50000777
   0.19168211  0.95390856  0.49964552
   0.33494165  0.09819825  0.49941847
   0.33620091  0.24241615  0.49847490
   0.33172065  0.52181403  0.49891359
   0.33700643  0.67000667  0.49951692
   0.33315862  0.81011186  0.50008991
   0.33382332  0.95373692  0.50006982
   0.47690158  0.09634338  0.49991254
   0.47799154  0.24144537  0.49936472
   0.47228549  0.80575925  0.49952751
   0.47613503  0.95250262  0.50000261
   0.61882651  0.09458646  0.50003864
   0.62011012  0.23866269  0.50006812
   0.61857006  0.80874601  0.49893506
   0.61770613  0.95006782  0.49939377
   0.76117089  0.09354438  0.49974254
   0.76204679  0.23720882  0.50031762
   0.76167508  0.38058353  0.49999886
   0.75996842  0.52461034  0.49874935
   0.76280151  0.66916632  0.49739780
   0.76135388  0.80425521  0.49734975
   0.76071374  0.94957020  0.49862020
   0.90386506  0.09382088  0.49948752
   0.90413835  0.23730183  0.50009384
   0.90444064  0.38087601  0.50023860
   0.90452857  0.52403333  0.49953368
   0.90490546  0.66658399  0.49866399
   0.90621413  0.81005198  0.49815953
   0.90467605  0.95157646  0.49863506
   0.46733379  0.35979887  0.50008903
   0.40443945  0.55794902  0.50162277
   0.64301769  0.53808014  0.50144776
   0.58147235  0.73601003  0.49986930
   0.55802393  0.58859974  0.49523570
   0.47187541  0.49186716  0.50138081
   0.42691446  0.71529027  0.49903515
   0.71653596  0.71452425  0.49637763
   0.33152228  0.38143814  0.49695611
   0.62105245  0.38024050  0.49883413
   0.52249790  0.53836143  0.53498315
Direct configuration=     3
   0.00022709  0.00014974  0.49890802
   0.99940085  0.14232476  0.49954432
   0.99943387  0.28547751  0.49990239
   0.99984910  0.42860354  0.50002742
   0.99998063  0.57159361  0.49970846
   0.00059737  0.71463973  0.49919478
   0.00156853  0.85821780  0.49880470
   0.14423951  0.00190545  0.49925425
   0.14352011  0.14422290  0.49912806
   0.14184479  0.28566790  0.49909317
   0.14293925  0.42908489  0.49937873
   0.14326906  0.57161091  0.49970131
   0.14343890  0.71471109  0.49993273
   0.14383507  0.85830637  0.49972761
   0.28689617  0.00208512  0.49980127
   0.28744362  0.14622287  0.49885731
   0.28690162  0.29160646  0.49800060
   0.28508161  0.42662457  0.49811606
   0.28775160  0.57112757  0.49911768
   0.28626558  0.71505573  0.49997872
   0.28596506  0.85838650  0.50014636
   0.42922320  0.00097832  0.50004594
   0.43037556  0.14554249  0.49955146
   0.42971711  0.28705005  0.49914924
   0.42789866  0.85688894  0.49997389
   0.57110636  0.99921262  0.49981113
   0.57189457  0.14305173  0.50009733
   0.57579119  0.28981789  0.49951913
   0.57007981  0.85415257  0.49927382
   0.71314135  0.99748958  0.49925014
   0.71420398  0.14186123  0.50010121
   0.71483317  0.28548664  0.50020965
   0.71093734  0.42567053  0.49932438
   0.71585501  0.57388208  0.49845088
   0.71206812  0.85345545  0.49809353
   0.85633174  0.99857367  0.49884936
   0.85634532  0.14172952  0.49979146
   0.85694041  0.28522526  0.50031614
   0.85700857  0.42851547  0.50001109
   0.85639065  0.57118369  0.49883077
   0.85853548  0.71518842  0.49798152
   0.85765146  0.85624061  0.49805642
   0.04795761  0.09561461  0.49926539
   0.04649725  0.23750514  0.49960570
   0.04725722  0.38098189  0.49984976
   0.04783522  0.52402067  0.49986482
   0.04801093  0.66703156  0.49961963
   0.04851753  0.81016580  0.49924574
   0.04871099  0.95336531  0.49900635
   0.19184669  0.09718959  0.49903617
   0.19059025  0.23960313  0.49886734
   0.18935900  0.38052363  0.49887528
   0.19140875  0.52447964  0.49928757
   0.19089851  0.66710926  0.49995414
   0.19104702  0.81040794  0.50000768
   0.19168340  0.95390961  0.49964449
   0.33494294  0.09819945  0.49941846
   0.33620191  0.24241741  0.49847418
   0.33172119  0.52181613  0.49891548
   0.33700719  0.67000793  0.49951656
   0.33316102  0.81011282  0.50009056
   0.33382548  0.95373730  0.50007001
   0.47690499  0.09634513  0.49991388
   0.47799392  0.24144668  0.49936530
   0.47228676  0.80576044  0.49952741
   0.47613741  0.95250359  0.50000374
   0.61882964  0.09458861  0.50003971
   0.62011263  0.23866312  0.50006769
   0.61857186  0.80874810  0.49893615
   0.61770802  0.95006961  0.49939446
   0.76117097  0.09354612  0.49974182
   0.76204673  0.23720897  0.50031648
   0.76167321  0.38057864  0.49999608
   0.75996880  0.52461197  0.49874644
   0.76280229  0.66916802  0.49739515
   0.76135594  0.80425729  0.49734755
   0.76071478  0.94957209  0.49861904
   0.90386524  0.09382228  0.49948487
   0.90413750  0.23730331  0.50009350
   0.90443818  0.38087411  0.50023756
   0.90452928  0.52403423  0.49952920
   0.90490643  0.66658565  0.49865925
   0.90621532  0.81005372  0.49815286
   0.90467739  0.95157860  0.49863104
   0.46733804  0.35980104  0.50008814
   0.40443994  0.55795318  0.50162242
   0.64301770  0.53808207  0.50144766
   0.58147600  0.73601196  0.49987082
   0.55794408  0.58852703  0.49523546
   0.47184394  0.49183873  0.50143532
   0.42691521  0.71529097  0.49903486
   0.71653801  0.71452674  0.49637661
   0.33152356  0.38144078  0.49696163
   0.62105360  0.38024108  0.49883324
   0.52249066  0.53831383  0.53504799
Direct configuration=     4
   0.00022957  0.00015235  0.49889907
   0.99940345  0.14232691  0.49953919
   0.99943766  0.28547970  0.49990041
   0.99985255  0.42860742  0.50002485
   0.99998112  0.57159628  0.49970376
   0.00059650  0.71464307  0.49919034
   0.00156958  0.85821990  0.49879674
   0.14424042  0.00190698  0.49925002
   0.14352143  0.14422496  0.49912214
   0.14184663  0.28566992  0.49908954
   0.14294093  0.42908713  0.49937671
   0.14327003  0.57161272  0.49969984
   0.14343626  0.71471077  0.49993133
   0.14383393  0.85830778  0.49972832
   0.28689681  0.00208692  0.49980116
   0.28744412  0.14622378  0.49885695
   0.28690363  0.29160899  0.49800137
   0.28508336  0.42662758  0.49811896
   0.28775230  0.57112996  0.49911865
   0.28626559  0.71505785  0.49997812
   0.28596139  0.85838916  0.50014741
   0.42922269  0.00098061  0.50004700
   0.43037541  0.14554432  0.49955267
   0.42971899  0.28705220  0.49914986
   0.42790048  0.85689169  0.49997443
   0.57110664  0.99921367  0.49981278
   0.57189233  0.14305322  0.50009888
   0.57579194  0.28982091  0.49951883
   0.57008204  0.85415451  0.49927476
   0.71314334  0.99749094  0.49924949
   0.71420437  0.14186233  0.50010102
   0.71483627  0.28549238  0.50020770
   0.71094017  0.42567484  0.49932114
   0.71585516  0.57388338  0.49844955
   0.71207111  0.85345786  0.49809264
   0.85633474  0.99857606  0.49884639
   0.85635047  0.14173106  0.49978940
   0.85694565  0.28522876  0.50031485
   0.85701217  0.42852081  0.50000643
   0.85639219  0.57118725  0.49882601
   0.85853716  0.71519057  0.49797432
   0.85765514  0.85624379  0.49804909
   0.04796042  0.09561777  0.49925781
   0.04649971  0.23750844  0.49960199
   0.04725845  0.38098385  0.49984759
   0.04783777  0.52402253  0.49986079
   0.04801491  0.66703290  0.49961730
   0.04851982  0.81016775  0.49924058
   0.04871351  0.95336794  0.49899753
   0.19184981  0.09719274  0.49903335
   0.19059380  0.23960673  0.49886283
   0.18936114  0.38052683  0.49887379
   0.19140667  0.52447990  0.49928661
   0.19090154  0.66711161  0.49995281
   0.19105266  0.81041072  0.50000798
   0.19168516  0.95391091  0.49964314
   0.33494472  0.09820084  0.49941852
   0.33620479  0.24242030  0.49847312
   0.33172239  0.52181894  0.49891771
   0.33700870  0.67000979  0.49951614
   0.33316453  0.81011343  0.50009125
   0.33382869  0.95373744  0.50007027
   0.47690977  0.09634761  0.49991554
   0.47799733  0.24144798  0.49936512
   0.47228820  0.80576140  0.49952732
   0.47614098  0.95250459  0.50000526
   0.61883411  0.09459146  0.50004127
   0.62011572  0.23866368  0.50006756
   0.61857444  0.80875056  0.49893742
   0.61770857  0.95006959  0.49939533
   0.76117081  0.09354809  0.49974082
   0.76204692  0.23720932  0.50031498
   0.76166973  0.38056990  0.49999229
   0.75996900  0.52461366  0.49874239
   0.76280246  0.66916977  0.49739129
   0.76135885  0.80425984  0.49734426
   0.76071632  0.94957446  0.49861738
   0.90386556  0.09382478  0.49948129
   0.90413603  0.23730762  0.50009285
   0.90443347  0.38086950  0.50023556
   0.90453031  0.52403512  0.49952318
   0.90490762  0.66658775  0.49865272
   0.90621649  0.81005554  0.49814358
   0.90467915  0.95158168  0.49862557
   0.46734349  0.35980401  0.50008704
   0.40444079  0.55795856  0.50162227
   0.64301799  0.53808460  0.50144781
   0.58148078  0.73601439  0.49987281
   0.55783849  0.58842430  0.49525332
   0.47181596  0.49181148  0.50152498
   0.42691693  0.71529240  0.49903423
   0.71654051  0.71452989  0.49637475
   0.33152582  0.38144415  0.49696815
   0.62105476  0.38024182  0.49883176
   0.52247430  0.53825615  0.53510798
Direct configuration=     5
   0.00023263  0.00015579  0.49888777
   0.99940624  0.14233009  0.49953248
   0.99943956  0.28548225  0.49989793
   0.99985383  0.42860948  0.50002150
   0.99998201  0.57159871  0.49969916
   0.00059864  0.71464546  0.49918419
   0.00157200  0.85822265  0.49878852
   0.14424259  0.00190960  0.49924451
   0.14352432  0.14422841  0.49911457
   0.14184950  0.28567383  0.49908617
   0.14294252  0.42908956  0.49937409
   0.14327237  0.57161569  0.49969844
   0.14343743  0.71471185  0.49992958
   0.14383644  0.85830966  0.49972773
   0.28689968  0.00208951  0.49980105
   0.28744589  0.14622559  0.49885625
   0.28690654  0.29161265  0.49800226
   0.28508572  0.42663107  0.49812267
   0.28775167  0.57113146  0.49912108
   0.28626795  0.71506052  0.49997859
   0.28596301  0.85839095  0.50014831
   0.42922502  0.00098259  0.50004821
   0.43037747  0.14554639  0.49955417
   0.42972192  0.28705461  0.49915022
   0.42790327  0.85689415  0.49997524
   0.57111029  0.99921547  0.49981433
   0.57189439  0.14305567  0.50010093
   0.57579440  0.28982285  0.49951851
   0.57008478  0.85415673  0.49927593
   0.71314474  0.99749299  0.49924874
   0.71420570  0.14186495  0.50010083
   0.71483692  0.28549227  0.50020527
   0.71094221  0.42567636  0.49931698
   0.71585430  0.57388492  0.49844825
   0.71207382  0.85346165  0.49809156
   0.85633695  0.99857890  0.49884228
   0.85635234  0.14173386  0.49978663
   0.85694472  0.28522763  0.50031337
   0.85701262  0.42852166  0.50000058
   0.85639346  0.57119051  0.49882003
   0.85853541  0.71519189  0.49796630
   0.85765888  0.85624757  0.49803980
   0.04796352  0.09562130  0.49924807
   0.04650263  0.23751146  0.49959713
   0.04726080  0.38098674  0.49984476
   0.04783966  0.52402544  0.49985586
   0.04801601  0.66703512  0.49961424
   0.04852093  0.81017017  0.49923430
   0.04871418  0.95337206  0.49898753
   0.19185175  0.09719501  0.49902888
   0.19059668  0.23960962  0.49885659
   0.18936377  0.38053050  0.49887196
   0.19140769  0.52448218  0.49928554
   0.19090219  0.66711350  0.49995010
   0.19105365  0.81041294  0.50000875
   0.19168634  0.95391260  0.49964157
   0.33494594  0.09820232  0.49941874
   0.33620690  0.24242385  0.49847222
   0.33172397  0.52182250  0.49892038
   0.33701038  0.67001220  0.49951575
   0.33316588  0.81011630  0.50009080
   0.33383037  0.95373935  0.50007072
   0.47691099  0.09634991  0.49991753
   0.47799969  0.24144952  0.49936444
   0.47229020  0.80576265  0.49952737
   0.47614334  0.95250692  0.50000718
   0.61883586  0.09459360  0.50004330
   0.62011703  0.23866593  0.50006773
   0.61857833  0.80875334  0.49893890
   0.61770848  0.95006884  0.49939642
   0.76117315  0.09354996  0.49973954
   0.76204941  0.23721177  0.50031313
   0.76167209  0.38057292  0.49998809
   0.75997020  0.52461609  0.49873733
   0.76280292  0.66917200  0.49738629
   0.76136316  0.80426313  0.49733990
   0.76071950  0.94957729  0.49861530
   0.90386879  0.09382821  0.49947671
   0.90413917  0.23731057  0.50009222
   0.90443752  0.38087261  0.50023219
   0.90453179  0.52403813  0.49951566
   0.90490901  0.66659084  0.49864443
   0.90621842  0.81005774  0.49813165
   0.90468254  0.95158566  0.49861831
   0.46734983  0.35980736  0.50008577
   0.40444181  0.55796514  0.50162232
   0.64301857  0.53808766  0.50144825
   0.58148675  0.73601731  0.49987529
   0.55771601  0.58830398  0.49528323
   0.47177710  0.49177057  0.50164509
   0.42691930  0.71529445  0.49903339
   0.71654313  0.71453367  0.49637226
   0.33152868  0.38144788  0.49697578
   0.62105698  0.38024480  0.49882972
   0.52244942  0.53818425  0.53516802
Direct configuration=     6
   0.00023587  0.00016078  0.49887434
   0.99940959  0.14233448  0.49952410
   0.99944044  0.28548574  0.49989497
   0.99985402  0.42861069  0.50001723
   0.99998367  0.57160094  0.49969440
   0.00060308  0.71464723  0.49917633
   0.00157535  0.85822638  0.49877948
   0.14424549  0.00191326  0.49923767
   0.14352879  0.14423315  0.49910520
   0.14185357  0.28567923  0.49908279
   0.14294424  0.42909248  0.49937103
   0.14327516  0.57161956  0.49969679
   0.14344238  0.71471540  0.49992753
   0.14384078  0.85831214  0.49972705
   0.28690368  0.00209232  0.49980099
   0.28744927  0.14622917  0.49885513
   0.28691037  0.29161737  0.49800336
   0.28508909  0.42663537  0.49812736
   0.28775331  0.57113426  0.49912338
   0.28627141  0.71506392  0.49997832
   0.28596982  0.85839240  0.50014897
   0.42922995  0.00098450  0.50004967
   0.43038137  0.14554862  0.49955583
   0.42972611  0.28705780  0.49915024
   0.42790644  0.85689619  0.49997629
   0.57111588  0.99921806  0.49981597
   0.57190007  0.14305868  0.50010344
   0.57579842  0.28982450  0.49951813
   0.57008727  0.85415795  0.49927747
   0.71314602  0.99749549  0.49924801
   0.71420873  0.14186866  0.50010065
   0.71483631  0.28548859  0.50020241
   0.71094384  0.42567634  0.49931207
   0.71585358  0.57388738  0.49844679
   0.71207733  0.85346651  0.49809050
   0.85633779  0.99858114  0.49883816
   0.85635198  0.14173798  0.49978329
   0.85694115  0.28522548  0.50031161
   0.85701187  0.42851995  0.49999352
   0.85639468  0.57119348  0.49881256
   0.85853272  0.71519334  0.49795721
   0.85766301  0.85625231  0.49802870
   0.04796705  0.09562546  0.49923615
   0.04650603  0.23751462  0.49959120
   0.04726381  0.38099018  0.49984127
   0.04784075  0.52402943  0.49985033
   0.04801407  0.66703646  0.49961100
   0.04852204  0.81017347  0.49922716
   0.04871458  0.95337673  0.49897645
   0.19185305  0.09719682  0.49902273
   0.19059907  0.23961263  0.49884906
   0.18936678  0.38053459  0.49887012
   0.19141186  0.52448654  0.49928476
   0.19090267  0.66711615  0.49994787
   0.19105055  0.81041396  0.50000985
   0.19168801  0.95391537  0.49963974
   0.33494749  0.09820474  0.49941920
   0.33620891  0.24242770  0.49847198
   0.33172534  0.52182645  0.49892387
   0.33701218  0.67001526  0.49951580
   0.33316661  0.81012065  0.50009070
   0.33383121  0.95374326  0.50007143
   0.47690946  0.09635196  0.49991990
   0.47800050  0.24145263  0.49936516
   0.47229333  0.80576503  0.49952777
   0.47614522  0.95251085  0.50000945
   0.61883501  0.09459574  0.50004421
   0.62011733  0.23866951  0.50006819
   0.61858327  0.80875668  0.49894078
   0.61771233  0.95007210  0.49939778
   0.76117727  0.09355234  0.49973802
   0.76205265  0.23721521  0.50031096
   0.76167727  0.38058150  0.49998261
   0.75997198  0.52461935  0.49873161
   0.76280318  0.66917464  0.49738060
   0.76136841  0.80426751  0.49733471
   0.76072365  0.94958111  0.49861297
   0.90387430  0.09383234  0.49947108
   0.90414550  0.23731127  0.50009130
   0.90444413  0.38088018  0.50022858
   0.90453225  0.52404098  0.49950787
   0.90491030  0.66659488  0.49863468
   0.90622181  0.81006084  0.49811905
   0.90468735  0.95159036  0.49860898
   0.46735704  0.35981074  0.50008434
   0.40444289  0.55797304  0.50162246
   0.64301890  0.53809103  0.50144888
   0.58149419  0.73602078  0.49987829
   0.55758714  0.58818327  0.49531240
   0.47170388  0.49169300  0.50178262
   0.42692173  0.71529656  0.49903264
   0.71654594  0.71453850  0.49636971
   0.33153169  0.38145199  0.49698502
   0.62106007  0.38024918  0.49882726
   0.52242063  0.53809349  0.53524300
Direct configuration=     7
   0.00023980  0.00016849  0.49885715
   0.99941488  0.14234046  0.49951270
   0.99944442  0.28549073  0.49989104
   0.99985716  0.42861501  0.50001138
   0.99998460  0.57160344  0.49968857
   0.00060529  0.71465117  0.49916615
   0.00157894  0.85823005  0.49876945
   0.14424788  0.00191739  0.49922851
   0.14353404  0.14423860  0.49909245
   0.14185727  0.28568372  0.49907991
   0.14294770  0.42909750  0.49936727
   0.14327758  0.57162398  0.49969431
   0.14344624  0.71472059  0.49992512
   0.14384391  0.85831632  0.49972585
   0.28690678  0.00209605  0.49980102
   0.28745371  0.14623483  0.49885327
   0.28691489  0.29162269  0.49800473
   0.28509383  0.42664132  0.49813361
   0.28775786  0.57114111  0.49912418
   0.28627337  0.71506382  0.49997708
   0.28597333  0.85839648  0.50015075
   0.42923453  0.00098804  0.50005171
   0.43038472  0.14555185  0.49955792
   0.42973081  0.28706275  0.49914991
   0.42790998  0.85689945  0.49997773
   0.57111825  0.99922286  0.49981931
   0.57190357  0.14306168  0.50010661
   0.57580225  0.28982886  0.49951767
   0.57009092  0.85415919  0.49927968
   0.71315002  0.99749930  0.49924726
   0.71421290  0.14187177  0.50010029
   0.71483786  0.28549043  0.50019876
   0.71094703  0.42567962  0.49930580
   0.71585431  0.57389124  0.49844451
   0.71208477  0.85347140  0.49808885
   0.85634147  0.99858550  0.49883311
   0.85635470  0.14174207  0.49977908
   0.85694525  0.28522884  0.50031102
   0.85701459  0.42852256  0.49998440
   0.85639654  0.57119753  0.49880229
   0.85853771  0.71520020  0.49794533
   0.85766956  0.85625887  0.49801443
   0.04797233  0.09563190  0.49922039
   0.04651071  0.23752050  0.49958352
   0.04726662  0.38099424  0.49983659
   0.04784251  0.52403386  0.49984388
   0.04801439  0.66703807  0.49960681
   0.04852626  0.81017826  0.49921852
   0.04871716  0.95338103  0.49896445
   0.19185516  0.09719900  0.49901541
   0.19060244  0.23961674  0.49884247
   0.18937106  0.38054031  0.49886838
   0.19141249  0.52448978  0.49928430
   0.19090688  0.66712124  0.49994619
   0.19105123  0.81041554  0.50001116
   0.19169232  0.95392014  0.49963737
   0.33495177  0.09820954  0.49941995
   0.33621278  0.24243272  0.49847274
   0.33172745  0.52183113  0.49892882
   0.33701538  0.67002000  0.49951642
   0.33317070  0.81012526  0.50009109
   0.33383492  0.95374765  0.50007254
   0.47691147  0.09635491  0.49992298
   0.47800356  0.24145624  0.49936576
   0.47229810  0.80576907  0.49952870
   0.47614995  0.95251523  0.50001226
   0.61883668  0.09459923  0.50004418
   0.62011959  0.23867281  0.50006895
   0.61858889  0.80876104  0.49894337
   0.61771667  0.95007236  0.49939884
   0.76118043  0.09355650  0.49973610
   0.76205415  0.23721714  0.50030827
   0.76167750  0.38058549  0.49997561
   0.75997328  0.52462341  0.49872468
   0.76280232  0.66917800  0.49737376
   0.76137432  0.80427389  0.49732804
   0.76072721  0.94958628  0.49861028
   0.90387897  0.09383718  0.49946360
   0.90414954  0.23731181  0.50008959
   0.90444549  0.38088248  0.50022284
   0.90453188  0.52404234  0.49949892
   0.90491188  0.66659990  0.49862233
   0.90622577  0.81006512  0.49810447
   0.90469154  0.95159597  0.49859771
   0.46736616  0.35981446  0.50008252
   0.40444416  0.55798324  0.50162267
   0.64301850  0.53809486  0.50144981
   0.58150440  0.73602525  0.49988213
   0.55744329  0.58805775  0.49533962
   0.47157298  0.49155473  0.50194896
   0.42692423  0.71529872  0.49903214
   0.71654936  0.71454537  0.49636710
   0.33153537  0.38145763  0.49699729
   0.62106325  0.38025246  0.49882412
   0.52238593  0.53797277  0.53534563
Direct configuration=     8
   0.00024512  0.00017739  0.49883573
   0.99942172  0.14234821  0.49949723
   0.99945475  0.28549575  0.49988739
   0.99986326  0.42862282  0.50000312
   0.99998373  0.57160631  0.49968074
   0.00060474  0.71465772  0.49915304
   0.00158343  0.85823517  0.49875711
   0.14424986  0.00192084  0.49921658
   0.14353932  0.14424620  0.49907717
   0.14186162  0.28568850  0.49907632
   0.14295122  0.42910494  0.49936384
   0.14327655  0.57162616  0.49968905
   0.14344515  0.71472413  0.49992224
   0.14384599  0.85832300  0.49972321
   0.28690981  0.00210226  0.49980084
   0.28745795  0.14624107  0.49885013
   0.28691960  0.29162765  0.49800621
   0.28509887  0.42664919  0.49814088
   0.28775990  0.57114693  0.49912669
   0.28627581  0.71506592  0.49997456
   0.28597108  0.85840298  0.50015341
   0.42923316  0.00099173  0.50005419
   0.43038743  0.14555727  0.49956006
   0.42973536  0.28706858  0.49914875
   0.42791479  0.85690482  0.49997921
   0.57111923  0.99922737  0.49982371
   0.57190212  0.14306527  0.50010977
   0.57580492  0.28983601  0.49951659
   0.57009330  0.85415753  0.49928283
   0.71315652  0.99750435  0.49924593
   0.71421582  0.14187368  0.50009897
   0.71484300  0.28550150  0.50019385
   0.71095111  0.42568854  0.49929749
   0.71585566  0.57389665  0.49844003
   0.71209327  0.85347895  0.49808647
   0.85635036  0.99859385  0.49882799
   0.85636228  0.14174398  0.49977367
   0.85695762  0.28523704  0.50031083
   0.85701881  0.42852994  0.49997269
   0.85639823  0.57120269  0.49878808
   0.85854120  0.71520589  0.49792934
   0.85767578  0.85626516  0.49799998
   0.04797977  0.09564148  0.49919956
   0.04651508  0.23752933  0.49957556
   0.04727268  0.38100071  0.49983205
   0.04784575  0.52403805  0.49983631
   0.04802034  0.66704243  0.49960052
   0.04853342  0.81018396  0.49920813
   0.04872235  0.95338533  0.49895063
   0.19186361  0.09720702  0.49900735
   0.19060912  0.23962411  0.49883677
   0.18937692  0.38054750  0.49886667
   0.19141222  0.52449433  0.49928332
   0.19091409  0.66712755  0.49994470
   0.19106076  0.81042180  0.50001197
   0.19169845  0.95392655  0.49963384
   0.33495845  0.09821687  0.49942044
   0.33621962  0.24243986  0.49847402
   0.33173116  0.52183809  0.49893451
   0.33702044  0.67002532  0.49951670
   0.33317768  0.81012709  0.50009169
   0.33384238  0.95375179  0.50007391
   0.47692032  0.09635941  0.49992653
   0.47800996  0.24146035  0.49936570
   0.47230306  0.80577271  0.49952979
   0.47615695  0.95251885  0.50001534
   0.61884488  0.09460382  0.50004548
   0.62012672  0.23867375  0.50006740
   0.61859698  0.80876586  0.49894606
   0.61772102  0.95007752  0.49940008
   0.76118236  0.09356200  0.49973343
   0.76205624  0.23721885  0.50030492
   0.76167409  0.38058114  0.49996630
   0.75997346  0.52462780  0.49871790
   0.76280201  0.66918352  0.49736712
   0.76138212  0.80428243  0.49731884
   0.76073147  0.94959238  0.49860671
   0.90388203  0.09384269  0.49945353
   0.90415022  0.23731690  0.50008628
   0.90444219  0.38087857  0.50021425
   0.90453244  0.52404368  0.49948805
   0.90491621  0.66660418  0.49860876
   0.90623025  0.81007171  0.49808945
   0.90469556  0.95160332  0.49858305
   0.46737784  0.35981940  0.50007973
   0.40444615  0.55799598  0.50162272
   0.64301744  0.53809908  0.50145109
   0.58151792  0.73603078  0.49988641
   0.55727239  0.58791073  0.49538064
   0.47138811  0.49135637  0.50216833
   0.42692879  0.71530347  0.49903165
   0.71655414  0.71455405  0.49636376
   0.33154113  0.38146575  0.49701206
   0.62106607  0.38025424  0.49881952
   0.52234232  0.53782386  0.53546207
Direct configuration=     9
   0.00025265  0.00018502  0.49880982
   0.99942734  0.14235797  0.49947696
   0.99945758  0.28550408  0.49988132
   0.99986450  0.42862566  0.49999229
   0.99998603  0.57161133  0.49967022
   0.00061012  0.71466436  0.49913707
   0.00159005  0.85824226  0.49874122
   0.14425780  0.00192903  0.49920228
   0.14354877  0.14425643  0.49905927
   0.14187004  0.28569901  0.49907117
   0.14295688  0.42911299  0.49936096
   0.14327988  0.57163312  0.49968374
   0.14345036  0.71472829  0.49991940
   0.14385169  0.85832894  0.49971740
   0.28691881  0.00211160  0.49980077
   0.28746588  0.14624954  0.49884617
   0.28692837  0.29163565  0.49800892