  99  99   0   0
  0.3914025E+02  0.1727104E-08  0.1727104E-08  0.1500000E-08  0.0000000E+00
  1.000000000000000E-004
  CAR 
 unknown system                          
      4.56740306    -31.19985721  301     -2.42211935      1.00000000
    -31.200  0.0000E+00  0.0000E+00  0.0000E+00  0.0000E+00
    -31.081  0.0000E+00  0.0000E+00  0.0000E+00  0.0000E+00
    -30.961  0.0000E+00  0.0000E+00  0.0000E+00  0.0000E+00
    -30.842  0.0000E+00  0.0000E+00  0.0000E+00  0.0000E+00
    -30.723  0.0000E+00  0.0000E+00  0.0000E+00  0.0000E+00
    -30.604  0.0000E+00  0.0000E+00  0.0000E+00  0.0000E+00
    -30.485  0.0000E+00  0.0000E+00  0.0000E+00  0.0000E+00
    -30.365  0.0000E+00  0.0000E+00  0.0000E+00  0.0000E+00
    -30.246  0.0000E+00  0.0000E+00  0.0000E+00  0.0000E+00
    -30.127  0.0000E+00  0.0000E+00  0.0000E+00  0.0000E+00
    -30.008  0.0000E+00  0.0000E+00  0.0000E+00  0.0000E+00
    -29.888  0.0000E+00  0.0000E+00  0.0000E+00  0.0000E+00
    -29.769  0.2883E-09  0.2883E-09  0.3437E-10  0.3437E-10
    -29.650  0.2923E-03  0.2923E-03  0.3484E-04  0.3484E-04
    -29.531  0.2567E-01  0.2567E-01  0.3095E-02  0.3095E-02
    -29.411  0.7589E-02  0.7589E-02  0.4000E-02  0.4000E-02
    -29.292  0.1360E-05  0.1360E-05  0.4000E-02  0.4000E-02
    -29.173  0.7249E-14  0.7249E-14  0.4000E-02  0.4000E-02
    -29.054  0.0000E+00  0.0000E+00  0.4000E-02  0.4000E-02
    -28.935  0.0000E+00  0.0000E+00  0.4000E-02  0.4000E-02
    -28.815  0.0000E+00  0.0000E+00  0.4000E-02  0.4000E-02
    -28.696  0.0000E+00  0.0000E+00  0.4000E-02  0.4000E-02
    -28.577  0.0000E+00  0.0000E+00  0.4000E-02  0.4000E-02
    -28.458  0.0000E+00  0.0000E+00  0.4000E-02  0.4000E-02
    -28.338  0.0000E+00  0.0000E+00  0.4000E-02  0.4000E-02
    -28.219  0.0000E+00  0.0000E+00  0.4000E-02  0.4000E-02
    -28.100  0.0000E+00  0.0000E+00  0.4000E-02  0.4000E-02
    -27.981  0.0000E+00  0.0000E+00  0.4000E-02  0.4000E-02
    -27.862  0.0000E+00  0.0000E+00  0.4000E-02  0.4000E-02
    -27.742  0.0000E+00  0.0000E+00  0.4000E-02  0.4000E-02
    -27.623  0.0000E+00  0.0000E+00  0.4000E-02  0.4000E-02
    -27.504  0.0000E+00  0.0000E+00  0.4000E-02  0.4000E-02
    -27.385  0.0000E+00  0.0000E+00  0.4000E-02  0.4000E-02
    -27.265  0.0000E+00  0.0000E+00  0.4000E-02  0.4000E-02
    -27.146  0.0000E+00  0.0000E+00  0.4000E-02  0.4000E-02
    -27.027  0.0000E+00  0.0000E+00  0.4000E-02  0.4000E-02
    -26.908  0.0000E+00  0.0000E+00  0.4000E-02  0.4000E-02
    -26.789  0.0000E+00  0.0000E+00  0.4000E-02  0.4000E-02
    -26.669  0.0000E+00  0.0000E+00  0.4000E-02  0.4000E-02
    -26.550  0.0000E+00  0.0000E+00  0.4000E-02  0.4000E-02
    -26.431  0.0000E+00  0.0000E+00  0.4000E-02  0.4000E-02
    -26.312  0.0000E+00  0.0000E+00  0.4000E-02  0.4000E-02
    -26.192  0.0000E+00  0.0000E+00  0.4000E-02  0.4000E-02
    -26.073  0.0000E+00  0.0000E+00  0.4000E-02  0.4000E-02
    -25.954  0.0000E+00  0.0000E+00  0.4000E-02  0.4000E-02
    -25.835  0.0000E+00  0.0000E+00  0.4000E-02  0.4000E-02
    -25.716  0.0000E+00  0.0000E+00  0.4000E-02  0.4000E-02
    -25.596  0.0000E+00  0.0000E+00  0.4000E-02  0.4000E-02
    -25.477  0.0000E+00  0.0000E+00  0.4000E-02  0.4000E-02
    -25.358  0.0000E+00  0.0000E+00  0.4000E-02  0.4000E-02
    -25.239  0.0000E+00  0.0000E+00  0.4000E-02  0.4000E-02
    -25.119  0.0000E+00  0.0000E+00  0.4000E-02  0.4000E-02
    -25.000  0.0000E+00  0.0000E+00  0.4000E-02  0.4000E-02
    -24.881  0.0000E+00  0.0000E+00  0.4000E-02  0.4000E-02
    -24.762  0.0000E+00  0.0000E+00  0.4000E-02  0.4000E-02
    -24.643  0.0000E+00  0.0000E+00  0.4000E-02  0.4000E-02
    -24.523  0.0000E+00  0.0000E+00  0.4000E-02  0.4000E-02
    -24.404  0.0000E+00  0.0000E+00  0.4000E-02  0.4000E-02
    -24.285  0.0000E+00  0.0000E+00  0.4000E-02  0.4000E-02
    -24.166  0.0000E+00  0.0000E+00  0.4000E-02  0.4000E-02
    -24.046  0.0000E+00  0.0000E+00  0.4000E-02  0.4000E-02
    -23.927  0.0000E+00  0.0000E+00  0.4000E-02  0.4000E-02
    -23.808  0.0000E+00  0.0000E+00  0.4000E-02  0.4000E-02
    -23.689  0.3124E-08  0.3124E-08  0.4000E-02  0.4000E-02
    -23.570  0.7314E-03  0.7314E-03  0.4087E-02  0.4087E-02
    -23.450  0.1523E-01  0.1523E-01  0.5903E-02  0.5903E-02
    -23.331  0.8099E-03  0.8099E-03  0.6000E-02  0.6000E-02
    -23.212  0.4030E-08  0.4030E-08  0.6000E-02  0.6000E-02
    -23.093  0.0000E+00  0.0000E+00  0.6000E-02  0.6000E-02
    -22.973  0.0000E+00  0.0000E+00  0.6000E-02  0.6000E-02
    -22.854  0.0000E+00  0.0000E+00  0.6000E-02  0.6000E-02
    -22.735  0.0000E+00  0.0000E+00  0.6000E-02  0.6000E-02
    -22.616  0.0000E+00  0.0000E+00  0.6000E-02  0.6000E-02
    -22.496  0.0000E+00  0.0000E+00  0.6000E-02  0.6000E-02
    -22.377  0.0000E+00  0.0000E+00  0.6000E-02  0.6000E-02
    -22.258  0.0000E+00  0.0000E+00  0.6000E-02  0.6000E-02
    -22.139  0.0000E+00  0.0000E+00  0.6000E-02  0.6000E-02
    -22.020  0.6123E-10  0.6123E-10  0.6000E-02  0.6000E-02
    -21.900  0.6323E-04  0.6323E-04  0.6008E-02  0.6008E-02
    -21.781  0.6839E-02  0.6839E-02  0.6823E-02  0.6823E-02
    -21.662  0.1736E-01  0.1736E-01  0.8893E-02  0.8893E-02
    -21.543  0.5333E-02  0.5333E-02  0.9529E-02  0.9529E-02
    -21.423  0.1654E-01  0.1654E-01  0.1150E-01  0.1150E-01
    -21.304  0.1856E-01  0.1856E-01  0.1371E-01  0.1371E-01
    -21.185  0.7855E-02  0.7855E-02  0.1465E-01  0.1465E-01
    -21.066  0.5074E-02  0.5074E-02  0.1526E-01  0.1526E-01
    -20.947  0.2447E-01  0.2447E-01  0.1817E-01  0.1817E-01
    -20.827  0.1867E-01  0.1867E-01  0.2040E-01  0.2040E-01
    -20.708  0.9175E-02  0.9175E-02  0.2149E-01  0.2149E-01
    -20.589  0.3214E-02  0.3214E-02  0.2188E-01  0.2188E-01
    -20.470  0.1323E-01  0.1323E-01  0.2345E-01  0.2345E-01
    -20.350  0.2021E-01  0.2021E-01  0.2586E-01  0.2586E-01
    -20.231  0.2480E-01  0.2480E-01  0.2882E-01  0.2882E-01
    -20.112  0.1198E-01  0.1198E-01  0.3025E-01  0.3025E-01
    -19.993  0.3610E-02  0.3610E-02  0.3068E-01  0.3068E-01
    -19.874  0.1427E-01  0.1427E-01  0.3238E-01  0.3238E-01
    -19.754  0.1143E-01  0.1143E-01  0.3374E-01  0.3374E-01
    -19.635  0.7426E-02  0.7426E-02  0.3463E-01  0.3463E-01
    -19.516  0.2646E-01  0.2646E-01  0.3778E-01  0.3778E-01
    -19.397  0.2556E-01  0.2556E-01  0.4083E-01  0.4083E-01
    -19.277  0.5838E-02  0.5838E-02  0.4153E-01  0.4153E-01
    -19.158  0.1295E-01  0.1295E-01  0.4307E-01  0.4307E-01
    -19.039  0.1337E-01  0.1337E-01  0.4466E-01  0.4466E-01
    -18.920  0.9132E-02  0.9132E-02  0.4575E-01  0.4575E-01
    -18.801  0.7427E-02  0.7427E-02  0.4664E-01  0.4664E-01
    -18.681  0.1360E-01  0.1360E-01  0.4826E-01  0.4826E-01
    -18.562  0.2772E-01  0.2772E-01  0.5156E-01  0.5156E-01
    -18.443  0.2141E-01  0.2141E-01  0.5412E-01  0.5412E-01
    -18.324  0.9240E-02  0.9240E-02  0.5522E-01  0.5522E-01
    -18.204  0.1751E-01  0.1751E-01  0.5731E-01  0.5731E-01
    -18.085  0.1220E-01  0.1220E-01  0.5876E-01  0.5876E-01
    -17.966  0.1599E-01  0.1599E-01  0.6067E-01  0.6067E-01
    -17.847  0.7490E-02  0.7490E-02  0.6156E-01  0.6156E-01
    -17.728  0.1002E-01  0.1002E-01  0.6276E-01  0.6276E-01
    -17.608  0.6991E-02  0.6991E-02  0.6359E-01  0.6359E-01
    -17.489  0.2565E-01  0.2565E-01  0.6665E-01  0.6665E-01
    -17.370  0.3000E-01  0.3000E-01  0.7022E-01  0.7022E-01
    -17.251  0.1964E-01  0.1964E-01  0.7256E-01  0.7256E-01
    -17.131  0.1608E-01  0.1608E-01  0.7448E-01  0.7448E-01
    -17.012  0.9165E-02  0.9165E-02  0.7557E-01  0.7557E-01
    -16.893  0.1689E-01  0.1689E-01  0.7759E-01  0.7759E-01
    -16.774  0.1713E-01  0.1713E-01  0.7963E-01  0.7963E-01
    -16.655  0.9648E-02  0.9648E-02  0.8078E-01  0.8078E-01
    -16.535  0.1029E-01  0.1029E-01  0.8201E-01  0.8201E-01
    -16.416  0.1650E-01  0.1650E-01  0.8397E-01  0.8397E-01
    -16.297  0.3174E-01  0.3174E-01  0.8776E-01  0.8776E-01
    -16.178  0.1522E-01  0.1522E-01  0.8957E-01  0.8957E-01
    -16.058  0.4294E-02  0.4294E-02  0.9009E-01  0.9009E-01
    -15.939  0.1071E-01  0.1071E-01  0.9136E-01  0.9136E-01
    -15.820  0.1245E-02  0.1245E-02  0.9151E-01  0.9151E-01
    -15.701  0.6080E-02  0.6080E-02  0.9224E-01  0.9224E-01
    -15.581  0.2485E-02  0.2485E-02  0.9253E-01  0.9253E-01
    -15.462  0.1343E-01  0.1343E-01  0.9413E-01  0.9413E-01
    -15.343  0.1315E-01  0.1315E-01  0.9570E-01  0.9570E-01
    -15.224  0.2019E-01  0.2019E-01  0.9811E-01  0.9811E-01
    -15.105  0.1107E-01  0.1107E-01  0.9943E-01  0.9943E-01
    -14.985  0.2332E-01  0.2332E-01  0.1022E+00  0.1022E+00
    -14.866  0.2734E-01  0.2734E-01  0.1055E+00  0.1055E+00
    -14.747  0.5301E-02  0.5301E-02  0.1061E+00  0.1061E+00
    -14.628  0.1175E-01  0.1175E-01  0.1075E+00  0.1075E+00
    -14.508  0.2686E-01  0.2686E-01  0.1107E+00  0.1107E+00
    -14.389  0.1668E-01  0.1668E-01  0.1127E+00  0.1127E+00
    -14.270  0.2013E-01  0.2013E-01  0.1151E+00  0.1151E+00
    -14.151  0.2316E-01  0.2316E-01  0.1179E+00  0.1179E+00
    -14.032  0.1399E-01  0.1399E-01  0.1195E+00  0.1195E+00
    -13.912  0.1377E-01  0.1377E-01  0.1212E+00  0.1212E+00
    -13.793  0.6743E-02  0.6743E-02  0.1220E+00  0.1220E+00
    -13.674  0.1240E-01  0.1240E-01  0.1234E+00  0.1234E+00
    -13.555  0.1753E-01  0.1753E-01  0.1255E+00  0.1255E+00
    -13.435  0.1729E-01  0.1729E-01  0.1276E+00  0.1276E+00
    -13.316  0.1536E-01  0.1536E-01  0.1294E+00  0.1294E+00
    -13.197  0.1557E-01  0.1557E-01  0.1313E+00  0.1313E+00
    -13.078  0.1094E-01  0.1094E-01  0.1326E+00  0.1326E+00
    -12.959  0.5036E-02  0.5036E-02  0.1332E+00  0.1332E+00
    -12.839  0.2005E-01  0.2005E-01  0.1356E+00  0.1356E+00
    -12.720  0.1441E-01  0.1441E-01  0.1373E+00  0.1373E+00
    -12.601  0.2099E-01  0.2099E-01  0.1398E+00  0.1398E+00
    -12.482  0.1986E-01  0.1986E-01  0.1422E+00  0.1422E+00
    -12.362  0.2560E-01  0.2560E-01  0.1452E+00  0.1452E+00
    -12.243  0.1975E-01  0.1975E-01  0.1476E+00  0.1476E+00
    -12.124  0.1569E-01  0.1569E-01  0.1494E+00  0.1494E+00
    -12.005  0.9609E-02  0.9609E-02  0.1506E+00  0.1506E+00
    -11.886  0.1273E-01  0.1273E-01  0.1521E+00  0.1521E+00
    -11.766  0.1998E-01  0.1998E-01  0.1545E+00  0.1545E+00
    -11.647  0.1639E-01  0.1639E-01  0.1564E+00  0.1564E+00
    -11.528  0.2432E-01  0.2432E-01  0.1593E+00  0.1593E+00
    -11.409  0.2824E-01  0.2824E-01  0.1627E+00  0.1627E+00
    -11.289  0.1870E-01  0.1870E-01  0.1649E+00  0.1649E+00
    -11.170  0.2790E-01  0.2790E-01  0.1683E+00  0.1683E+00
    -11.051  0.2086E-01  0.2086E-01  0.1708E+00  0.1708E+00
    -10.932  0.2092E-01  0.2092E-01  0.1732E+00  0.1732E+00
    -10.813  0.3312E-01  0.3312E-01  0.1772E+00  0.1772E+00
    -10.693  0.7487E-02  0.7487E-02  0.1781E+00  0.1781E+00
    -10.574  0.8844E-02  0.8844E-02  0.1791E+00  0.1791E+00
    -10.455  0.1424E-01  0.1424E-01  0.1808E+00  0.1808E+00
    -10.336  0.1604E-01  0.1604E-01  0.1828E+00  0.1828E+00
    -10.216  0.3142E-01  0.3142E-01  0.1865E+00  0.1865E+00
    -10.097  0.3742E-01  0.3742E-01  0.1910E+00  0.1910E+00
     -9.978  0.3967E-01  0.3967E-01  0.1957E+00  0.1957E+00
     -9.859  0.3303E-01  0.3303E-01  0.1996E+00  0.1996E+00
     -9.740  0.3987E-01  0.3987E-01  0.2044E+00  0.2044E+00
     -9.620  0.2963E-01  0.2963E-01  0.2079E+00  0.2079E+00
     -9.501  0.1828E-01  0.1828E-01  0.2101E+00  0.2101E+00
     -9.382  0.4765E-01  0.4765E-01  0.2158E+00  0.2158E+00
     -9.263  0.2302E-01  0.2302E-01  0.2185E+00  0.2185E+00
     -9.143  0.4496E-01  0.4496E-01  0.2239E+00  0.2239E+00
     -9.024  0.4244E-01  0.4244E-01  0.2289E+00  0.2289E+00
     -8.905  0.4742E-01  0.4742E-01  0.2346E+00  0.2346E+00
     -8.786  0.5621E-01  0.5621E-01  0.2413E+00  0.2413E+00
     -8.666  0.4969E-01  0.4969E-01  0.2472E+00  0.2472E+00
     -8.547  0.3726E-01  0.3726E-01  0.2517E+00  0.2517E+00
     -8.428  0.3600E-01  0.3600E-01  0.2560E+00  0.2560E+00
     -8.309  0.3529E-01  0.3529E-01  0.2602E+00  0.2602E+00
     -8.190  0.4248E-01  0.4248E-01  0.2652E+00  0.2652E+00
     -8.070  0.3964E-01  0.3964E-01  0.2699E+00  0.2699E+00
     -7.951  0.4084E-01  0.4084E-01  0.2748E+00  0.2748E+00
     -7.832  0.3288E-01  0.3288E-01  0.2787E+00  0.2787E+00
     -7.713  0.3539E-01  0.3539E-01  0.2830E+00  0.2830E+00
     -7.593  0.3107E-01  0.3107E-01  0.2867E+00  0.2867E+00
     -7.474  0.2100E-01  0.2100E-01  0.2892E+00  0.2892E+00
     -7.355  0.2322E-01  0.2322E-01  0.2919E+00  0.2919E+00
     -7.236  0.4394E-01  0.4394E-01  0.2972E+00  0.2972E+00
     -7.117  0.4573E-01  0.4573E-01  0.3026E+00  0.3026E+00
     -6.997  0.3714E-01  0.3714E-01  0.3071E+00  0.3071E+00
     -6.878  0.2647E-01  0.2647E-01  0.3102E+00  0.3102E+00
     -6.759  0.2024E-01  0.2024E-01  0.3126E+00  0.3126E+00
     -6.640  0.2106E-01  0.2106E-01  0.3151E+00  0.3151E+00
     -6.520  0.2833E-01  0.2833E-01  0.3185E+00  0.3185E+00
     -6.401  0.1892E-01  0.1892E-01  0.3208E+00  0.3208E+00
     -6.282  0.2647E-01  0.2647E-01  0.3239E+00  0.3239E+00
     -6.163  0.3122E-01  0.3122E-01  0.3276E+00  0.3276E+00
     -6.044  0.3728E-01  0.3728E-01  0.3321E+00  0.3321E+00
     -5.924  0.1759E-01  0.1759E-01  0.3342E+00  0.3342E+00
     -5.805  0.3487E-01  0.3487E-01  0.3383E+00  0.3383E+00
     -5.686  0.2707E-01  0.2707E-01  0.3416E+00  0.3416E+00
     -5.567  0.2260E-01  0.2260E-01  0.3443E+00  0.3443E+00
     -5.447  0.1967E-01  0.1967E-01  0.3466E+00  0.3466E+00
     -5.328  0.2169E-01  0.2169E-01  0.3492E+00  0.3492E+00
     -5.209  0.5170E-02  0.5170E-02  0.3498E+00  0.3498E+00
     -5.090  0.7686E-02  0.7686E-02  0.3507E+00  0.3507E+00
     -4.971  0.4241E-01  0.4241E-01  0.3558E+00  0.3558E+00
     -4.851  0.3842E-01  0.3842E-01  0.3604E+00  0.3604E+00
     -4.732  0.2123E-01  0.2123E-01  0.3629E+00  0.3629E+00
     -4.613  0.1046E-01  0.1046E-01  0.3641E+00  0.3641E+00
     -4.494  0.1835E-01  0.1835E-01  0.3663E+00  0.3663E+00
     -4.374  0.1657E-02  0.1657E-02  0.3665E+00  0.3665E+00
     -4.255  0.9678E-02  0.9678E-02  0.3677E+00  0.3677E+00
     -4.136  0.1431E-01  0.1431E-01  0.3694E+00  0.3694E+00
     -4.017  0.1564E-01  0.1564E-01  0.3713E+00  0.3713E+00
     -3.898  0.1288E-01  0.1288E-01  0.3728E+00  0.3728E+00
     -3.778  0.1523E-01  0.1523E-01  0.3746E+00  0.3746E+00
     -3.659  0.1144E-01  0.1144E-01  0.3760E+00  0.3760E+00
     -3.540  0.2696E-03  0.2696E-03  0.3760E+00  0.3760E+00
     -3.421  0.1756E-03  0.1756E-03  0.3760E+00  0.3760E+00
     -3.301  0.5364E-02  0.5364E-02  0.3767E+00  0.3767E+00
     -3.182  0.1318E-01  0.1318E-01  0.3782E+00  0.3782E+00
     -3.063  0.2358E-02  0.2358E-02  0.3785E+00  0.3785E+00
     -2.944  0.3763E-02  0.3763E-02  0.3790E+00  0.3790E+00
     -2.824  0.3236E-03  0.3236E-03  0.3790E+00  0.3790E+00
     -2.705  0.7335E-04  0.7335E-04  0.3790E+00  0.3790E+00
     -2.586  0.6611E-02  0.6611E-02  0.3798E+00  0.3798E+00
     -2.467  0.1703E-02  0.1703E-02  0.3800E+00  0.3800E+00
     -2.348  0.4735E-05  0.4735E-05  0.3800E+00  0.3800E+00
     -2.228  0.3553E-02  0.3553E-02  0.3804E+00  0.3804E+00
     -2.109  0.4812E-02  0.4812E-02  0.3810E+00  0.3810E+00
     -1.990  0.1818E-04  0.1818E-04  0.3810E+00  0.3810E+00
     -1.871  0.8386E-04  0.8386E-04  0.3810E+00  0.3810E+00
     -1.751  0.4484E-02  0.4484E-02  0.3815E+00  0.3815E+00
     -1.632  0.4798E-02  0.4798E-02  0.3821E+00  0.3821E+00
     -1.513  0.1452E-01  0.1452E-01  0.3838E+00  0.3838E+00
     -1.394  0.1278E-02  0.1278E-02  0.3840E+00  0.3840E+00
     -1.275  0.1083E-02  0.1083E-02  0.3841E+00  0.3841E+00
     -1.155  0.1156E-01  0.1156E-01  0.3855E+00  0.3855E+00
     -1.036  0.1210E-01  0.1210E-01  0.3870E+00  0.3870E+00
     -0.917  0.9087E-02  0.9087E-02  0.3880E+00  0.3880E+00
     -0.798  0.3052E-01  0.3052E-01  0.3917E+00  0.3917E+00
     -0.678  0.1883E-01  0.1883E-01  0.3939E+00  0.3939E+00
     -0.559  0.1165E-01  0.1165E-01  0.3953E+00  0.3953E+00
     -0.440  0.2602E-01  0.2602E-01  0.3984E+00  0.3984E+00
     -0.321  0.1385E-01  0.1385E-01  0.4001E+00  0.4001E+00
     -0.202  0.8253E-02  0.8253E-02  0.4010E+00  0.4010E+00
     -0.082  0.1451E-01  0.1451E-01  0.4028E+00  0.4028E+00
      0.037  0.1634E-01  0.1634E-01  0.4047E+00  0.4047E+00
      0.156  0.2195E-01  0.2195E-01  0.4073E+00  0.4073E+00
      0.275  0.2538E-01  0.2538E-01  0.4104E+00  0.4104E+00
      0.395  0.1119E-01  0.1119E-01  0.4117E+00  0.4117E+00
      0.514  0.2566E-02  0.2566E-02  0.4120E+00  0.4120E+00
      0.633  0.7794E-02  0.7794E-02  0.4129E+00  0.4129E+00
      0.752  0.2005E-01  0.2005E-01  0.4153E+00  0.4153E+00
      0.871  0.2799E-01  0.2799E-01  0.4187E+00  0.4187E+00
      0.991  0.1063E-01  0.1063E-01  0.4199E+00  0.4199E+00
      1.110  0.1922E-01  0.1922E-01  0.4222E+00  0.4222E+00
      1.229  0.1540E-01  0.1540E-01  0.4241E+00  0.4241E+00
      1.348  0.1453E-01  0.1453E-01  0.4258E+00  0.4258E+00
      1.468  0.2317E-01  0.2317E-01  0.4286E+00  0.4286E+00
      1.587  0.3970E-01  0.3970E-01  0.4333E+00  0.4333E+00
      1.706  0.2625E-01  0.2625E-01  0.4364E+00  0.4364E+00
      1.825  0.2624E-01  0.2624E-01  0.4395E+00  0.4395E+00
      1.944  0.1860E-01  0.1860E-01  0.4418E+00  0.4418E+00
      2.064  0.3738E-01  0.3738E-01  0.4462E+00  0.4462E+00
      2.183  0.3439E-01  0.3439E-01  0.4503E+00  0.4503E+00
      2.302  0.3907E-01  0.3907E-01  0.4550E+00  0.4550E+00
      2.421  0.3989E-01  0.3989E-01  0.4597E+00  0.4597E+00
      2.541  0.4140E-01  0.4140E-01  0.4647E+00  0.4647E+00
      2.660  0.1503E-01  0.1503E-01  0.4665E+00  0.4665E+00
      2.779  0.3135E-01  0.3134E-01  0.4702E+00  0.4702E+00
      2.898  0.5599E-01  0.5599E-01  0.4769E+00  0.4769E+00
      3.017  0.2614E-01  0.2614E-01  0.4800E+00  0.4800E+00
      3.137  0.1047E-03  0.1047E-03  0.4800E+00  0.4800E+00
      3.256  0.7588E-10  0.7584E-10  0.4800E+00  0.4800E+00
      3.375  0.0000E+00  0.0000E+00  0.4800E+00  0.4800E+00
      3.494  0.0000E+00  0.0000E+00  0.4800E+00  0.4800E+00
      3.614  0.0000E+00  0.0000E+00  0.4800E+00  0.4800E+00
      3.733  0.0000E+00  0.0000E+00  0.4800E+00  0.4800E+00
      3.852  0.0000E+00  0.0000E+00  0.4800E+00  0.4800E+00
      3.971  0.0000E+00  0.0000E+00  0.4800E+00  0.4800E+00
      4.091  0.0000E+00  0.0000E+00  0.4800E+00  0.4800E+00
      4.210  0.0000E+00  0.0000E+00  0.4800E+00  0.4800E+00
      4.329  0.0000E+00  0.0000E+00  0.4800E+00  0.4800E+00
      4.448  0.0000E+00  0.0000E+00  0.4800E+00  0.4800E+00
      4.567  0.0000E+00  0.0000E+00  0.4800E+00  0.4800E+00
