 vasp.6.4.2 20Jul23 (build Aug 26 2025 15:10:52) complex                        
  
 POSCAR found type information on POSCAR C H F O 
 05/POSCAR found :  4 types and      99 ions
 Reading from existing POTCAR
 scaLAPACK will be used
 -----------------------------------------------------------------------------
|                                                                             |
|           W    W    AA    RRRRR   N    N  II  N    N   GGGG   !!!           |
|           W    W   A  A   R    R  NN   N  II  NN   N  G    G  !!!           |
|           W    W  A    A  R    R  N N  N  II  N N  N  G       !!!           |
|           W WW W  AAAAAA  RRRRR   N  N N  II  N  N N  G  GGG   !            |
|           WW  WW  A    A  R   R   N   NN  II  N   NN  G    G                |
|           W    W  A    A  R    R  N    N  II  N    N   GGGG   !!!           |
|                                                                             |
|     For optimal performance we recommend to set                             |
|       NCORE = 2 up to number-of-cores-per-socket                            |
|     NCORE specifies how many cores store one orbital (NPAR=cpu/NCORE).      |
|     This setting can greatly improve the performance of VASP for DFT.       |
|     The default, NCORE=1 might be grossly inefficient on modern             |
|     multi-core architectures or massively parallel machines. Do your        |
|     own testing! More info at https://www.vasp.at/wiki/index.php/NCORE      |
|     Unfortunately you need to use the default for GW and RPA                |
|     calculations (for HF NCORE is supported but not extensively tested      |
|     yet).                                                                   |
|                                                                             |
 -----------------------------------------------------------------------------

 Reading from existing POTCAR
 LDA part: xc-table for Pade appr. of Perdew
 POSCAR found type information on POSCAR C H F O 
 00/POSCAR found :  4 types and      99 ions
 POSCAR found type information on POSCAR C H F O 
 06/POSCAR found :  4 types and      99 ions
 Jacobian:    33.7825262909836     
 POSCAR found type information on POSCAR C H F O 
 00/POSCAR found :  4 types and      99 ions
 POSCAR found type information on POSCAR C H F O 
 06/POSCAR found :  4 types and      99 ions
 POSCAR, INCAR and KPOINTS ok, starting setup
 FFT: planning ... GRIDC
 FFT: planning ... GRID_SOFT
 FFT: planning ... GRID
 WAVECAR not read
 entering main loop
       N       E                     dE             d eps       ncg     rms          rms(c)
DAV:   1     0.355704390565E+04    0.35570E+04   -0.14461E+05  4200   0.120E+03
DAV:   2    -0.200936957977E+03   -0.37580E+04   -0.35760E+04  5630   0.290E+02
DAV:   3    -0.887411153546E+03   -0.68647E+03   -0.68346E+03  4610   0.130E+02
DAV:   4    -0.912797253446E+03   -0.25386E+02   -0.25234E+02  4570   0.316E+01
DAV:   5    -0.913576907575E+03   -0.77965E+00   -0.77806E+00  5320   0.483E+00    0.439E+01
DAV:   6    -0.880243944944E+03    0.33333E+02   -0.21760E+01  4370   0.932E+00    0.334E+01
DAV:   7    -0.852052642895E+03    0.28191E+02   -0.10594E+02  4250   0.186E+01    0.134E+01
DAV:   8    -0.851688094259E+03    0.36455E+00   -0.68730E+00  4550   0.605E+00    0.656E+00
DAV:   9    -0.851786617504E+03   -0.98523E-01   -0.13077E+00  4390   0.259E+00    0.277E+00
DAV:  10    -0.851643044473E+03    0.14357E+00   -0.44952E-01  4590   0.157E+00    0.116E+00
DAV:  11    -0.851629561244E+03    0.13483E-01   -0.13546E-01  4350   0.790E-01    0.324E-01
DAV:  12    -0.851627407471E+03    0.21538E-02   -0.21400E-02  4530   0.397E-01    0.144E-01
DAV:  13    -0.851627598202E+03   -0.19073E-03   -0.37463E-03  4580   0.138E-01    0.109E-01
DAV:  14    -0.851627579147E+03    0.19055E-04   -0.10103E-03  4490   0.748E-02    0.523E-02
DAV:  15    -0.851627611349E+03   -0.32203E-04   -0.11326E-04  4770   0.301E-02    0.348E-02
DAV:  16    -0.851627639309E+03   -0.27960E-04   -0.71510E-05  4920   0.246E-02    0.136E-02
DAV:  17    -0.851627636570E+03    0.27395E-05   -0.31359E-05  4320   0.132E-02    0.625E-03
DAV:  18    -0.851627637412E+03   -0.84171E-06   -0.72766E-06  4350   0.663E-03
   1 F= -.85953553E+03 E0= -.85953553E+03  d E =-.859536E+03  mag=     0.0000
quench:  g(F)=  0.000E+00 g(S)=  0.000E+00 dE (1.order)= 0.000E+00
 bond charge predicted
       N       E                     dE             d eps       ncg     rms          rms(c)
DAV:   1    -0.851627690510E+03   -0.53940E-04   -0.14836E-03  4000   0.869E-02    0.839E-03
DAV:   2    -0.851627692820E+03   -0.23097E-05   -0.33207E-05  4480   0.121E-02    0.741E-03
DAV:   3    -0.851627692258E+03    0.56216E-06   -0.11333E-06  2560   0.253E-03
   2 F= -.85953558E+03 E0= -.85953558E+03  d E =-.482131E-04  mag=    -0.0000
quench:  g(F)=  0.000E+00 g(S)=  0.000E+00 dE (1.order)= 0.000E+00
 bond charge predicted
       N       E                     dE             d eps       ncg     rms          rms(c)
DAV:   1    -0.851627770795E+03   -0.77975E-04   -0.36672E-03  4040   0.129E-01    0.135E-02
DAV:   2    -0.851627775013E+03   -0.42176E-05   -0.61772E-05  4100   0.161E-02    0.115E-02
DAV:   3    -0.851627774413E+03    0.59944E-06   -0.18159E-06  3310   0.322E-03
   3 F= -.85953565E+03 E0= -.85953565E+03  d E =-.677039E-04  mag=    -0.0000
quench:  g(F)=  0.000E+00 g(S)=  0.000E+00 dE (1.order)= 0.000E+00
 bond charge predicted
       N       E                     dE             d eps       ncg     rms          rms(c)
DAV:   1    -0.851627911845E+03   -0.13683E-03   -0.76116E-03  4080   0.184E-01    0.186E-02
DAV:   2    -0.851627920770E+03   -0.89244E-05   -0.12593E-04  4040   0.229E-02    0.155E-02
DAV:   3    -0.851627920011E+03    0.75897E-06   -0.33976E-06  3880   0.431E-03
   4 F= -.85953577E+03 E0= -.85953577E+03  d E =-.123392E-03  mag=    -0.0000
quench:  g(F)=  0.000E+00 g(S)=  0.000E+00 dE (1.order)= 0.000E+00
 bond charge predicted
       N       E                     dE             d eps       ncg     rms          rms(c)
DAV:   1    -0.851628076964E+03   -0.15619E-03   -0.13579E-02  4060   0.246E-01    0.252E-02
DAV:   2    -0.851628092521E+03   -0.15557E-04   -0.22199E-04  4060   0.304E-02    0.212E-02
DAV:   3    -0.851628091224E+03    0.12965E-05   -0.65518E-06  4420   0.589E-03    0.152E-02
DAV:   4    -0.851628093757E+03   -0.25328E-05   -0.89135E-06  3820   0.699E-03    0.332E-03
DAV:   5    -0.851628093772E+03   -0.15381E-07   -0.24464E-06  3380   0.304E-03
   5 F= -.85953591E+03 E0= -.85953591E+03  d E =-.145530E-03  mag=     0.0000
quench:  g(F)=  0.000E+00 g(S)=  0.000E+00 dE (1.order)= 0.000E+00
 bond charge predicted
       N       E                     dE             d eps       ncg     rms          rms(c)
DAV:   1    -0.851628291469E+03   -0.19771E-03   -0.20412E-02  4080   0.298E-01    0.294E-02
DAV:   2    -0.851628315845E+03   -0.24376E-04   -0.34711E-04  4000   0.377E-02    0.246E-02
DAV:   3    -0.851628313115E+03    0.27297E-05   -0.91791E-06  4520   0.711E-03    0.179E-02
DAV:   4    -0.851628316063E+03   -0.29476E-05   -0.14956E-05  3820   0.891E-03    0.403E-03
DAV:   5    -0.851628316102E+03   -0.38817E-07   -0.39463E-06  3900   0.386E-03
   6 F= -.85953610E+03 E0= -.85953610E+03  d E =-.188089E-03  mag=     0.0000
quench:  g(F)=  0.000E+00 g(S)=  0.000E+00 dE (1.order)= 0.000E+00
 bond charge predicted
       N       E                     dE             d eps       ncg     rms          rms(c)
DAV:   1    -0.851628532082E+03   -0.21602E-03   -0.30175E-02  4080   0.365E-01    0.357E-02
DAV:   2    -0.851628570465E+03   -0.38383E-04   -0.53525E-04  4000   0.468E-02    0.297E-02
DAV:   3    -0.851628566526E+03    0.39384E-05   -0.14024E-05  4640   0.869E-03    0.220E-02
DAV:   4    -0.851628570511E+03   -0.39852E-05   -0.21571E-05  3880   0.109E-02    0.520E-03
DAV:   5    -0.851628570769E+03   -0.25809E-06   -0.55389E-06  4100   0.455E-03
   7 F= -.85953632E+03 E0= -.85953632E+03  d E =-.213047E-03  mag=     0.0000
quench:  g(F)=  0.000E+00 g(S)=  0.000E+00 dE (1.order)= 0.000E+00
 bond charge predicted
       N       E                     dE             d eps       ncg     rms          rms(c)
DAV:   1    -0.851628834005E+03   -0.26349E-03   -0.51000E-02  3960   0.474E-01    0.462E-02
DAV:   2    -0.851628900366E+03   -0.66361E-04   -0.91932E-04  4000   0.609E-02    0.378E-02
DAV:   3    -0.851628894729E+03    0.56373E-05   -0.21377E-05  4590   0.108E-02    0.281E-02
DAV:   4    -0.851628902600E+03   -0.78711E-05   -0.35263E-05  3980   0.139E-02    0.629E-03
DAV:   5    -0.851628903066E+03   -0.46645E-06   -0.86026E-06  4260   0.567E-03
   8 F= -.85953659E+03 E0= -.85953659E+03  d E =-.277406E-03  mag=    -0.0000
quench:  g(F)=  0.000E+00 g(S)=  0.000E+00 dE (1.order)= 0.000E+00
 bond charge predicted
       N       E                     dE             d eps       ncg     rms          rms(c)
DAV:   1    -0.851629172986E+03   -0.27039E-03   -0.85373E-02  3920   0.616E-01    0.596E-02
DAV:   2    -0.851629287874E+03   -0.11489E-03   -0.15780E-03  3980   0.798E-02    0.486E-02
DAV:   3    -0.851629278522E+03    0.93522E-05   -0.36192E-05  4610   0.140E-02    0.365E-02
DAV:   4    -0.851629292007E+03   -0.13485E-04   -0.58575E-05  4160   0.181E-02    0.831E-03
DAV:   5    -0.851629293015E+03   -0.10081E-05   -0.13860E-05  4320   0.727E-03    0.543E-03
DAV:   6    -0.851629292830E+03    0.18493E-06   -0.25317E-06  3500   0.415E-03
   9 F= -.85953691E+03 E0= -.85953691E+03  d E =-.321651E-03  mag=     0.0000
quench:  g(F)=  0.000E+00 g(S)=  0.000E+00 dE (1.order)= 0.000E+00
 bond charge predicted
       N       E                     dE             d eps       ncg     rms          rms(c)
DAV:   1    -0.851629592102E+03   -0.29909E-03   -0.13491E-01  3920   0.775E-01    0.747E-02
DAV:   2    -0.851629770408E+03   -0.17831E-03   -0.24767E-03  3860   0.100E-01    0.611E-02
DAV:   3    -0.851629753123E+03    0.17285E-04   -0.58222E-05  4620   0.178E-02    0.457E-02
DAV:   4    -0.851629772506E+03   -0.19383E-04   -0.95412E-05  4320   0.230E-02    0.106E-02
DAV:   5    -0.851629774172E+03   -0.16662E-05   -0.21745E-05  4340   0.914E-03    0.681E-03
DAV:   6    -0.851629773979E+03    0.19323E-06   -0.40047E-06  3840   0.518E-03
  10 F= -.85953732E+03 E0= -.85953732E+03  d E =-.403556E-03  mag=    -0.0000
quench:  g(F)=  0.000E+00 g(S)=  0.000E+00 dE (1.order)= 0.000E+00
 bond charge predicted
       N       E                     dE             d eps       ncg     rms          rms(c)
DAV:   1    -0.851630082866E+03   -0.30869E-03   -0.21134E-01  3920   0.963E-01    0.932E-02
DAV:   2    -0.851630354826E+03   -0.27196E-03   -0.37843E-03  3880   0.123E-01    0.766E-02
DAV:   3    -0.851630326217E+03    0.28609E-04   -0.90427E-05  4600   0.222E-02    0.573E-02
DAV:   4    -0.851630353673E+03   -0.27456E-04   -0.15346E-04  4350   0.287E-02    0.131E-02
DAV:   5    -0.851630356004E+03   -0.23312E-05   -0.34369E-05  4300   0.116E-02    0.842E-03
DAV:   6    -0.851630355803E+03    0.20094E-06   -0.61832E-06  3920   0.627E-03
  11 F= -.85953780E+03 E0= -.85953780E+03  d E =-.484590E-03  mag=    -0.0000
quench:  g(F)=  0.000E+00 g(S)=  0.000E+00 dE (1.order)= 0.000E+00
 bond charge predicted
       N       E                     dE             d eps       ncg     rms          rms(c)
DAV:   1    -0.851630606641E+03   -0.25064E-03   -0.33602E-01  3920   0.122E+00    0.116E-01
DAV:   2    -0.851631052410E+03   -0.44577E-03   -0.61041E-03  3910   0.157E-01    0.956E-02
DAV:   3    -0.851631007180E+03    0.45230E-04   -0.14230E-04  4560   0.279E-02    0.716E-02
DAV:   4    -0.851631048651E+03   -0.41471E-04   -0.24612E-04  4370   0.365E-02    0.162E-02
DAV:   5    -0.851631051099E+03   -0.24474E-05   -0.55571E-05  4260   0.148E-02    0.105E-02
DAV:   6    -0.851631051217E+03   -0.11774E-06   -0.90668E-06  3900   0.750E-03
  12 F= -.85953836E+03 E0= -.85953836E+03  d E =-.561634E-03  mag=     0.0000
quench:  g(F)=  0.000E+00 g(S)=  0.000E+00 dE (1.order)= 0.000E+00
 bond charge predicted
       N       E                     dE             d eps       ncg     rms          rms(c)
DAV:   1    -0.851630955866E+03    0.95233E-04   -0.53910E-01  3920   0.155E+00    0.146E-01
DAV:   2    -0.851631724804E+03   -0.76894E-03   -0.10236E-02  3980   0.203E-01    0.120E-01
DAV:   3    -0.851631649127E+03    0.75677E-04   -0.24071E-04  4660   0.357E-02    0.911E-02
DAV:   4    -0.851631695622E+03   -0.46494E-04   -0.39162E-04  4350   0.469E-02    0.223E-02
DAV:   5    -0.851631704655E+03   -0.90332E-05   -0.89210E-05  4290   0.185E-02    0.144E-02
DAV:   6    -0.851631704108E+03    0.54664E-06   -0.16601E-05  4140   0.104E-02    0.674E-03
DAV:   7    -0.851631704572E+03   -0.46411E-06   -0.37679E-06  4080   0.405E-03
  13 F= -.85953885E+03 E0= -.85953885E+03  d E =-.489021E-03  mag=     0.0000
quench:  g(F)=  0.000E+00 g(S)=  0.000E+00 dE (1.order)= 0.000E+00
 bond charge predicted
       N       E                     dE             d eps       ncg     rms          rms(c)
DAV:   1    -0.851630080143E+03    0.16240E-02   -0.88523E-01  3880   0.204E+00    0.188E-01
DAV:   2    -0.851631448696E+03   -0.13686E-02   -0.18032E-02  4040   0.273E-01    0.158E-01
DAV:   3    -0.851631278683E+03    0.17001E-03   -0.52206E-04  4860   0.502E-02    0.121E-01
DAV:   4    -0.851631263488E+03    0.15195E-04   -0.64263E-04  4220   0.612E-02    0.373E-02
DAV:   5    -0.851631290635E+03   -0.27147E-04   -0.16590E-04  4340   0.246E-02    0.203E-02
DAV:   6    -0.851631291956E+03   -0.13208E-05   -0.27070E-05  4360   0.124E-02    0.877E-03
DAV:   7    -0.851631292442E+03   -0.48670E-06   -0.41444E-06  4220   0.431E-03
  14 F= -.85953824E+03 E0= -.85953824E+03  d E =0.609273E-03  mag=     0.0000
quench:  g(F)=  0.000E+00 g(S)=  0.000E+00 dE (1.order)= 0.000E+00
 bond charge predicted
       N       E                     dE             d eps       ncg     rms          rms(c)
DAV:   1    -0.851632717349E+03   -0.14254E-02   -0.82887E-02  3920   0.664E-01    0.663E-02
DAV:   2    -0.851632863714E+03   -0.14636E-03   -0.21334E-03  4660   0.957E-02    0.596E-02
DAV:   3    -0.851632818499E+03    0.45215E-04   -0.11560E-04  5020   0.221E-02    0.443E-02
DAV:   4    -0.851632783447E+03    0.35053E-04   -0.82027E-05  4220   0.214E-02    0.198E-02
DAV:   5    -0.851632781406E+03    0.20408E-05   -0.24011E-05  4360   0.996E-03    0.763E-03
DAV:   6    -0.851632781688E+03   -0.28271E-06   -0.20818E-06  2740   0.336E-03
  15 F= -.85953973E+03 E0= -.85953973E+03  d E =-.148695E-02  mag=     0.0000
quench:  g(F)=  0.000E+00 g(S)=  0.000E+00 dE (1.order)= 0.000E+00
 bond charge predicted
       N       E                     dE             d eps       ncg     rms          rms(c)
DAV:   1    -0.851632793578E+03   -0.12172E-04   -0.98687E-05  4000   0.227E-02    0.304E-03
DAV:   2    -0.851632793678E+03   -0.10039E-06   -0.23301E-06  3050   0.329E-03
  16 F= -.85953974E+03 E0= -.85953974E+03  d E =-.102749E-04  mag=    -0.0000
quench:  g(F)=  0.000E+00 g(S)=  0.000E+00 dE (1.order)= 0.000E+00
 bond charge predicted
       N       E                     dE             d eps       ncg     rms          rms(c)
DAV:   1    -0.851632811259E+03   -0.17682E-04   -0.34334E-04  3940   0.418E-02    0.488E-03
DAV:   2    -0.851632811668E+03   -0.40862E-06   -0.75826E-06  4540   0.576E-03
  17 F= -.85953976E+03 E0= -.85953976E+03  d E =-.146474E-04  mag=    -0.0000
quench:  g(F)=  0.000E+00 g(S)=  0.000E+00 dE (1.order)= 0.000E+00
 bond charge predicted
       N       E                     dE             d eps       ncg     rms          rms(c)
DAV:   1    -0.851632829210E+03   -0.17951E-04   -0.64472E-04  3900   0.563E-02    0.763E-03
DAV:   2    -0.851632829766E+03   -0.55571E-06   -0.13345E-05  4440   0.758E-03    0.643E-03
DAV:   3    -0.851632829463E+03    0.30299E-06   -0.69633E-07  2300   0.212E-03
  18 F= -.85953977E+03 E0= -.85953977E+03  d E =-.128801E-04  mag=    -0.0000
quench:  g(F)=  0.000E+00 g(S)=  0.000E+00 dE (1.order)= 0.000E+00
 bond charge predicted
       N       E                     dE             d eps       ncg     rms          rms(c)
DAV:   1    -0.851632847130E+03   -0.17365E-04   -0.92236E-04  3880   0.653E-02    0.664E-03
DAV:   2    -0.851632848363E+03   -0.12326E-05   -0.17201E-05  4140   0.830E-03    0.539E-03
DAV:   3    -0.851632848296E+03    0.67288E-07   -0.33943E-07  2400   0.148E-03
  19 F= -.85953978E+03 E0= -.85953978E+03  d E =-.125649E-04  mag=    -0.0000
quench:  g(F)=  0.000E+00 g(S)=  0.000E+00 dE (1.order)= 0.000E+00
 bond charge predicted
       N       E                     dE             d eps       ncg     rms          rms(c)
DAV:   1    -0.851632872223E+03   -0.23860E-04   -0.12848E-03  3900   0.756E-02    0.734E-03
DAV:   2    -0.851632873916E+03   -0.16924E-05   -0.23414E-05  4080   0.954E-03    0.585E-03
DAV:   3    -0.851632873847E+03    0.69151E-07   -0.42088E-07  2660   0.163E-03
  20 F= -.85953980E+03 E0= -.85953980E+03  d E =-.184590E-04  mag=    -0.0000
quench:  g(F)=  0.000E+00 g(S)=  0.000E+00 dE (1.order)= 0.000E+00
 bond charge predicted
       N       E                     dE             d eps       ncg     rms          rms(c)
DAV:   1    -0.851632906108E+03   -0.32192E-04   -0.17937E-03  3900   0.894E-02    0.867E-03
DAV:   2    -0.851632908431E+03   -0.23228E-05   -0.32643E-05  3960   0.113E-02    0.696E-03
DAV:   3    -0.851632908319E+03    0.11121E-06   -0.59634E-07  2720   0.194E-03
  21 F= -.85953983E+03 E0= -.85953983E+03  d E =-.265686E-04  mag=    -0.0000
quench:  g(F)=  0.000E+00 g(S)=  0.000E+00 dE (1.order)= 0.000E+00
 bond charge predicted
       N       E                     dE             d eps       ncg     rms          rms(c)
DAV:   1    -0.851632946451E+03   -0.38021E-04   -0.30582E-03  3900   0.117E-01    0.112E-02
DAV:   2    -0.851632950472E+03   -0.40204E-05   -0.56342E-05  3960   0.149E-02    0.910E-03
DAV:   3    -0.851632950223E+03    0.24907E-06   -0.10771E-06  3000   0.258E-03
  22 F= -.85953986E+03 E0= -.85953986E+03  d E =-.319313E-04  mag=    -0.0000
quench:  g(F)=  0.000E+00 g(S)=  0.000E+00 dE (1.order)= 0.000E+00
 bond charge predicted
       N       E                     dE             d eps       ncg     rms          rms(c)
DAV:   1    -0.851632991680E+03   -0.41208E-04   -0.48568E-03  3900   0.147E-01    0.143E-02
DAV:   2    -0.851632997777E+03   -0.60969E-05   -0.87177E-05  3840   0.185E-02    0.116E-02
DAV:   3    -0.851632997451E+03    0.32616E-06   -0.18530E-06  3420   0.325E-03
  23 F= -.85953989E+03 E0= -.85953989E+03  d E =-.343323E-04  mag=    -0.0000
quench:  g(F)=  0.000E+00 g(S)=  0.000E+00 dE (1.order)= 0.000E+00
 bond charge predicted
       N       E                     dE             d eps       ncg     rms          rms(c)
DAV:   1    -0.851633050252E+03   -0.52476E-04   -0.74714E-03  3900   0.181E-01    0.179E-02
DAV:   2    -0.851633059280E+03   -0.90273E-05   -0.13049E-04  3840   0.225E-02    0.145E-02
DAV:   3    -0.851633058769E+03    0.51061E-06   -0.27964E-06  3820   0.396E-03
  24 F= -.85953994E+03 E0= -.85953994E+03  d E =-.439318E-04  mag=     0.0000
quench:  g(F)=  0.000E+00 g(S)=  0.000E+00 dE (1.order)= 0.000E+00
 bond charge predicted
       N       E                     dE             d eps       ncg     rms          rms(c)
DAV:   1    -0.851633127674E+03   -0.68394E-04   -0.11735E-02  3900   0.227E-01    0.225E-02
DAV:   2    -0.851633142012E+03   -0.14338E-04   -0.20509E-04  3840   0.283E-02    0.183E-02
DAV:   3    -0.851633141216E+03    0.79675E-06   -0.45888E-06  4160   0.501E-03
  25 F= -.85954000E+03 E0= -.85954000E+03  d E =-.593887E-04  mag=     0.0000
quench:  g(F)=  0.000E+00 g(S)=  0.000E+00 dE (1.order)= 0.000E+00
 bond charge predicted
       N       E                     dE             d eps       ncg     rms          rms(c)
DAV:   1    -0.851633214528E+03   -0.72516E-04   -0.18553E-02  3900   0.285E-01    0.286E-02
DAV:   2    -0.851633237411E+03   -0.22883E-04   -0.32510E-04  3840   0.358E-02    0.232E-02
DAV:   3    -0.851633236005E+03    0.14058E-05   -0.74848E-06  4620   0.636E-03    0.173E-02
DAV:   4    -0.851633239253E+03   -0.32478E-05   -0.10764E-05  3680   0.786E-03    0.387E-03
DAV:   5    -0.851633239560E+03   -0.30688E-06   -0.29136E-06  3600   0.322E-03
  26 F= -.85954007E+03 E0= -.85954007E+03  d E =-.689050E-04  mag=    -0.0000
quench:  g(F)=  0.000E+00 g(S)=  0.000E+00 dE (1.order)= 0.000E+00
 bond charge predicted
       N       E                     dE             d eps       ncg     rms          rms(c)
DAV:   1    -0.851633319123E+03   -0.79870E-04   -0.28231E-02  3920   0.349E-01    0.333E-02
DAV:   2    -0.851633357156E+03   -0.38033E-04   -0.52017E-04  3840   0.451E-02    0.270E-02
DAV:   3    -0.851633353585E+03    0.35705E-05   -0.11559E-05  4560   0.795E-03    0.206E-02
DAV:   4    -0.851633356395E+03   -0.28096E-05   -0.20042E-05  3640   0.107E-02    0.481E-03
DAV:   5    -0.851633356773E+03   -0.37858E-06   -0.48134E-06  4100   0.421E-03
  27 F= -.85954015E+03 E0= -.85954015E+03  d E =-.837185E-04  mag=    -0.0000
quench:  g(F)=  0.000E+00 g(S)=  0.000E+00 dE (1.order)= 0.000E+00
 bond charge predicted
       N       E                     dE             d eps       ncg     rms          rms(c)
DAV:   1    -0.851633428846E+03   -0.72452E-04   -0.42353E-02  3920   0.427E-01    0.410E-02
DAV:   2    -0.851633485961E+03   -0.57115E-04   -0.77664E-04  3860   0.551E-02    0.334E-02
DAV:   3    -0.851633480337E+03    0.56238E-05   -0.17713E-05  4720   0.978E-03    0.255E-02
DAV:   4    -0.851633483852E+03   -0.35147E-05   -0.30431E-05  3660   0.131E-02    0.606E-03
DAV:   5    -0.851633484426E+03   -0.57412E-06   -0.73354E-06  4200   0.519E-03
  28 F= -.85954024E+03 E0= -.85954024E+03  d E =-.921924E-04  mag=    -0.0000
quench:  g(F)=  0.000E+00 g(S)=  0.000E+00 dE (1.order)= 0.000E+00
 bond charge predicted
       N       E                     dE             d eps       ncg     rms          rms(c)
DAV:   1    -0.851633562571E+03   -0.78719E-04   -0.62145E-02  3920   0.514E-01    0.496E-02
DAV:   2    -0.851633643527E+03   -0.80956E-04   -0.11073E-03  3840   0.655E-02    0.409E-02
DAV:   3    -0.851633634881E+03    0.86456E-05   -0.25813E-05  4660   0.119E-02    0.310E-02
DAV:   4    -0.851633640054E+03   -0.51722E-05   -0.47032E-05  3880   0.161E-02    0.712E-03
DAV:   5    -0.851633640572E+03   -0.51840E-06   -0.10868E-05  4320   0.647E-03    0.471E-03
DAV:   6    -0.851633640485E+03    0.86700E-07   -0.18731E-06  3300   0.366E-03
  29 F= -.85954035E+03 E0= -.85954035E+03  d E =-.113882E-03  mag=    -0.0000
quench:  g(F)=  0.000E+00 g(S)=  0.000E+00 dE (1.order)= 0.000E+00
 bond charge predicted
       N       E                     dE             d eps       ncg     rms          rms(c)
DAV:   1    -0.851633713329E+03   -0.72756E-04   -0.93448E-02  3920   0.632E-01    0.601E-02
DAV:   2    -0.851633832526E+03   -0.11920E-03   -0.16438E-03  3840   0.802E-02    0.500E-02
DAV:   3    -0.851633818128E+03    0.14398E-04   -0.39476E-05  4580   0.149E-02    0.377E-02
DAV:   4    -0.851633824402E+03   -0.62734E-05   -0.73579E-05  4160   0.200E-02    0.870E-03
DAV:   5    -0.851633824962E+03   -0.56051E-06   -0.16985E-05  4300   0.822E-03    0.570E-03
DAV:   6    -0.851633824988E+03   -0.25626E-07   -0.26005E-06  3580   0.417E-03
  30 F= -.85954048E+03 E0= -.85954048E+03  d E =-.126400E-03  mag=     0.0000
quench:  g(F)=  0.000E+00 g(S)=  0.000E+00 dE (1.order)= 0.000E+00
 bond charge predicted
       N       E                     dE             d eps       ncg     rms          rms(c)
DAV:   1    -0.851633879163E+03   -0.54200E-04   -0.14323E-01  3920   0.781E-01    0.745E-02
DAV:   2    -0.851634063750E+03   -0.18459E-03   -0.25433E-03  3860   0.998E-02    0.617E-02
DAV:   3    -0.851634041873E+03    0.21878E-04   -0.61432E-05  4660   0.183E-02    0.468E-02
DAV:   4    -0.851634050308E+03   -0.84358E-05   -0.11011E-04  4240   0.247E-02    0.109E-02
DAV:   5    -0.851634051889E+03   -0.15807E-05   -0.25143E-05  4300   0.976E-03    0.711E-03
DAV:   6    -0.851634051745E+03    0.14404E-06   -0.39545E-06  3820   0.524E-03
  31 F= -.85954064E+03 E0= -.85954064E+03  d E =-.155768E-03  mag=    -0.0000
quench:  g(F)=  0.000E+00 g(S)=  0.000E+00 dE (1.order)= 0.000E+00
 bond charge predicted
       N       E                     dE             d eps       ncg     rms          rms(c)
DAV:   1    -0.851634028464E+03    0.23425E-04   -0.22368E-01  3920   0.973E-01    0.929E-02
DAV:   2    -0.851634326206E+03   -0.29774E-03   -0.40535E-03  3880   0.125E-01    0.759E-02
DAV:   3    -0.851634294506E+03    0.31700E-04   -0.93164E-05  4620   0.223E-02    0.578E-02
DAV:   4    -0.851634308740E+03   -0.14234E-04   -0.16659E-04  4360   0.303E-02    0.136E-02
DAV:   5    -0.851634311515E+03   -0.27752E-05   -0.36951E-05  4280   0.117E-02    0.883E-03
DAV:   6    -0.851634311184E+03    0.33125E-06   -0.64181E-06  3880   0.680E-03
  32 F= -.85954082E+03 E0= -.85954082E+03  d E =-.178124E-03  mag=     0.0000
quench:  g(F)=  0.000E+00 g(S)=  0.000E+00 dE (1.order)= 0.000E+00
 bond charge predicted
       N       E                     dE             d eps       ncg     rms          rms(c)
DAV:   1    -0.851634136596E+03    0.17492E-03   -0.35244E-01  3920   0.122E+00    0.116E-01
DAV:   2    -0.851634634146E+03   -0.49755E-03   -0.66012E-03  3920   0.159E-01    0.933E-02
DAV:   3    -0.851634586224E+03    0.47922E-04   -0.14146E-04  4660   0.276E-02    0.716E-02
DAV:   4    -0.851634610067E+03   -0.23843E-04   -0.25548E-04  4480   0.377E-02    0.170E-02
DAV:   5    -0.851634614373E+03   -0.43060E-05   -0.55689E-05  4260   0.145E-02    0.111E-02
DAV:   6    -0.851634613908E+03    0.46539E-06   -0.10301E-05  3900   0.872E-03    0.525E-03
DAV:   7    -0.851634614132E+03   -0.22400E-06   -0.27078E-06  3860   0.356E-03
  33 F= -.85954101E+03 E0= -.85954101E+03  d E =-.193975E-03  mag=     0.0000
quench:  g(F)=  0.000E+00 g(S)=  0.000E+00 dE (1.order)= 0.000E+00
 bond charge predicted
       N       E                     dE             d eps       ncg     rms          rms(c)
DAV:   1    -0.851634085768E+03    0.52814E-03   -0.54910E-01  3920   0.155E+00    0.143E-01
DAV:   2    -0.851634922961E+03   -0.83719E-03   -0.10798E-02  3940   0.203E-01    0.113E-01
DAV:   3    -0.851634850657E+03    0.72305E-04   -0.22256E-04  4700   0.343E-02    0.873E-02
DAV:   4    -0.851634878599E+03   -0.27942E-04   -0.34727E-04  4460   0.444E-02    0.223E-02
DAV:   5    -0.851634890445E+03   -0.11846E-04   -0.80877E-05  4280   0.171E-02    0.136E-02
DAV:   6    -0.851634889297E+03    0.11477E-05   -0.14167E-05  4000   0.103E-02    0.662E-03
DAV:   7    -0.851634889720E+03   -0.42350E-06   -0.45198E-06  4320   0.453E-03
  34 F= -.85954116E+03 E0= -.85954116E+03  d E =-.155500E-03  mag=    -0.0000
quench:  g(F)=  0.000E+00 g(S)=  0.000E+00 dE (1.order)= 0.000E+00
 bond charge predicted
       N       E                     dE             d eps       ncg     rms          rms(c)
DAV:   1    -0.851633684797E+03    0.12045E-02   -0.84164E-01  3920   0.192E+00    0.174E-01
DAV:   2    -0.851635047473E+03   -0.13627E-02   -0.17104E-02  3980   0.254E-01    0.138E-01
DAV:   3    -0.851634930341E+03    0.11713E-03   -0.35058E-04  4880   0.425E-02    0.107E-01
DAV:   4    -0.851634953054E+03   -0.22714E-04   -0.55919E-04  4440   0.563E-02    0.282E-02
DAV:   5    -0.851634968920E+03   -0.15866E-04   -0.13113E-04  4300   0.220E-02    0.174E-02
DAV:   6    -0.851634968737E+03    0.18369E-06   -0.22222E-05  4280   0.123E-02    0.809E-03
DAV:   7    -0.851634969483E+03   -0.74669E-06   -0.51324E-06  4340   0.471E-03
  35 F= -.85954107E+03 E0= -.85954107E+03  d E =0.967371E-04  mag=    -0.0000
quench:  g(F)=  0.000E+00 g(S)=  0.000E+00 dE (1.order)= 0.000E+00
 bond charge predicted
       N       E                     dE             d eps       ncg     rms          rms(c)
DAV:   1    -0.851631230094E+03    0.37386E-02   -0.13201E+00  3840   0.250E+00    0.224E-01
DAV:   2    -0.851633554374E+03   -0.23243E-02   -0.29190E-02  4060   0.343E-01    0.182E-01
DAV:   3    -0.851633320433E+03    0.23394E-03   -0.79836E-04  4820   0.610E-02    0.143E-01
DAV:   4    -0.851633230009E+03    0.90424E-04   -0.79324E-04  4280   0.700E-02    0.508E-02
DAV:   5    -0.851633277152E+03   -0.47143E-04   -0.24446E-04  4300   0.301E-02    0.261E-02
DAV:   6    -0.851633276088E+03    0.10641E-05   -0.44807E-05  4300   0.173E-02    0.108E-02
DAV:   7    -0.851633277316E+03   -0.12278E-05   -0.79417E-06  4320   0.595E-03    0.718E-03
DAV:   8    -0.851633276962E+03    0.35397E-06   -0.34218E-06  3800   0.561E-03
  36 F= -.85953919E+03 E0= -.85953919E+03  d E =0.188213E-02  mag=    -0.0000
quench:  g(F)=  0.000E+00 g(S)=  0.000E+00 dE (1.order)= 0.000E+00
 bond charge predicted
       N       E                     dE             d eps       ncg     rms          rms(c)
DAV:   1    -0.851635628543E+03   -0.23512E-02   -0.16000E-01  3920   0.927E-01    0.916E-02
DAV:   2    -0.851635907974E+03   -0.27943E-03   -0.40875E-03  4700   0.134E-01    0.816E-02
DAV:   3    -0.851635822192E+03    0.85782E-04   -0.22744E-04  5060   0.312E-02    0.601E-02
DAV:   4    -0.851635761466E+03    0.60726E-04   -0.14937E-04  4240   0.288E-02    0.279E-02
DAV:   5    -0.851635757402E+03    0.40639E-05   -0.43889E-05  4340   0.137E-02    0.105E-02
DAV:   6    -0.851635758127E+03   -0.72570E-06   -0.42749E-06  3160   0.468E-03
  37 F= -.85954165E+03 E0= -.85954165E+03  d E =-.246872E-02  mag=    -0.0000
quench:  g(F)=  0.000E+00 g(S)=  0.000E+00 dE (1.order)= 0.000E+00
 bond charge predicted
       N       E                     dE             d eps       ncg     rms          rms(c)
DAV:   1    -0.851635795270E+03   -0.37868E-04   -0.37834E-04  3980   0.448E-02    0.501E-03
DAV:   2    -0.851635795769E+03   -0.49892E-06   -0.95516E-06  4500   0.651E-03
  38 F= -.85954169E+03 E0= -.85954169E+03  d E =-.349026E-04  mag=    -0.0000
quench:  g(F)=  0.000E+00 g(S)=  0.000E+00 dE (1.order)= 0.000E+00
 bond charge predicted
       N       E                     dE             d eps       ncg     rms          rms(c)
DAV:   1    -0.851635842745E+03   -0.47475E-04   -0.13015E-03  3840   0.827E-02    0.920E-03
DAV:   2    -0.851635844636E+03   -0.18905E-05   -0.31776E-05  4620   0.118E-02    0.785E-03
DAV:   3    -0.851635843937E+03    0.69864E-06   -0.12333E-06  2340   0.269E-03
  39 F= -.85954173E+03 E0= -.85954173E+03  d E =-.427146E-04  mag=    -0.0000
quench:  g(F)=  0.000E+00 g(S)=  0.000E+00 dE (1.order)= 0.000E+00
 bond charge predicted
       N       E                     dE             d eps       ncg     rms          rms(c)
DAV:   1    -0.851635875510E+03   -0.30874E-04   -0.22617E-03  3860   0.107E-01    0.101E-02
DAV:   2    -0.851635879688E+03   -0.41774E-05   -0.51681E-05  4340   0.145E-02    0.803E-03
DAV:   3    -0.851635879308E+03    0.37932E-06   -0.10815E-06  2720   0.255E-03
  40 F= -.85954176E+03 E0= -.85954176E+03  d E =-.271342E-04  mag=    -0.0000
quench:  g(F)=  0.000E+00 g(S)=  0.000E+00 dE (1.order)= 0.000E+00
 bond charge predicted
       N       E                     dE             d eps       ncg     rms          rms(c)
DAV:   1    -0.851635906871E+03   -0.27183E-04   -0.30347E-03  3880   0.119E-01    0.106E-02
DAV:   2    -0.851635912637E+03   -0.57665E-05   -0.67927E-05  4020   0.159E-02    0.769E-03
DAV:   3    -0.851635912431E+03    0.20616E-06   -0.10036E-06  3120   0.243E-03
  41 F= -.85954178E+03 E0= -.85954178E+03  d E =-.223488E-04  mag=     0.0000
quench:  g(F)=  0.000E+00 g(S)=  0.000E+00 dE (1.order)= 0.000E+00
 bond charge predicted
       N       E                     dE             d eps       ncg     rms          rms(c)
DAV:   1    -0.851635960013E+03   -0.47376E-04   -0.38648E-03  3880   0.131E-01    0.115E-02
DAV:   2    -0.851635967262E+03   -0.72485E-05   -0.85104E-05  3840   0.173E-02    0.790E-03
DAV:   3    -0.851635967114E+03    0.14764E-06   -0.98137E-07  3180   0.241E-03
  42 F= -.85954182E+03 E0= -.85954182E+03  d E =-.423122E-04  mag=     0.0000
quench:  g(F)=  0.000E+00 g(S)=  0.000E+00 dE (1.order)= 0.000E+00
 bond charge predicted
       N       E                     dE             d eps       ncg     rms          rms(c)
DAV:   1    -0.851636038161E+03   -0.70899E-04   -0.50457E-03  3880   0.152E-01    0.132E-02
DAV:   2    -0.851636047679E+03   -0.95181E-05   -0.11231E-04  3840   0.201E-02    0.914E-03
DAV:   3    -0.851636047445E+03    0.23453E-06   -0.15201E-06  3460   0.288E-03
  43 F= -.85954189E+03 E0= -.85954189E+03  d E =-.664224E-04  mag=    -0.0000
quench:  g(F)=  0.000E+00 g(S)=  0.000E+00 dE (1.order)= 0.000E+00
 bond charge predicted
       N       E                     dE             d eps       ncg     rms          rms(c)
DAV:   1    -0.851636123054E+03   -0.75375E-04   -0.80957E-03  3880   0.195E-01    0.170E-02
DAV:   2    -0.851636138355E+03   -0.15301E-04   -0.18312E-04  3840   0.262E-02    0.122E-02
DAV:   3    -0.851636137858E+03    0.49731E-06   -0.29556E-06  3920   0.389E-03
  44 F= -.85954196E+03 E0= -.85954196E+03  d E =-.731060E-04  mag=     0.0000
quench:  g(F)=  0.000E+00 g(S)=  0.000E+00 dE (1.order)= 0.000E+00
 bond charge predicted
       N       E                     dE             d eps       ncg     rms          rms(c)
DAV:   1    -0.851636202779E+03   -0.64424E-04   -0.12108E-02  3880   0.237E-01    0.210E-02
DAV:   2    -0.851636225183E+03   -0.22404E-04   -0.27137E-04  3840   0.317E-02    0.150E-02
DAV:   3    -0.851636224587E+03    0.59650E-06   -0.42327E-06  4340   0.464E-03
  45 F= -.85954203E+03 E0= -.85954203E+03  d E =-.650515E-04  mag=    -0.0000
quench:  g(F)=  0.000E+00 g(S)=  0.000E+00 dE (1.order)= 0.000E+00
 bond charge predicted
       N       E                     dE             d eps       ncg     rms          rms(c)
DAV:   1    -0.851636314835E+03   -0.89651E-04   -0.16364E-02  3880   0.273E-01    0.243E-02
DAV:   2    -0.851636344583E+03   -0.29749E-04   -0.36142E-04  3840   0.363E-02    0.171E-02
DAV:   3    -0.851636344038E+03    0.54582E-06   -0.50180E-06  4520   0.513E-03
  46 F= -.85954212E+03 E0= -.85954212E+03  d E =-.930576E-04  mag=    -0.0000
quench:  g(F)=  0.000E+00 g(S)=  0.000E+00 dE (1.order)= 0.000E+00
 bond charge predicted
       N       E                     dE             d eps       ncg     rms          rms(c)
DAV:   1    -0.851636461824E+03   -0.11724E-03   -0.22694E-02  3880   0.325E-01    0.286E-02
DAV:   2    -0.851636503320E+03   -0.41496E-04   -0.50635E-04  3840   0.436E-02    0.204E-02
DAV:   3    -0.851636502354E+03    0.96619E-06   -0.79027E-06  4820   0.636E-03
  47 F= -.85954225E+03 E0= -.85954225E+03  d E =-.125944E-03  mag=     0.0000
quench:  g(F)=  0.000E+00 g(S)=  0.000E+00 dE (1.order)= 0.000E+00
 bond charge predicted
       N       E                     dE             d eps       ncg     rms          rms(c)
DAV:   1    -0.851636601876E+03   -0.98556E-04   -0.30157E-02  3880   0.377E-01    0.339E-02
DAV:   2    -0.851636654808E+03   -0.52932E-04   -0.66396E-04  3840   0.504E-02    0.248E-02
DAV:   3    -0.851636653341E+03    0.14665E-05   -0.11320E-05  4860   0.766E-03    0.191E-02
DAV:   4    -0.851636658200E+03   -0.48585E-05   -0.11609E-05  3680   0.883E-03    0.501E-03
DAV:   5    -0.851636659011E+03   -0.81083E-06   -0.36216E-06  3860   0.361E-03
  48 F= -.85954236E+03 E0= -.85954236E+03  d E =-.115867E-03  mag=    -0.0000
quench:  g(F)=  0.000E+00 g(S)=  0.000E+00 dE (1.order)= 0.000E+00
 bond charge predicted
       N       E                     dE             d eps       ncg     rms          rms(c)
DAV:   1    -0.851636776046E+03   -0.11785E-03   -0.37205E-02  3920   0.417E-01    0.352E-02
DAV:   2    -0.851636846089E+03   -0.70043E-04   -0.85310E-04  3840   0.572E-02    0.250E-02
DAV:   3    -0.851636843230E+03    0.28590E-05   -0.13275E-05  4720   0.851E-03    0.193E-02
DAV:   4    -0.851636847386E+03   -0.41561E-05   -0.16347E-05  3680   0.103E-02    0.518E-03
DAV:   5    -0.851636848120E+03   -0.73445E-06   -0.43766E-06  4100   0.398E-03
  49 F= -.85954251E+03 E0= -.85954251E+03  d E =-.144270E-03  mag=     0.0000
quench:  g(F)=  0.000E+00 g(S)=  0.000E+00 dE (1.order)= 0.000E+00
 bond charge predicted
       N       E                     dE             d eps       ncg     rms          rms(c)
DAV:   1    -0.851636948658E+03   -0.10127E-03   -0.47706E-02  3920   0.478E-01    0.401E-02
DAV:   2    -0.851637037617E+03   -0.88958E-04   -0.10940E-03  3840   0.656E-02    0.296E-02
DAV:   3    -0.851637032991E+03    0.46253E-05   -0.19556E-05  4820   0.102E-02    0.229E-02
DAV:   4    -0.851637037145E+03   -0.41535E-05   -0.22067E-05  3720   0.119E-02    0.674E-03
DAV:   5    -0.851637038364E+03   -0.12190E-05   -0.62354E-06  4280   0.480E-03    0.390E-03
DAV:   6    -0.851637038303E+03    0.60492E-07   -0.98896E-07  2520   0.280E-03
  50 F= -.85954265E+03 E0= -.85954265E+03  d E =-.143375E-03  mag=    -0.0000
quench:  g(F)=  0.000E+00 g(S)=  0.000E+00 dE (1.order)= 0.000E+00
 bond charge predicted
       N       E                     dE             d eps       ncg     rms          rms(c)
DAV:   1    -0.851637144773E+03   -0.10641E-03   -0.57319E-02  3920   0.522E-01    0.433E-02
DAV:   2    -0.851637246634E+03   -0.10186E-03   -0.12667E-03  3840   0.705E-02    0.322E-02
DAV:   3    -0.851637240653E+03    0.59817E-05   -0.22018E-05  4760   0.110E-02    0.247E-02
DAV:   4    -0.851637245664E+03   -0.50117E-05   -0.28872E-05  3740   0.133E-02    0.667E-03
DAV:   5    -0.851637246773E+03   -0.11088E-05   -0.74736E-06  4280   0.521E-03    0.398E-03
DAV:   6    -0.851637246729E+03    0.43576E-07   -0.11443E-06  2600   0.293E-03
  51 F= -.85954281E+03 E0= -.85954281E+03  d E =-.154625E-03  mag=     0.0000
quench:  g(F)=  0.000E+00 g(S)=  0.000E+00 dE (1.order)= 0.000E+00
 bond charge predicted
       N       E                     dE             d eps       ncg     rms          rms(c)
DAV:   1    -0.851637345151E+03   -0.98378E-04   -0.78345E-02  3920   0.614E-01    0.507E-02
DAV:   2    -0.851637483217E+03   -0.13807E-03   -0.17255E-03  3840   0.832E-02    0.388E-02
DAV:   3    -0.851637473930E+03    0.92873E-05   -0.32825E-05  4820   0.133E-02    0.299E-02
DAV:   4    -0.851637478938E+03   -0.50075E-05   -0.41755E-05  3840   0.162E-02    0.836E-03
DAV:   5    -0.851637480669E+03   -0.17313E-05   -0.11345E-05  4320   0.644E-03    0.489E-03
DAV:   6    -0.851637480645E+03    0.24200E-07   -0.16077E-06  2940   0.339E-03
  52 F= -.85954297E+03 E0= -.85954297E+03  d E =-.165595E-03  mag=     0.0000
quench:  g(F)=  0.000E+00 g(S)=  0.000E+00 dE (1.order)= 0.000E+00
 bond charge predicted
       N       E                     dE             d eps       ncg     rms          rms(c)
DAV:   1    -0.851637558180E+03   -0.77511E-04   -0.10396E-01  3920   0.704E-01    0.586E-02
DAV:   2    -0.851637736806E+03   -0.17863E-03   -0.22370E-03  3840   0.947E-02    0.451E-02
DAV:   3    -0.851637724526E+03    0.12280E-04   -0.41215E-05  4720   0.153E-02    0.346E-02
DAV:   4    -0.851637731946E+03   -0.74201E-05   -0.59430E-05  4140   0.190E-02    0.895E-03
DAV:   5    -0.851637733557E+03   -0.16115E-05   -0.15029E-05  4320   0.764E-03    0.538E-03
DAV:   6    -0.851637733635E+03   -0.77678E-07   -0.21786E-06  3300   0.379E-03
  53 F= -.85954314E+03 E0= -.85954314E+03  d E =-.172705E-03  mag=    -0.0000
quench:  g(F)=  0.000E+00 g(S)=  0.000E+00 dE (1.order)= 0.000E+00
 bond charge predicted
       N       E                     dE             d eps       ncg     rms          rms(c)
DAV:   1    -0.851637760691E+03   -0.27134E-04   -0.14106E-01  3920   0.818E-01    0.690E-02
DAV:   2    -0.851637992174E+03   -0.23148E-03   -0.29333E-03  3840   0.109E-01    0.541E-02
DAV:   3    -0.851637973888E+03    0.18287E-04   -0.58084E-05  4720   0.181E-02    0.412E-02
DAV:   4    -0.851637982588E+03   -0.87000E-05   -0.86472E-05  4300   0.224E-02    0.105E-02
DAV:   5    -0.851637984321E+03   -0.17330E-05   -0.21320E-05  4260   0.916E-03    0.626E-03
DAV:   6    -0.851637984555E+03   -0.23442E-06   -0.31787E-06  3580   0.433E-03
  54 F= -.85954330E+03 E0= -.85954330E+03  d E =-.160546E-03  mag=    -0.0000
quench:  g(F)=  0.000E+00 g(S)=  0.000E+00 dE (1.order)= 0.000E+00
 bond charge predicted
       N       E                     dE             d eps       ncg     rms          rms(c)
DAV:   1    -0.851637964362E+03    0.19958E-04   -0.20357E-01  3920   0.983E-01    0.836E-02
DAV:   2    -0.851638294707E+03   -0.33034E-03   -0.42082E-03  3860   0.131E-01    0.662E-02
DAV:   3    -0.851638266362E+03    0.28345E-04   -0.91412E-05  4740   0.221E-02    0.507E-02
DAV:   4    -0.851638273252E+03   -0.68902E-05   -0.11930E-04  4400   0.266E-02    0.140E-02
DAV:   5    -0.851638277513E+03   -0.42607E-05   -0.30646E-05  4280   0.106E-02    0.795E-03
DAV:   6    -0.851638277641E+03   -0.12842E-06   -0.46925E-06  3740   0.540E-03
  55 F= -.85954349E+03 E0= -.85954349E+03  d E =-.185153E-03  mag=    -0.0000
quench:  g(F)=  0.000E+00 g(S)=  0.000E+00 dE (1.order)= 0.000E+00
 bond charge predicted
       N       E                     dE             d eps       ncg     rms          rms(c)
DAV:   1    -0.851638141705E+03    0.13581E-03   -0.29065E-01  3920   0.118E+00    0.999E-02
DAV:   2    -0.851638621805E+03   -0.48010E-03   -0.61031E-03  3900   0.159E-01    0.803E-02
DAV:   3    -0.851638578054E+03    0.43752E-04   -0.13783E-04  4880   0.271E-02    0.616E-02
DAV:   4    -0.851638583614E+03   -0.55603E-05   -0.18643E-04  4360   0.333E-02    0.171E-02
DAV:   5    -0.851638588824E+03   -0.52105E-05   -0.48107E-05  4260   0.135E-02    0.971E-03
DAV:   6    -0.851638589519E+03   -0.69445E-06   -0.70177E-06  3810   0.639E-03
  56 F= -.85954366E+03 E0= -.85954366E+03  d E =-.174953E-03  mag=     0.0000
quench:  g(F)=  0.000E+00 g(S)=  0.000E+00 dE (1.order)= 0.000E+00
 bond charge predicted
       N       E                     dE             d eps       ncg     rms          rms(c)
DAV:   1    -0.851638751139E+03   -0.16231E-03   -0.58411E-03  3840   0.177E-01    0.175E-02
DAV:   2    -0.851638761478E+03   -0.10339E-04   -0.15135E-04  4700   0.256E-02    0.158E-02
DAV:   3    -0.851638758579E+03    0.28988E-05   -0.78530E-06  4780   0.579E-03    0.119E-02
DAV:   4    -0.851638756117E+03    0.24622E-05   -0.59772E-06  3760   0.587E-03    0.513E-03
DAV:   5    -0.851638756037E+03    0.80050E-07   -0.16936E-06  2540   0.274E-03
  57 F= -.85954383E+03 E0= -.85954383E+03  d E =-.161575E-03  mag=     0.0000
quench:  g(F)=  0.000E+00 g(S)=  0.000E+00 dE (1.order)= 0.000E+00
 bond charge predicted
       N       E                     dE             d eps       ncg     rms          rms(c)
DAV:   1    -0.851638697375E+03    0.58742E-04   -0.81486E-03  3840   0.210E-01    0.196E-02
DAV:   2    -0.851638712664E+03   -0.15290E-04   -0.20582E-04  4680   0.301E-02    0.175E-02
DAV:   3    -0.851638709635E+03    0.30290E-05   -0.94585E-06  4900   0.634E-03    0.136E-02
DAV:   4    -0.851638706969E+03    0.26666E-05   -0.77196E-06  3840   0.665E-03    0.573E-03
DAV:   5    -0.851638706962E+03    0.67739E-08   -0.20367E-06  2720   0.301E-03
  58 F= -.85954377E+03 E0= -.85954377E+03  d E =0.597500E-04  mag=    -0.0000
quench:  g(F)=  0.000E+00 g(S)=  0.000E+00 dE (1.order)= 0.000E+00
 bond charge predicted
       N       E                     dE             d eps       ncg     rms          rms(c)
DAV:   1    -0.851638747551E+03   -0.40582E-04   -0.24199E-04  3840   0.361E-02    0.369E-03
DAV:   2    -0.851638747945E+03   -0.39420E-06   -0.65911E-06  4480   0.534E-03
  59 F= -.85954381E+03 E0= -.85954381E+03  d E =-.397711E-04  mag=     0.0000
quench:  g(F)=  0.000E+00 g(S)=  0.000E+00 dE (1.order)= 0.000E+00
 bond charge predicted
       N       E                     dE             d eps       ncg     rms          rms(c)
DAV:   1    -0.851638797675E+03   -0.50124E-04   -0.78226E-04  3840   0.651E-02    0.840E-03
DAV:   2    -0.851638798538E+03   -0.86263E-06   -0.19735E-05  4860   0.932E-03    0.742E-03
DAV:   3    -0.851638797651E+03    0.88647E-06   -0.14886E-06  2300   0.294E-03
  60 F= -.85954385E+03 E0= -.85954385E+03  d E =-.472997E-04  mag=    -0.0000
quench:  g(F)=  0.000E+00 g(S)=  0.000E+00 dE (1.order)= 0.000E+00
 bond charge predicted
       N       E                     dE             d eps       ncg     rms          rms(c)
DAV:   1    -0.851638817536E+03   -0.18999E-04   -0.12462E-03  3840   0.822E-02    0.883E-03
DAV:   2    -0.851638819598E+03   -0.20622E-05   -0.28871E-05  4720   0.113E-02    0.779E-03
DAV:   3    -0.851638819032E+03    0.56670E-06   -0.11004E-06  2380   0.254E-03
  61 F= -.85954387E+03 E0= -.85954387E+03  d E =-.177678E-04  mag=     0.0000
quench:  g(F)=  0.000E+00 g(S)=  0.000E+00 dE (1.order)= 0.000E+00
 bond charge predicted
       N       E                     dE             d eps       ncg     rms          rms(c)
DAV:   1    -0.851638802680E+03    0.16918E-04   -0.14169E-03  3840   0.861E-02    0.837E-03
DAV:   2    -0.851638805176E+03   -0.24961E-05   -0.32073E-05  4700   0.117E-02    0.713E-03
DAV:   3    -0.851638804869E+03    0.30670E-06   -0.84772E-07  2360   0.222E-03
  62 F= -.85954385E+03 E0= -.85954385E+03  d E =0.191238E-04  mag=     0.0000
quench:  g(F)=  0.000E+00 g(S)=  0.000E+00 dE (1.order)= 0.000E+00
 bond charge predicted
       N       E                     dE             d eps       ncg     rms          rms(c)
DAV:   1    -0.851638780385E+03    0.24791E-04   -0.16757E-03  3860   0.880E-02    0.830E-03
DAV:   2    -0.851638783233E+03   -0.28475E-05   -0.36194E-05  4140   0.117E-02    0.642E-03
DAV:   3    -0.851638783099E+03    0.13386E-06   -0.64512E-07  2860   0.192E-03
  63 F= -.85954382E+03 E0= -.85954382E+03  d E =0.277276E-04  mag=     0.0000
quench:  g(F)=  0.000E+00 g(S)=  0.000E+00 dE (1.order)= 0.000E+00
 bond charge predicted
       N       E                     dE             d eps       ncg     rms          rms(c)
DAV:   1    -0.851638775692E+03    0.75409E-05   -0.26845E-03  3880   0.107E-01    0.100E-02
DAV:   2    -0.851638780215E+03   -0.45230E-05   -0.57221E-05  3880   0.140E-02    0.720E-03
DAV:   3    -0.851638780104E+03    0.11094E-06   -0.72837E-07  2980   0.203E-03
  64 F= -.85954381E+03 E0= -.85954381E+03  d E =0.969592E-05  mag=     0.0000
quench:  g(F)=  0.000E+00 g(S)=  0.000E+00 dE (1.order)= 0.000E+00
 bond charge predicted
       N       E                     dE             d eps       ncg     rms          rms(c)
DAV:   1    -0.851638785179E+03   -0.49645E-05   -0.64026E-03  3900   0.166E-01    0.153E-02
DAV:   2    -0.851638796539E+03   -0.11360E-04   -0.14025E-04  3840   0.221E-02    0.109E-02
DAV:   3    -0.851638796167E+03    0.37200E-06   -0.20083E-06  3500   0.322E-03
  65 F= -.85954382E+03 E0= -.85954382E+03  d E =-.798163E-05  mag=    -0.0000
quench:  g(F)=  0.000E+00 g(S)=  0.000E+00 dE (1.order)= 0.000E+00
 bond charge predicted
       N       E                     dE             d eps       ncg     rms          rms(c)
DAV:   1    -0.851638769948E+03    0.26592E-04   -0.15457E-02  3900   0.259E-01    0.240E-02
DAV:   2    -0.851638797873E+03   -0.27925E-04   -0.34199E-04  3840   0.345E-02    0.173E-02
DAV:   3    -0.851638796888E+03    0.98444E-06   -0.54097E-06  4360   0.505E-03
  66 F= -.85954381E+03 E0= -.85954381E+03  d E =0.873765E-05  mag=    -0.0000
quench:  g(F)=  0.000E+00 g(S)=  0.000E+00 dE (1.order)= 0.000E+00
 bond charge predicted
       N       E                     dE             d eps       ncg     rms          rms(c)
DAV:   1    -0.851638676582E+03    0.12129E-03   -0.35607E-02  3900   0.388E-01    0.364E-02
DAV:   2    -0.851638740873E+03   -0.64292E-04   -0.78267E-04  3840   0.515E-02    0.258E-02
DAV:   3    -0.851638739013E+03    0.18605E-05   -0.11443E-05  4620   0.732E-03    0.202E-02
DAV:   4    -0.851638743858E+03   -0.48456E-05   -0.13891E-05  3680   0.916E-03    0.471E-03
DAV:   5    -0.851638744800E+03   -0.94199E-06   -0.39278E-06  3980   0.367E-03
  67 F= -.85954375E+03 E0= -.85954375E+03  d E =0.629215E-04  mag=    -0.0000
quench:  g(F)=  0.000E+00 g(S)=  0.000E+00 dE (1.order)= 0.000E+00
 bond charge predicted
       N       E                     dE             d eps       ncg     rms          rms(c)
DAV:   1    -0.851638491787E+03    0.25207E-03   -0.81137E-02  3920   0.581E-01    0.519E-02
DAV:   2    -0.851638651114E+03   -0.15933E-03   -0.18620E-03  3840   0.784E-02    0.351E-02
DAV:   3    -0.851638646255E+03    0.48591E-05   -0.23361E-05  4620   0.106E-02    0.276E-02
DAV:   4    -0.851638654815E+03   -0.85595E-05   -0.32650E-05  3740   0.141E-02    0.617E-03
DAV:   5    -0.851638656277E+03   -0.14628E-05   -0.82709E-06  4340   0.532E-03    0.451E-03
DAV:   6    -0.851638656062E+03    0.21566E-06   -0.11255E-06  2940   0.335E-03
  68 F= -.85954365E+03 E0= -.85954365E+03  d E =0.100724E-03  mag=    -0.0000
quench:  g(F)=  0.000E+00 g(S)=  0.000E+00 dE (1.order)= 0.000E+00
 bond charge predicted
       N       E                     dE             d eps       ncg     rms          rms(c)
DAV:   1    -0.851638208955E+03    0.44732E-03   -0.17935E-01  3920   0.862E-01    0.759E-02
DAV:   2    -0.851638564447E+03   -0.35549E-03   -0.41170E-03  3860   0.116E-01    0.512E-02
DAV:   3    -0.851638553042E+03    0.11405E-04   -0.50087E-05  4640   0.155E-02    0.404E-02
DAV:   4    -0.851638569466E+03   -0.16424E-04   -0.75865E-05  4040   0.213E-02    0.877E-03
DAV:   5    -0.851638572209E+03   -0.27426E-05   -0.18128E-05  4420   0.798E-03    0.666E-03
DAV:   6    -0.851638571706E+03    0.50254E-06   -0.26277E-06  3620   0.500E-03
  69 F= -.85954355E+03 E0= -.85954355E+03  d E =0.970516E-04  mag=     0.0000
quench:  g(F)=  0.000E+00 g(S)=  0.000E+00 dE (1.order)= 0.000E+00
 bond charge predicted
       N       E                     dE             d eps       ncg     rms          rms(c)
DAV:   1    -0.851637773178E+03    0.79903E-03   -0.34282E-01  3920   0.119E+00    0.104E-01
DAV:   2    -0.851638458690E+03   -0.68551E-03   -0.78897E-03  3940   0.161E-01    0.706E-02
DAV:   3    -0.851638436928E+03    0.21762E-04   -0.95890E-05  4680   0.214E-02    0.558E-02
DAV:   4    -0.851638466264E+03   -0.29336E-04   -0.14855E-04  4380   0.296E-02    0.122E-02
DAV:   5    -0.851638471021E+03   -0.47577E-05   -0.34303E-05  4360   0.110E-02    0.931E-03
DAV:   6    -0.851638470083E+03    0.93799E-06   -0.53578E-06  3920   0.693E-03
  70 F= -.85954344E+03 E0= -.85954344E+03  d E =0.115218E-03  mag=     0.0000
quench:  g(F)=  0.000E+00 g(S)=  0.000E+00 dE (1.order)= 0.000E+00
 bond charge predicted
       N       E                     dE             d eps       ncg     rms          rms(c)
DAV:   1    -0.851637106551E+03    0.13645E-02   -0.57536E-01  3920   0.154E+00    0.134E-01
DAV:   2    -0.851638261039E+03   -0.11545E-02   -0.13200E-02  3940   0.207E-01    0.910E-02
DAV:   3    -0.851638224221E+03    0.36818E-04   -0.15669E-04  4640   0.272E-02    0.720E-02
DAV:   4    -0.851638272988E+03   -0.48767E-04   -0.25346E-04  4460   0.382E-02    0.153E-02
DAV:   5    -0.851638279612E+03   -0.66245E-05   -0.55735E-05  4360   0.140E-02    0.119E-02
DAV:   6    -0.851638278125E+03    0.14869E-05   -0.92944E-06  4000   0.900E-03    0.594E-03
DAV:   7    -0.851638278469E+03   -0.34319E-06   -0.38602E-06  4120   0.444E-03
  71 F= -.85954323E+03 E0= -.85954323E+03  d E =0.208429E-03  mag=    -0.0000
quench:  g(F)=  0.000E+00 g(S)=  0.000E+00 dE (1.order)= 0.000E+00
 bond charge predicted
       N       E                     dE             d eps       ncg     rms          rms(c)
DAV:   1    -0.851636323386E+03    0.19547E-02   -0.83726E-01  3920   0.186E+00    0.162E-01
DAV:   2    -0.851638003583E+03   -0.16802E-02   -0.19154E-02  3940   0.249E-01    0.110E-01
DAV:   3    -0.851637946572E+03    0.57011E-04   -0.23216E-04  4640   0.328E-02    0.869E-02
DAV:   4    -0.851638006483E+03   -0.59911E-04   -0.35654E-04  4480   0.442E-02    0.189E-02
DAV:   5    -0.851638017289E+03   -0.10806E-04   -0.78980E-05  4360   0.165E-02    0.138E-02
DAV:   6    -0.851638015549E+03    0.17398E-05   -0.12535E-05  3940   0.992E-03    0.689E-03
DAV:   7    -0.851638016030E+03   -0.48126E-06   -0.44844E-06  4200   0.461E-03
  72 F= -.85954295E+03 E0= -.85954295E+03  d E =0.283091E-03  mag=     0.0000
quench:  g(F)=  0.000E+00 g(S)=  0.000E+00 dE (1.order)= 0.000E+00
 bond charge predicted
       N       E                     dE             d eps       ncg     rms          rms(c)
DAV:   1    -0.851635671516E+03    0.23440E-02   -0.10140E+00  3920   0.204E+00    0.180E-01
DAV:   2    -0.851637682394E+03   -0.20109E-02   -0.22982E-02  3960   0.273E-01    0.123E-01
DAV:   3    -0.851637611926E+03    0.70468E-04   -0.28694E-04  4640   0.365E-02    0.971E-02
DAV:   4    -0.851637679291E+03   -0.67365E-04   -0.44295E-04  4500   0.488E-02    0.206E-02
DAV:   5    -0.851637691094E+03   -0.11804E-04   -0.96878E-05  4360   0.184E-02    0.148E-02
DAV:   6    -0.851637688859E+03    0.22354E-05   -0.13669E-05  3920   0.102E-02    0.771E-03
DAV:   7    -0.851637689208E+03   -0.34923E-06   -0.53171E-06  4140   0.505E-03
  73 F= -.85954260E+03 E0= -.85954260E+03  d E =0.349961E-03  mag=     0.0000
quench:  g(F)=  0.000E+00 g(S)=  0.000E+00 dE (1.order)= 0.000E+00
 bond charge predicted
       N       E                     dE             d eps       ncg     rms          rms(c)
DAV:   1    -0.851637713227E+03   -0.24368E-04   -0.27305E-04  4000   0.378E-02    0.345E-03
DAV:   2    -0.851637713863E+03   -0.63612E-06   -0.75192E-06  4380   0.569E-03
  74 F= -.85954262E+03 E0= -.85954262E+03  d E =-.236296E-04  mag=     0.0000
quench:  g(F)=  0.000E+00 g(S)=  0.000E+00 dE (1.order)= 0.000E+00
 bond charge predicted
       N       E                     dE             d eps       ncg     rms          rms(c)
DAV:   1    -0.851637748101E+03   -0.34874E-04   -0.95697E-04  3860   0.700E-02    0.789E-03
DAV:   2    -0.851637749621E+03   -0.15198E-05   -0.23584E-05  4440   0.100E-02    0.658E-03
DAV:   3    -0.851637749231E+03    0.39039E-06   -0.73938E-07  2320   0.214E-03
  75 F= -.85954265E+03 E0= -.85954265E+03  d E =-.332779E-04  mag=     0.0000
quench:  g(F)=  0.000E+00 g(S)=  0.000E+00 dE (1.order)= 0.000E+00
 bond charge predicted
       N       E                     dE             d eps       ncg     rms          rms(c)
DAV:   1    -0.851637779849E+03   -0.30228E-04   -0.17614E-03  3860   0.933E-02    0.914E-03
DAV:   2    -0.851637783030E+03   -0.31804E-05   -0.40584E-05  4340   0.128E-02    0.694E-03
DAV:   3    -0.851637782825E+03    0.20504E-06   -0.79139E-07  2700   0.229E-03
  76 F= -.85954268E+03 E0= -.85954268E+03  d E =-.302477E-04  mag=     0.0000
quench:  g(F)=  0.000E+00 g(S)=  0.000E+00 dE (1.order)= 0.000E+00
 bond charge predicted
       N       E                     dE             d eps       ncg     rms          rms(c)
DAV:   1    -0.851637813332E+03   -0.30302E-04   -0.26075E-03  3860   0.110E-01    0.105E-02
DAV:   2    -0.851637818089E+03   -0.47568E-05   -0.59322E-05  4060   0.150E-02    0.750E-03
DAV:   3    -0.851637817956E+03    0.13324E-06   -0.93660E-07  3100   0.243E-03
  77 F= -.85954271E+03 E0= -.85954271E+03  d E =-.303633E-04  mag=    -0.0000
quench:  g(F)=  0.000E+00 g(S)=  0.000E+00 dE (1.order)= 0.000E+00
 bond charge predicted
       N       E                     dE             d eps       ncg     rms          rms(c)
DAV:   1    -0.851637861102E+03   -0.43013E-04   -0.35765E-03  3880   0.127E-01    0.120E-02
DAV:   2    -0.851637867569E+03   -0.64668E-05   -0.79861E-05  3880   0.170E-02    0.829E-03
DAV:   3    -0.851637867469E+03    0.99790E-07   -0.10532E-06  3180   0.258E-03
  78 F= -.85954276E+03 E0= -.85954276E+03  d E =-.434679E-04  mag=    -0.0000
quench:  g(F)=  0.000E+00 g(S)=  0.000E+00 dE (1.order)= 0.000E+00
 bond charge predicted
       N       E                     dE             d eps       ncg     rms          rms(c)
DAV:   1    -0.851637924279E+03   -0.56710E-04   -0.47604E-03  3880   0.147E-01    0.137E-02
DAV:   2    -0.851637933023E+03   -0.87446E-05   -0.10706E-04  3840   0.197E-02    0.956E-03
DAV:   3    -0.851637932862E+03    0.16110E-06   -0.14891E-06  3440   0.299E-03
  79 F= -.85954282E+03 E0= -.85954282E+03  d E =-.581791E-04  mag=     0.0000
quench:  g(F)=  0.000E+00 g(S)=  0.000E+00 dE (1.order)= 0.000E+00
 bond charge predicted
       N       E                     dE             d eps       ncg     rms          rms(c)
DAV:   1    -0.851637996818E+03   -0.63794E-04   -0.76531E-03  3880   0.187E-01    0.173E-02
DAV:   2    -0.851638011189E+03   -0.14371E-04   -0.17475E-04  3840   0.253E-02    0.123E-02
DAV:   3    -0.851638010825E+03    0.36429E-06   -0.26838E-06  3940   0.387E-03
  80 F= -.85954288E+03 E0= -.85954288E+03  d E =-.685164E-04  mag=     0.0000
quench:  g(F)=  0.000E+00 g(S)=  0.000E+00 dE (1.order)= 0.000E+00
 bond charge predicted
       N       E                     dE             d eps       ncg     rms          rms(c)
DAV:   1    -0.851638072847E+03   -0.61658E-04   -0.11715E-02  3880   0.230E-01    0.214E-02
DAV:   2    -0.851638094882E+03   -0.22035E-04   -0.26754E-04  3880   0.311E-02    0.152E-02
DAV:   3    -0.851638094382E+03    0.50044E-06   -0.40800E-06  4320   0.471E-03
  81 F= -.85954296E+03 E0= -.85954296E+03  d E =-.713608E-04  mag=     0.0000
quench:  g(F)=  0.000E+00 g(S)=  0.000E+00 dE (1.order)= 0.000E+00
 bond charge predicted
       N       E                     dE             d eps       ncg     rms          rms(c)
DAV:   1    -0.851638171557E+03   -0.76675E-04   -0.16331E-02  3900   0.270E-01    0.254E-02
DAV:   2    -0.851638201723E+03   -0.30166E-04   -0.36893E-04  3900   0.362E-02    0.179E-02
DAV:   3    -0.851638201269E+03    0.45355E-06   -0.53358E-06  4560   0.542E-03
  82 F= -.85954305E+03 E0= -.85954305E+03  d E =-.916111E-04  mag=     0.0000
quench:  g(F)=  0.000E+00 g(S)=  0.000E+00 dE (1.order)= 0.000E+00
 bond charge predicted
       N       E                     dE             d eps       ncg     rms          rms(c)
DAV:   1    -0.851638290949E+03   -0.89226E-04   -0.22208E-02  3900   0.318E-01    0.295E-02
DAV:   2    -0.851638331457E+03   -0.40508E-04   -0.49934E-04  3880   0.425E-02    0.211E-02
DAV:   3    -0.851638330654E+03    0.80237E-06   -0.78375E-06  4600   0.652E-03
  83 F= -.85954316E+03 E0= -.85954316E+03  d E =-.109247E-03  mag=    -0.0000
quench:  g(F)=  0.000E+00 g(S)=  0.000E+00 dE (1.order)= 0.000E+00
 bond charge predicted
       N       E                     dE             d eps       ncg     rms          rms(c)
DAV:   1    -0.851638421725E+03   -0.90269E-04   -0.29372E-02  3900   0.367E-01    0.338E-02
DAV:   2    -0.851638473113E+03   -0.51388E-04   -0.64477E-04  3840   0.484E-02    0.247E-02
DAV:   3    -0.851638471735E+03    0.13782E-05   -0.10577E-05  4620   0.757E-03    0.191E-02
DAV:   4    -0.851638476127E+03   -0.43919E-05   -0.10863E-05  3700   0.846E-03    0.505E-03
DAV:   5    -0.851638476957E+03   -0.82990E-06   -0.34639E-06  3840   0.354E-03
  84 F= -.85954327E+03 E0= -.85954327E+03  d E =-.116758E-03  mag=     0.0000
quench:  g(F)=  0.000E+00 g(S)=  0.000E+00 dE (1.order)= 0.000E+00
 bond charge predicted
       N       E                     dE             d eps       ncg     rms          rms(c)
DAV:   1    -0.851638583213E+03   -0.10709E-03   -0.37519E-02  3940   0.416E-01    0.350E-02
DAV:   2    -0.851638653700E+03   -0.70487E-04   -0.85185E-04  3840   0.560E-02    0.250E-02
DAV:   3    -0.851638650600E+03    0.31003E-05   -0.13145E-05  4680   0.845E-03    0.195E-02
DAV:   4    -0.851638654063E+03   -0.34627E-05   -0.16217E-05  3660   0.100E-02    0.533E-03
DAV:   5    -0.851638654824E+03   -0.76146E-06   -0.42334E-06  4060   0.391E-03
  85 F= -.85954341E+03 E0= -.85954341E+03  d E =-.139866E-03  mag=     0.0000
quench:  g(F)=  0.000E+00 g(S)=  0.000E+00 dE (1.order)= 0.000E+00
 bond charge predicted
       N       E                     dE             d eps       ncg     rms          rms(c)
DAV:   1    -0.851638744900E+03   -0.90838E-04   -0.49024E-02  3940   0.479E-01    0.399E-02
DAV:   2    -0.851638834793E+03   -0.89893E-04   -0.10963E-03  3840   0.644E-02    0.295E-02
DAV:   3    -0.851638830080E+03    0.47134E-05   -0.18104E-05  4740   0.982E-03    0.229E-02
DAV:   4    -0.851638834216E+03   -0.41360E-05   -0.23768E-05  3700   0.120E-02    0.613E-03
DAV:   5    -0.851638835101E+03   -0.88506E-06   -0.61362E-06  4260   0.475E-03
  86 F= -.85954355E+03 E0= -.85954355E+03  d E =-.134829E-03  mag=     0.0000
quench:  g(F)=  0.000E+00 g(S)=  0.000E+00 dE (1.order)= 0.000E+00
 bond charge predicted
       N       E                     dE             d eps       ncg     rms          rms(c)
DAV:   1    -0.851638929157E+03   -0.94942E-04   -0.59002E-02  3920   0.528E-01    0.441E-02
DAV:   2    -0.851639031182E+03   -0.10202E-03   -0.12709E-03  3840   0.707E-02    0.338E-02
DAV:   3    -0.851639024500E+03    0.66818E-05   -0.22257E-05  4780   0.111E-02    0.260E-02
DAV:   4    -0.851639029833E+03   -0.53324E-05   -0.33779E-05  3740   0.141E-02    0.630E-03
DAV:   5    -0.851639030450E+03   -0.61715E-06   -0.84616E-06  4260   0.568E-03
  87 F= -.85954369E+03 E0= -.85954369E+03  d E =-.140792E-03  mag=    -0.0000
quench:  g(F)=  0.000E+00 g(S)=  0.000E+00 dE (1.order)= 0.000E+00
 bond charge predicted
       N       E                     dE             d eps       ncg     rms          rms(c)
DAV:   1    -0.851639117966E+03   -0.88133E-04   -0.76088E-02  3920   0.598E-01    0.510E-02
DAV:   2    -0.851639239615E+03   -0.12165E-03   -0.15573E-03  3840   0.796E-02    0.406E-02
DAV:   3    -0.851639228855E+03    0.10761E-04   -0.31391E-05  4740   0.133E-02    0.311E-02
DAV:   4    -0.851639233965E+03   -0.51106E-05   -0.49761E-05  3940   0.168E-02    0.760E-03
DAV:   5    -0.851639234724E+03   -0.75930E-06   -0.12538E-05  4300   0.695E-03    0.457E-03
DAV:   6    -0.851639234823E+03   -0.98502E-07   -0.16254E-06  3000   0.305E-03
  88 F= -.85954383E+03 E0= -.85954383E+03  d E =-.141651E-03  mag=     0.0000
quench:  g(F)=  0.000E+00 g(S)=  0.000E+00 dE (1.order)= 0.000E+00
 bond charge predicted
       N       E                     dE             d eps       ncg     rms          rms(c)
DAV:   1    -0.851639321169E+03   -0.86445E-04   -0.10241E-01  3880   0.688E-01    0.591E-02
DAV:   2    -0.851639475667E+03   -0.15450E-03   -0.20126E-03  3880   0.907E-02    0.480E-02
DAV:   3    -0.851639459156E+03    0.16511E-04   -0.44218E-05  4760   0.155E-02    0.366E-02
DAV:   4    -0.851639463455E+03   -0.42991E-05   -0.71372E-05  4180   0.196E-02    0.890E-03
DAV:   5    -0.851639464392E+03   -0.93711E-06   -0.16720E-05  4260   0.795E-03    0.534E-03
DAV:   6    -0.851639464516E+03   -0.12348E-06   -0.22046E-06  3160   0.346E-03
  89 F= -.85954398E+03 E0= -.85954398E+03  d E =-.154061E-03  mag=    -0.0000
quench:  g(F)=  0.000E+00 g(S)=  0.000E+00 dE (1.order)= 0.000E+00
 bond charge predicted
       N       E                     dE             d eps       ncg     rms          rms(c)
DAV:   1    -0.851639498424E+03   -0.34032E-04   -0.14352E-01  3880   0.809E-01    0.707E-02
DAV:   2    -0.851639707650E+03   -0.20923E-03   -0.27614E-03  3900   0.106E-01    0.577E-02
DAV:   3    -0.851639683770E+03    0.23880E-04   -0.62582E-05  4660   0.184E-02    0.438E-02
DAV:   4    -0.851639688808E+03   -0.50379E-05   -0.10326E-04  4380   0.236E-02    0.105E-02
DAV:   5    -0.851639689900E+03   -0.10923E-05   -0.23659E-05  4260   0.950E-03    0.635E-03
DAV:   6    -0.851639690136E+03   -0.23543E-06   -0.30972E-06  3560   0.412E-03
  90 F= -.85954413E+03 E0= -.85954413E+03  d E =-.144184E-03  mag=     0.0000
quench:  g(F)=  0.000E+00 g(S)=  0.000E+00 dE (1.order)= 0.000E+00
 bond charge predicted
       N       E                     dE             d eps       ncg     rms          rms(c)
DAV:   1    -0.851639685432E+03    0.44680E-05   -0.20233E-01  3880   0.951E-01    0.847E-02
DAV:   2    -0.851639968676E+03   -0.28324E-03   -0.37881E-03  3920   0.124E-01    0.703E-02
DAV:   3    -0.851639931675E+03    0.37000E-04   -0.90646E-05  4660   0.223E-02    0.532E-02
DAV:   4    -0.851639935969E+03   -0.42942E-05   -0.15636E-04  4440   0.291E-02    0.127E-02
DAV:   5    -0.851639937457E+03   -0.14878E-05   -0.36373E-05  4200   0.118E-02    0.789E-03
DAV:   6    -0.851639937968E+03   -0.51113E-06   -0.50069E-06  3800   0.540E-03
  91 F= -.85954427E+03 E0= -.85954427E+03  d E =-.145332E-03  mag=     0.0000
quench:  g(F)=  0.000E+00 g(S)=  0.000E+00 dE (1.order)= 0.000E+00
 bond charge predicted
       N       E                     dE             d eps       ncg     rms          rms(c)
DAV:   1    -0.851639850676E+03    0.86781E-04   -0.26258E-01  3880   0.110E+00    0.985E-02
DAV:   2    -0.851640209917E+03   -0.35924E-03   -0.49259E-03  3960   0.143E-01    0.826E-02
DAV:   3    -0.851640157191E+03    0.52726E-04   -0.13545E-04  4760   0.270E-02    0.621E-02
DAV:   4    -0.851640158026E+03   -0.83502E-06   -0.18849E-04  4460   0.323E-02    0.167E-02
DAV:   5    -0.851640162319E+03   -0.42925E-05   -0.48033E-05  4260   0.133E-02    0.939E-03
DAV:   6    -0.851640162941E+03   -0.62199E-06   -0.64577E-06  3780   0.583E-03
  92 F= -.85954439E+03 E0= -.85954439E+03  d E =-.113620E-03  mag=     0.0000
quench:  g(F)=  0.000E+00 g(S)=  0.000E+00 dE (1.order)= 0.000E+00
 bond charge predicted
       N       E                     dE             d eps       ncg     rms          rms(c)
DAV:   1    -0.851639614858E+03    0.54746E-03   -0.39719E-01  3880   0.137E+00    0.121E-01
DAV:   2    -0.851640195056E+03   -0.58020E-03   -0.78887E-03  4060   0.183E-01    0.106E-01
DAV:   3    -0.851640100987E+03    0.94069E-04   -0.24744E-04  4920   0.355E-02    0.809E-02
DAV:   4    -0.851640069877E+03    0.31110E-04   -0.33708E-04  4420   0.442E-02    0.240E-02
DAV:   5    -0.851640077974E+03   -0.80972E-05   -0.86108E-05  4240   0.179E-02    0.135E-02
DAV:   6    -0.851640079811E+03   -0.18365E-05   -0.11580E-05  4220   0.779E-03    0.593E-03
DAV:   7    -0.851640079935E+03   -0.12414E-06   -0.14605E-06  2840   0.279E-03
  93 F= -.85954416E+03 E0= -.85954416E+03  d E =0.227883E-03  mag=    -0.0000
quench:  g(F)=  0.000E+00 g(S)=  0.000E+00 dE (1.order)= 0.000E+00
 bond charge predicted
       N       E                     dE             d eps       ncg     rms          rms(c)
DAV:   1    -0.851640662081E+03   -0.58227E-03   -0.33634E-02  3940   0.421E-01    0.423E-02
DAV:   2    -0.851640720662E+03   -0.58581E-04   -0.85897E-04  4700   0.612E-02    0.382E-02
DAV:   3    -0.851640703016E+03    0.17647E-04   -0.45249E-05  4980   0.142E-02    0.289E-02
DAV:   4    -0.851640688038E+03    0.14977E-04   -0.34380E-05  4180   0.140E-02    0.125E-02
DAV:   5    -0.851640687402E+03    0.63665E-06   -0.10767E-05  4300   0.671E-03    0.522E-03
DAV:   6    -0.851640687469E+03   -0.67339E-07   -0.90125E-07  2300   0.222E-03
  94 F= -.85954476E+03 E0= -.85954476E+03  d E =-.603669E-03  mag=    -0.0000
quench:  g(F)=  0.000E+00 g(S)=  0.000E+00 dE (1.order)= 0.000E+00
 bond charge predicted
       N       E                     dE             d eps       ncg     rms          rms(c)
DAV:   1    -0.851640694497E+03   -0.70955E-05   -0.46321E-05  4000   0.156E-02    0.205E-03
DAV:   2    -0.851640694546E+03   -0.49244E-07   -0.10274E-06  2240   0.228E-03
  95 F= -.85954477E+03 E0= -.85954477E+03  d E =-.551708E-05  mag=    -0.0000
quench:  g(F)=  0.000E+00 g(S)=  0.000E+00 dE (1.order)= 0.000E+00
 bond charge predicted
       N       E                     dE             d eps       ncg     rms          rms(c)
DAV:   1    -0.851640703230E+03   -0.87326E-05   -0.22605E-04  3880   0.341E-02    0.360E-03
DAV:   2    -0.851640703575E+03   -0.34511E-06   -0.51054E-06  4240   0.474E-03
  96 F= -.85954477E+03 E0= -.85954477E+03  d E =-.603654E-05  mag=     0.0000
quench:  g(F)=  0.000E+00 g(S)=  0.000E+00 dE (1.order)= 0.000E+00
 bond charge predicted
       N       E                     dE             d eps       ncg     rms          rms(c)
DAV:   1    -0.851640708841E+03   -0.56109E-05   -0.72532E-04  3880   0.593E-02    0.673E-03
DAV:   2    -0.851640709902E+03   -0.10616E-05   -0.16074E-05  4200   0.807E-03    0.542E-03
DAV:   3    -0.851640709699E+03    0.20322E-06   -0.41550E-07  2440   0.169E-03
  97 F= -.85954478E+03 E0= -.85954478E+03  d E =-.192017E-05  mag=     0.0000
quench:  g(F)=  0.000E+00 g(S)=  0.000E+00 dE (1.order)= 0.000E+00
 bond charge predicted
       N       E                     dE             d eps       ncg     rms          rms(c)
DAV:   1    -0.851640706961E+03    0.29412E-05   -0.18816E-03  3880   0.926E-02    0.839E-03
DAV:   2    -0.851640710389E+03   -0.34279E-05   -0.40998E-05  3980   0.122E-02    0.608E-03
DAV:   3    -0.851640710251E+03    0.13838E-06   -0.54346E-07  2780   0.186E-03
  98 F= -.85954477E+03 E0= -.85954477E+03  d E =0.467705E-05  mag=     0.0000
quench:  g(F)=  0.000E+00 g(S)=  0.000E+00 dE (1.order)= 0.000E+00
 bond charge predicted
       N       E                     dE             d eps       ncg     rms          rms(c)
DAV:   1    -0.851640697725E+03    0.12664E-04   -0.43253E-03  3900   0.138E-01    0.124E-02
DAV:   2    -0.851640705708E+03   -0.79827E-05   -0.95109E-05  3860   0.182E-02    0.861E-03
DAV:   3    -0.851640705466E+03    0.24182E-06   -0.11984E-06  3220   0.264E-03
  99 F= -.85954476E+03 E0= -.85954476E+03  d E =0.106795E-04  mag=    -0.0000
quench:  g(F)=  0.000E+00 g(S)=  0.000E+00 dE (1.order)= 0.000E+00
 bond charge predicted
       N       E                     dE             d eps       ncg     rms          rms(c)
DAV:   1    -0.851640677991E+03    0.27717E-04   -0.88112E-03  3900   0.196E-01    0.176E-02
DAV:   2    -0.851640694254E+03   -0.16263E-04   -0.19420E-04  3840   0.258E-02    0.121E-02
DAV:   3    -0.851640693851E+03    0.40360E-06   -0.25259E-06  3760   0.363E-03
 100 F= -.85954474E+03 E0= -.85954474E+03  d E =0.177719E-04  mag=    -0.0000
quench:  g(F)=  0.000E+00 g(S)=  0.000E+00 dE (1.order)= 0.000E+00
 bond charge predicted
       N       E                     dE             d eps       ncg     rms          rms(c)
DAV:   1    -0.851640627087E+03    0.67167E-04   -0.20751E-02  3900   0.298E-01    0.269E-02
DAV:   2    -0.851640665666E+03   -0.38578E-04   -0.45954E-04  3840   0.394E-02    0.185E-02
DAV:   3    -0.851640664729E+03    0.93699E-06   -0.60777E-06  4500   0.547E-03
 101 F= -.85954471E+03 E0= -.85954471E+03  d E =0.360374E-04  mag=    -0.0000
quench:  g(F)=  0.000E+00 g(S)=  0.000E+00 dE (1.order)= 0.000E+00
 bond charge predicted
       N       E                     dE             d eps       ncg     rms          rms(c)
DAV:   1    -0.851640529664E+03    0.13600E-03   -0.46889E-02  3900   0.447E-01    0.404E-02
DAV:   2    -0.851640616595E+03   -0.86931E-04   -0.10366E-03  3840   0.589E-02    0.277E-02
DAV:   3    -0.851640614688E+03    0.19076E-05   -0.13457E-05  4680   0.806E-03    0.216E-02
DAV:   4    -0.851640621399E+03   -0.67114E-05   -0.15785E-05  3700   0.995E-03    0.497E-03
DAV:   5    -0.851640622391E+03   -0.99139E-06   -0.45791E-06  4220   0.397E-03
 102 F= -.85954466E+03 E0= -.85954466E+03  d E =0.500602E-04  mag=    -0.0000
quench:  g(F)=  0.000E+00 g(S)=  0.000E+00 dE (1.order)= 0.000E+00
 bond charge predicted
       N       E                     dE             d eps       ncg     rms          rms(c)
DAV:   1    -0.851640362972E+03    0.25843E-03   -0.93215E-02  3920   0.628E-01    0.544E-02
DAV:   2    -0.851640549273E+03   -0.18630E-03   -0.21541E-03  3840   0.847E-02    0.363E-02
DAV:   3    -0.851640543925E+03    0.53487E-05   -0.26168E-05  4660   0.113E-02    0.286E-02
DAV:   4    -0.851640553415E+03   -0.94904E-05   -0.35768E-05  3760   0.151E-02    0.652E-03
DAV:   5    -0.851640554902E+03   -0.14871E-05   -0.91814E-06  4380   0.570E-03    0.475E-03
DAV:   6    -0.851640554610E+03    0.29184E-06   -0.13408E-06  3020   0.367E-03
 103 F= -.85954458E+03 E0= -.85954458E+03  d E =0.755534E-04  mag=     0.0000
quench:  g(F)=  0.000E+00 g(S)=  0.000E+00 dE (1.order)= 0.000E+00
 bond charge predicted
       N       E                     dE             d eps       ncg     rms          rms(c)
DAV:   1    -0.851640121070E+03    0.43383E-03   -0.16365E-01  3920   0.831E-01    0.711E-02
DAV:   2    -0.851640448897E+03   -0.32783E-03   -0.37670E-03  3900   0.112E-01    0.478E-02
DAV:   3    -0.851640437992E+03    0.10904E-04   -0.45538E-05  4700   0.149E-02    0.377E-02
DAV:   4    -0.851640451657E+03   -0.13665E-04   -0.68855E-05  4020   0.206E-02    0.848E-03
DAV:   5    -0.851640453887E+03   -0.22301E-05   -0.16289E-05  4410   0.770E-03    0.638E-03
DAV:   6    -0.851640453468E+03    0.41855E-06   -0.26561E-06  3600   0.496E-03
 104 F= -.85954447E+03 E0= -.85954447E+03  d E =0.109890E-03  mag=     0.0000
quench:  g(F)=  0.000E+00 g(S)=  0.000E+00 dE (1.order)= 0.000E+00
 bond charge predicted
       N       E                     dE             d eps       ncg     rms          rms(c)
DAV:   1    -0.851639797031E+03    0.65686E-03   -0.25685E-01  3920   0.104E+00    0.893E-02
DAV:   2    -0.851640307630E+03   -0.51060E-03   -0.58724E-03  3900   0.140E-01    0.606E-02
DAV:   3    -0.851640290808E+03    0.16822E-04   -0.72172E-05  4680   0.187E-02    0.477E-02
DAV:   4    -0.851640311186E+03   -0.20378E-04   -0.11152E-04  4360   0.258E-02    0.107E-02
DAV:   5    -0.851640314550E+03   -0.33635E-05   -0.24888E-05  4360   0.950E-03    0.799E-03
DAV:   6    -0.851640313954E+03    0.59609E-06   -0.44665E-06  3860   0.624E-03
 105 F= -.85954432E+03 E0= -.85954432E+03  d E =0.148711E-03  mag=     0.0000
quench:  g(F)=  0.000E+00 g(S)=  0.000E+00 dE (1.order)= 0.000E+00
 bond charge predicted
       N       E                     dE             d eps       ncg     rms          rms(c)
DAV:   1    -0.851639402523E+03    0.91203E-03   -0.36306E-01  3920   0.124E+00    0.107E-01
DAV:   2    -0.851640118832E+03   -0.71631E-03   -0.82531E-03  3920   0.166E-01    0.725E-02
DAV:   3    -0.851640094407E+03    0.24425E-04   -0.10372E-04  4700   0.224E-02    0.571E-02
DAV:   4    -0.851640123222E+03   -0.28815E-04   -0.15867E-04  4380   0.307E-02    0.127E-02
DAV:   5    -0.851640127466E+03   -0.42442E-05   -0.34935E-05  4360   0.113E-02    0.929E-03
DAV:   6    -0.851640126616E+03    0.85020E-06   -0.62282E-06  3900   0.732E-03
 106 F= -.85954412E+03 E0= -.85954412E+03  d E =0.198821E-03  mag=    -0.0000
quench:  g(F)=  0.000E+00 g(S)=  0.000E+00 dE (1.order)= 0.000E+00
 bond charge predicted
       N       E                     dE             d eps       ncg     rms          rms(c)
DAV:   1    -0.851639111346E+03    0.10161E-02   -0.44177E-01  3940   0.137E+00    0.119E-01
DAV:   2    -0.851639968837E+03   -0.85749E-03   -0.99391E-03  3920   0.183E-01    0.814E-02
DAV:   3    -0.851639937392E+03    0.31444E-04   -0.13106E-04  4740   0.252E-02    0.639E-02
DAV:   4    -0.851639969477E+03   -0.32085E-04   -0.19565E-04  4460   0.342E-02    0.143E-02
DAV:   5    -0.851639974924E+03   -0.54470E-05   -0.43386E-05  4360   0.126E-02    0.101E-02
DAV:   6    -0.851639973832E+03    0.10923E-05   -0.70776E-06  3920   0.783E-03    0.503E-03
DAV:   7    -0.851639974143E+03   -0.31095E-06   -0.27275E-06  3580   0.373E-03
 107 F= -.85954396E+03 E0= -.85954396E+03  d E =0.166571E-03  mag=     0.0000
quench:  g(F)=  0.000E+00 g(S)=  0.000E+00 dE (1.order)= 0.000E+00
 bond charge predicted
       N       E                     dE             d eps       ncg     rms          rms(c)
DAV:   1    -0.851639983329E+03   -0.94979E-05   -0.77294E-05  4000   0.197E-02    0.189E-03
DAV:   2    -0.851639983503E+03   -0.17401E-06   -0.22007E-06  3260   0.305E-03
 108 F= -.85954397E+03 E0= -.85954397E+03  d E =-.864006E-05  mag=     0.0000
quench:  g(F)=  0.000E+00 g(S)=  0.000E+00 dE (1.order)= 0.000E+00
 bond charge predicted
       N       E                     dE             d eps       ncg     rms          rms(c)
DAV:   1    -0.851639999107E+03   -0.15777E-04   -0.27323E-04  3940   0.367E-02    0.408E-03
DAV:   2    -0.851639999526E+03   -0.41939E-06   -0.64700E-06  4260   0.518E-03
 109 F= -.85954398E+03 E0= -.85954398E+03  d E =-.146118E-04  mag=    -0.0000
quench:  g(F)=  0.000E+00 g(S)=  0.000E+00 dE (1.order)= 0.000E+00
 bond charge predicted
       N       E                     dE             d eps       ncg     rms          rms(c)
DAV:   1    -0.851640019482E+03   -0.20376E-04   -0.53779E-04  3880   0.513E-02    0.646E-03
DAV:   2    -0.851640020212E+03   -0.73012E-06   -0.12214E-05  4300   0.713E-03    0.536E-03
DAV:   3    -0.851640020027E+03    0.18560E-06   -0.32199E-07  2270   0.158E-03
 110 F= -.85954400E+03 E0= -.85954400E+03  d E =-.183984E-04  mag=     0.0000
quench:  g(F)=  0.000E+00 g(S)=  0.000E+00 dE (1.order)= 0.000E+00
 bond charge predicted
       N       E                     dE             d eps       ncg     rms          rms(c)
DAV:   1    -0.851640043346E+03   -0.23134E-04   -0.81887E-04  3880   0.631E-02    0.598E-03
DAV:   2    -0.851640044731E+03   -0.13847E-05   -0.17434E-05  4160   0.840E-03    0.461E-03
DAV:   3    -0.851640044656E+03    0.75517E-07   -0.27851E-07  2340   0.145E-03
 111 F= -.85954402E+03 E0= -.85954402E+03  d E =-.219101E-04  mag=     0.0000
quench:  g(F)=  0.000E+00 g(S)=  0.000E+00 dE (1.order)= 0.000E+00
 bond charge predicted
       N       E                     dE             d eps       ncg     rms          rms(c)
DAV:   1    -0.851640071555E+03   -0.26824E-04   -0.11268E-03  3880   0.737E-02    0.686E-03
DAV:   2    -0.851640073452E+03   -0.18972E-05   -0.24102E-05  3940   0.986E-03    0.529E-03
DAV:   3    -0.851640073358E+03    0.94326E-07   -0.38929E-07  2680   0.171E-03
 112 F= -.85954405E+03 E0= -.85954405E+03  d E =-.254162E-04  mag=    -0.0000
quench:  g(F)=  0.000E+00 g(S)=  0.000E+00 dE (1.order)= 0.000E+00
 bond charge predicted
       N       E                     dE             d eps       ncg     rms          rms(c)
DAV:   1    -0.851640103531E+03   -0.30079E-04   -0.14096E-03  3880   0.825E-02    0.772E-03
DAV:   2    -0.851640105815E+03   -0.22837E-05   -0.29469E-05  3940   0.109E-02    0.602E-03
DAV:   3    -0.851640105699E+03    0.11564E-06   -0.50294E-07  2720   0.193E-03
 113 F= -.85954408E+03 E0= -.85954408E+03  d E =-.284308E-04  mag=     0.0000
quench:  g(F)=  0.000E+00 g(S)=  0.000E+00 dE (1.order)= 0.000E+00
 bond charge predicted
       N       E                     dE             d eps       ncg     rms          rms(c)
DAV:   1    -0.851640139750E+03   -0.33935E-04   -0.19979E-03  3880   0.986E-02    0.921E-03
DAV:   2    -0.851640142806E+03   -0.30559E-05   -0.40489E-05  3940   0.130E-02    0.737E-03
DAV:   3    -0.851640142590E+03    0.21607E-06   -0.76853E-07  2820   0.237E-03
 114 F= -.85954411E+03 E0= -.85954411E+03  d E =-.319893E-04  mag=    -0.0000
quench:  g(F)=  0.000E+00 g(S)=  0.000E+00 dE (1.order)= 0.000E+00
 bond charge predicted
       N       E                     dE             d eps       ncg     rms          rms(c)
DAV:   1    -0.851640177675E+03   -0.34869E-04   -0.26602E-03  3880   0.114E-01    0.108E-02
DAV:   2    -0.851640181253E+03   -0.35779E-05   -0.49877E-05  4000   0.147E-02    0.893E-03
DAV:   3    -0.851640180884E+03    0.36958E-06   -0.11458E-06  2940   0.282E-03
 115 F= -.85954414E+03 E0= -.85954414E+03  d E =-.323398E-04  mag=     0.0000
quench:  g(F)=  0.000E+00 g(S)=  0.000E+00 dE (1.order)= 0.000E+00
 bond charge predicted
       N       E                     dE             d eps       ncg     rms          rms(c)
DAV:   1    -0.851640214623E+03   -0.33370E-04   -0.35981E-03  3900   0.130E-01    0.126E-02
DAV:   2    -0.851640218579E+03   -0.39567E-05   -0.59152E-05  3980   0.160E-02    0.107E-02
DAV:   3    -0.851640217954E+03    0.62528E-06   -0.16933E-06  3220   0.329E-03
 116 F= -.85954417E+03 E0= -.85954417E+03  d E =-.293820E-04  mag=    -0.0000
quench:  g(F)=  0.000E+00 g(S)=  0.000E+00 dE (1.order)= 0.000E+00
 bond charge predicted
       N       E                     dE             d eps       ncg     rms          rms(c)
DAV:   1    -0.851640251626E+03   -0.33046E-04   -0.59979E-03  3880   0.162E-01    0.157E-02
DAV:   2    -0.851640258135E+03   -0.65088E-05   -0.95318E-05  3900   0.196E-02    0.133E-02
DAV:   3    -0.851640257135E+03    0.10001E-05   -0.27093E-06  3540   0.396E-03    0.993E-03
DAV:   4    -0.851640257606E+03   -0.47094E-06   -0.45856E-06  3520   0.501E-03
 117 F= -.85954420E+03 E0= -.85954420E+03  d E =-.293437E-04  mag=    -0.0000
quench:  g(F)=  0.000E+00 g(S)=  0.000E+00 dE (1.order)= 0.000E+00
 bond charge predicted
       N       E                     dE             d eps       ncg     rms          rms(c)
DAV:   1    -0.851640281773E+03   -0.24638E-04   -0.12475E-02  3900   0.230E-01    0.210E-02
DAV:   2    -0.851640298704E+03   -0.16931E-04   -0.22319E-04  3840   0.294E-02    0.171E-02
DAV:   3    -0.851640296969E+03    0.17350E-05   -0.50946E-06  4200   0.520E-03    0.132E-02
DAV:   4    -0.851640297614E+03   -0.64542E-06   -0.87690E-06  3660   0.702E-03
 118 F= -.85954423E+03 E0= -.85954423E+03  d E =-.266416E-04  mag=    -0.0000
quench:  g(F)=  0.000E+00 g(S)=  0.000E+00 dE (1.order)= 0.000E+00
 bond charge predicted
       N       E                     dE             d eps       ncg     rms          rms(c)
DAV:   1    -0.851640303367E+03   -0.63983E-05   -0.24366E-02  3900   0.320E-01    0.292E-02
DAV:   2    -0.851640339717E+03   -0.36350E-04   -0.46065E-04  3840   0.415E-02    0.230E-02
DAV:   3    -0.851640336794E+03    0.29227E-05   -0.91669E-06  4640   0.685E-03    0.178E-02
DAV:   4    -0.851640338254E+03   -0.14594E-05   -0.15149E-05  3680   0.929E-03    0.418E-03
DAV:   5    -0.851640338593E+03   -0.33889E-06   -0.36226E-06  3780   0.359E-03
 119 F= -.85954425E+03 E0= -.85954425E+03  d E =-.249676E-04  mag=    -0.0000
quench:  g(F)=  0.000E+00 g(S)=  0.000E+00 dE (1.order)= 0.000E+00
 bond charge predicted
       N       E                     dE             d eps       ncg     rms          rms(c)
DAV:   1    -0.851640318903E+03    0.19351E-04   -0.41938E-02  3920   0.418E-01    0.376E-02
DAV:   2    -0.851640384500E+03   -0.65597E-04   -0.82040E-04  3840   0.549E-02    0.291E-02
DAV:   3    -0.851640379171E+03    0.53293E-05   -0.15476E-05  4720   0.892E-03    0.226E-02
DAV:   4    -0.851640380936E+03   -0.17657E-05   -0.27163E-05  3720   0.125E-02    0.530E-03
DAV:   5    -0.851640381430E+03   -0.49327E-06   -0.63516E-06  4280   0.478E-03
 120 F= -.85954427E+03 E0= -.85954427E+03  d E =-.218473E-04  mag=     0.0000
quench:  g(F)=  0.000E+00 g(S)=  0.000E+00 dE (1.order)= 0.000E+00
 bond charge predicted
       N       E                     dE             d eps       ncg     rms          rms(c)
DAV:   1    -0.851640338843E+03    0.42094E-04   -0.61958E-02  3920   0.506E-01    0.461E-02
DAV:   2    -0.851640433675E+03   -0.94833E-04   -0.11971E-03  3840   0.659E-02    0.356E-02
DAV:   3    -0.851640425782E+03    0.78933E-05   -0.23218E-05  4720   0.110E-02    0.274E-02
DAV:   4    -0.851640428600E+03   -0.28180E-05   -0.38846E-05  3720   0.150E-02    0.639E-03
DAV:   5    -0.851640429267E+03   -0.66648E-06   -0.92914E-06  4320   0.581E-03
 121 F= -.85954429E+03 E0= -.85954429E+03  d E =-.208949E-04  mag=    -0.0000
quench:  g(F)=  0.000E+00 g(S)=  0.000E+00 dE (1.order)= 0.000E+00
 reached required accuracy - stopping structural energy minimisation
