<?xml version="1.0" encoding="ISO-8859-1"?>
<modeling>
 <generator>
  <i name="program" type="string">vasp </i>
  <i name="version" type="string">6.4.2  </i>
  <i name="subversion" type="string">20Jul23 (build Aug 26 2025 15:10:52) complex                          parallel </i>
  <i name="platform" type="string">LinuxIFC </i>
  <i name="date" type="string">2025 12 02 </i>
  <i name="time" type="string">12:36:20 </i>
 </generator>
 <incar>
  <i type="int" name="ISTART">     0</i>
  <i type="string" name="ALGO">Normal</i>
  <i type="logical" name="ADDGRID"> T  </i>
  <i type="int" name="ISPIN">     2</i>
  <i type="int" name="IMIX">     4</i>
  <i name="AMIX">      0.20000000</i>
  <i name="BMIX">      0.00010000</i>
  <i name="AMIX_MAG">      0.80000000</i>
  <i name="BMIX_MAG">      0.00010000</i>
  <i type="int" name="ICHARG">     2</i>
  <i type="int" name="NELM">   200</i>
  <i type="int" name="IBRION">     3</i>
  <i name="EDIFF">      0.00000100</i>
  <i name="EDIFFG">     -0.03000000</i>
  <i type="int" name="NSW">   500</i>
  <i type="int" name="ISIF">     2</i>
  <i type="int" name="ISYM">     0</i>
  <i name="ENCUT">    520.00000000</i>
  <i name="POTIM">      0.00000000</i>
  <v name="MAGMOM">      0.00000000      0.00000000      0.00000000      0.00000000      0.00000000      0.00000000      0.00000000      0.00000000      0.00000000      0.00000000      0.00000000      0.00000000      0.00000000      0.00000000      0.00000000      0.00000000      0.00000000      0.00000000      0.00000000      0.00000000
      0.00000000      0.00000000      0.00000000      0.00000000      0.00000000      0.00000000      0.00000000      0.00000000      0.00000000      0.00000000      0.00000000      0.00000000      0.00000000      0.00000000      0.00000000      0.00000000      0.00000000      0.00000000      0.00000000      0.00000000
      0.00000000      0.00000000      0.00000000      0.00000000      0.00000000      0.00000000      0.00000000      0.00000000      0.00000000      0.00000000      0.00000000      0.00000000      0.00000000      0.00000000      0.00000000      0.00000000      0.00000000      0.00000000      0.00000000      0.00000000
      0.00000000      0.00000000      0.00000000      0.00000000      0.00000000      0.00000000      0.00000000      0.00000000      0.00000000      0.00000000      0.00000000      0.00000000      0.00000000      0.00000000      0.00000000      0.00000000      0.00000000      0.00000000      0.00000000      0.00000000
      0.00000000      0.00000000      0.00000000      0.00000000      0.00000000      0.00000000      0.00000000      0.00000000      0.00000000      0.00000000      0.00000000      0.00000000      0.00000000      0.00000000      0.00000000      0.00000000      0.00000000      0.00000000      0.00000000</v>
  <i type="string" name="LREAL">Auto</i>
  <i type="int" name="ISMEAR">     0</i>
  <i name="SIGMA">      0.05000000</i>
  <i type="logical" name="LWAVE"> F  </i>
  <i type="logical" name="LCHARG"> F  </i>
  <i type="logical" name="LASPH"> T  </i>
  <i type="int" name="IVDW">    12</i>
  <i name="SPRING">     -5.00000000</i>
 </incar>
 <primitive_cell>
  <structure name="primitive_cell" >
   <crystal>
    <varray name="basis" >
     <v>      17.27103806       0.00000000       0.00000000 </v>
     <v>      -8.63551903      14.95715771       0.00000000 </v>
     <v>       0.00000000       0.00000000      15.00000000 </v>
    </varray>
    <i name="volume">   3874.88459904 </i>
    <varray name="rec_basis" >
     <v>       0.05790040       0.03342881       0.00000000 </v>
     <v>       0.00000000       0.06685762       0.00000000 </v>
     <v>       0.00000000       0.00000000       0.06666667 </v>
    </varray>
   </crystal>
   <varray name="positions" >
    <v>       0.99929504       0.99974337       0.49886435 </v>
    <v>       0.99874722       0.14225767       0.49718834 </v>
    <v>       0.99852295       0.28516369       0.49614349 </v>
    <v>       0.99882091       0.42832350       0.49603640 </v>
    <v>       0.99956930       0.57148922       0.49757491 </v>
    <v>       0.00067862       0.71475652       0.50000840 </v>
    <v>       0.00049628       0.85775740       0.50068868 </v>
    <v>       0.14266218       0.00036740       0.49623459 </v>
    <v>       0.14207168       0.14287527       0.49628491 </v>
    <v>       0.14081660       0.28479711       0.49718429 </v>
    <v>       0.14076085       0.42808389       0.49584561 </v>
    <v>       0.14193910       0.57119564       0.49453191 </v>
    <v>       0.14268131       0.71436849       0.49501527 </v>
    <v>       0.14285450       0.85747880       0.49570973 </v>
    <v>       0.28526576       0.99995900       0.49518272 </v>
    <v>       0.28516435       0.14269503       0.49789777 </v>
    <v>       0.28504848       0.28623962       0.50483852 </v>
    <v>       0.28139152       0.42778814       0.50836427 </v>
    <v>       0.28463336       0.57026249       0.49964240 </v>
    <v>       0.28501361       0.71449681       0.49507052 </v>
    <v>       0.28524078       0.85741119       0.49449499 </v>
    <v>       0.42820936       0.00004821       0.49595024 </v>
    <v>       0.42807026       0.14244254       0.49654642 </v>
    <v>       0.42679375       0.28217626       0.49652505 </v>
    <v>       0.42612776       0.71599859       0.49604878 </v>
    <v>       0.42789922       0.85735412       0.49623582 </v>
    <v>       0.57084124       0.00032840       0.49864245 </v>
    <v>       0.57092163       0.14276894       0.49804988 </v>
    <v>       0.57197646       0.28641381       0.49928917 </v>
    <v>       0.57168449       0.85798637       0.50172146 </v>
    <v>       0.71369984       0.99988088       0.50320049 </v>
    <v>       0.71373681       0.14281338       0.49948543 </v>
    <v>       0.71381398       0.28575666       0.50121764 </v>
    <v>       0.71354503       0.42795386       0.50943497 </v>
    <v>       0.71966749       0.57343804       0.53438588 </v>
    <v>       0.72300953       0.71807860       0.53914764 </v>
    <v>       0.71295963       0.85718827       0.51435234 </v>
    <v>       0.85647309       0.99984050       0.50452353 </v>
    <v>       0.85612034       0.14251336       0.49963839 </v>
    <v>       0.85617643       0.28539849       0.49876700 </v>
    <v>       0.85671077       0.42850161       0.50226280 </v>
    <v>       0.85776813       0.57196455       0.50814343 </v>
    <v>       0.85967203       0.71547403       0.51402377 </v>
    <v>       0.85735959       0.85705172       0.51041270 </v>
    <v>       0.04680397       0.09504213       0.49675437 </v>
    <v>       0.04571026       0.23717667       0.49603057 </v>
    <v>       0.04566643       0.38034445       0.49519662 </v>
    <v>       0.04688852       0.52368089       0.49542677 </v>
    <v>       0.04756287       0.66683198       0.49700607 </v>
    <v>       0.04779685       0.80989239       0.49849459 </v>
    <v>       0.04743301       0.95261699       0.49798966 </v>
    <v>       0.18996239       0.09521816       0.49683895 </v>
    <v>       0.18913215       0.23798966       0.49804942 </v>
    <v>       0.18690473       0.37960058       0.49881297 </v>
    <v>       0.18898227       0.52327457       0.49583120 </v>
    <v>       0.18983117       0.66673698       0.49465810 </v>
    <v>       0.19027535       0.80979630       0.49482126 </v>
    <v>       0.19030116       0.95258978       0.49552118 </v>
    <v>       0.33289799       0.09530272       0.49611136 </v>
    <v>       0.33378077       0.23803041       0.50046579 </v>
    <v>       0.32497497       0.37800739       0.51693692 </v>
    <v>       0.32833252       0.52167842       0.50906306 </v>
    <v>       0.33317834       0.66746156       0.49649891 </v>
    <v>       0.33280547       0.80961835       0.49480682 </v>
    <v>       0.33280742       0.95243578       0.49496814 </v>
    <v>       0.47578390       0.09498133       0.49680826 </v>
    <v>       0.47520954       0.23738492       0.49650684 </v>
    <v>       0.47496065       0.80932706       0.49739282 </v>
    <v>       0.47571909       0.95262282       0.49688807 </v>
    <v>       0.61839883       0.09527538       0.49872707 </v>
    <v>       0.61877390       0.23813253       0.49968980 </v>
    <v>       0.62065217       0.37993295       0.50406033 </v>
    <v>       0.62002928       0.81328276       0.50878405 </v>
    <v>       0.61862954       0.95289023       0.50131258 </v>
    <v>       0.76124402       0.09523447       0.50065006 </v>
    <v>       0.76127462       0.23786160       0.49968967 </v>
    <v>       0.76159332       0.38084659       0.50456882 </v>
    <v>       0.76253550       0.52505094       0.51750800 </v>
    <v>       0.76598593       0.66751304       0.53081594 </v>
    <v>       0.76182397       0.80906059       0.52197062 </v>
    <v>       0.76137475       0.95244119       0.50780124 </v>
    <v>       0.90360986       0.09460584       0.50010821 </v>
    <v>       0.90348645       0.23761419       0.49775134 </v>
    <v>       0.90374051       0.38081063       0.49873223 </v>
    <v>       0.90461705       0.52403461       0.50191789 </v>
    <v>       0.90579354       0.66707382       0.50692514 </v>
    <v>       0.90556903       0.81016141       0.50812971 </v>
    <v>       0.90417354       0.95199860       0.50388019 </v>
    <v>       0.46345193       0.35424292       0.49398598 </v>
    <v>       0.40040587       0.55550068       0.51735133 </v>
    <v>       0.64828003       0.53874006       0.54689893 </v>
    <v>       0.58538250       0.41726617       0.50206126 </v>
    <v>       0.58349233       0.74117916       0.50991973 </v>
    <v>       0.46222029       0.67956951       0.49492945 </v>
    <v>       0.56718594       0.58749447       0.47309989 </v>
    <v>       0.49002385       0.51221278       0.41984421 </v>
    <v>       0.41378170       0.42807702       0.53844813 </v>
    <v>       0.63427615       0.66956704       0.56475149 </v>
    <v>       0.55389814       0.54020240       0.43022414 </v>
   </varray>
  </structure>
  <varray name="primitive_index" >
   <v type="int" >        1 </v>
   <v type="int" >        2 </v>
   <v type="int" >        3 </v>
   <v type="int" >        4 </v>
   <v type="int" >        5 </v>
   <v type="int" >        6 </v>
   <v type="int" >        7 </v>
   <v type="int" >        8 </v>
   <v type="int" >        9 </v>
   <v type="int" >       10 </v>
   <v type="int" >       11 </v>
   <v type="int" >       12 </v>
   <v type="int" >       13 </v>
   <v type="int" >       14 </v>
   <v type="int" >       15 </v>
   <v type="int" >       16 </v>
   <v type="int" >       17 </v>
   <v type="int" >       18 </v>
   <v type="int" >       19 </v>
   <v type="int" >       20 </v>
   <v type="int" >       21 </v>
   <v type="int" >       22 </v>
   <v type="int" >       23 </v>
   <v type="int" >       24 </v>
   <v type="int" >       25 </v>
   <v type="int" >       26 </v>
   <v type="int" >       27 </v>
   <v type="int" >       28 </v>
   <v type="int" >       29 </v>
   <v type="int" >       30 </v>
   <v type="int" >       31 </v>
   <v type="int" >       32 </v>
   <v type="int" >       33 </v>
   <v type="int" >       34 </v>
   <v type="int" >       35 </v>
   <v type="int" >       36 </v>
   <v type="int" >       37 </v>
   <v type="int" >       38 </v>
   <v type="int" >       39 </v>
   <v type="int" >       40 </v>
   <v type="int" >       41 </v>
   <v type="int" >       42 </v>
   <v type="int" >       43 </v>
   <v type="int" >       44 </v>
   <v type="int" >       45 </v>
   <v type="int" >       46 </v>
   <v type="int" >       47 </v>
   <v type="int" >       48 </v>
   <v type="int" >       49 </v>
   <v type="int" >       50 </v>
   <v type="int" >       51 </v>
   <v type="int" >       52 </v>
   <v type="int" >       53 </v>
   <v type="int" >       54 </v>
   <v type="int" >       55 </v>
   <v type="int" >       56 </v>
   <v type="int" >       57 </v>
   <v type="int" >       58 </v>
   <v type="int" >       59 </v>
   <v type="int" >       60 </v>
   <v type="int" >       61 </v>
   <v type="int" >       62 </v>
   <v type="int" >       63 </v>
   <v type="int" >       64 </v>
   <v type="int" >       65 </v>
   <v type="int" >       66 </v>
   <v type="int" >       67 </v>
   <v type="int" >       68 </v>
   <v type="int" >       69 </v>
   <v type="int" >       70 </v>
   <v type="int" >       71 </v>
   <v type="int" >       72 </v>
   <v type="int" >       73 </v>
   <v type="int" >       74 </v>
   <v type="int" >       75 </v>
   <v type="int" >       76 </v>
   <v type="int" >       77 </v>
   <v type="int" >       78 </v>
   <v type="int" >       79 </v>
   <v type="int" >       80 </v>
   <v type="int" >       81 </v>
   <v type="int" >       82 </v>
   <v type="int" >       83 </v>
   <v type="int" >       84 </v>
   <v type="int" >       85 </v>
   <v type="int" >       86 </v>
   <v type="int" >       87 </v>
   <v type="int" >       88 </v>
   <v type="int" >       89 </v>
   <v type="int" >       90 </v>
   <v type="int" >       91 </v>
   <v type="int" >       92 </v>
   <v type="int" >       93 </v>
   <v type="int" >       94 </v>
   <v type="int" >       95 </v>
   <v type="int" >       96 </v>
   <v type="int" >       97 </v>
   <v type="int" >       98 </v>
   <v type="int" >       99 </v>
  </varray>
 </primitive_cell>
 <kpoints>
  <generation param="Gamma">
   <v type="int" name="divisions">       2        2        1 </v>
   <v name="usershift">      0.00000000       0.00000000       0.00000000 </v>
   <v name="genvec1">      0.50000000       0.00000000       0.00000000 </v>
   <v name="genvec2">      0.00000000       0.50000000       0.00000000 </v>
   <v name="genvec3">      0.00000000       0.00000000       1.00000000 </v>
   <v name="shift">      0.00000000       0.00000000       0.00000000 </v>
  </generation>
  <varray name="kpointlist" >
   <v>       0.00000000       0.00000000       0.00000000 </v>
   <v>       0.50000000       0.00000000       0.00000000 </v>
   <v>       0.00000000       0.50000000       0.00000000 </v>
   <v>       0.50000000       0.50000000       0.00000000 </v>
  </varray>
  <varray name="weights" >
   <v>       0.25000000 </v>
   <v>       0.25000000 </v>
   <v>       0.25000000 </v>
   <v>       0.25000000 </v>
  </varray>
 </kpoints>
 <parameters>
  <separator name="general" >
   <i type="string" name="SYSTEM">unknown system</i>
   <i type="logical" name="LCOMPAT"> F  </i>
  </separator>
  <separator name="electronic" >
   <i type="string" name="PREC">normal</i>
   <i name="ENMAX">    520.00000000</i>
   <i name="ENAUG">    644.87300000</i>
   <i name="EDIFF">      0.00000100</i>
   <i type="int" name="IALGO">    38</i>
   <i type="int" name="IWAVPR">    11</i>
   <i type="int" name="NBANDS">   240</i>
   <i type="int" name="NBANDSLOW">    -1</i>
   <i type="int" name="NBANDSHIGH">    -1</i>
   <i name="NELECT">    380.00000000</i>
   <i type="int" name="TURBO">     0</i>
   <i type="int" name="IRESTART">     0</i>
   <i type="int" name="NREBOOT">     0</i>
   <i type="int" name="NMIN">     0</i>
   <i name="EREF">      0.00000000</i>
   <separator name="electronic smearing" >
    <i type="int" name="ISMEAR">     0</i>
    <i name="SIGMA">      0.05000000</i>
    <i name="KSPACING">      0.50000000</i>
    <i type="logical" name="KGAMMA"> T  </i>
    <i type="logical" name="KBLOWUP"> T  </i>
   </separator>
   <separator name="electronic projectors" >
    <i type="logical" name="LREAL"> T  </i>
    <v name="ROPT">     -0.00050000     -0.00050000     -0.00050000     -0.00050000</v>
    <i type="int" name="LMAXPAW">  -100</i>
    <i type="int" name="LMAXMIX">     2</i>
    <i type="logical" name="NLSPLINE"> F  </i>
   </separator>
   <separator name="electronic startup" >
    <i type="int" name="ISTART">     0</i>
    <i type="int" name="ICHARG">     2</i>
    <i type="int" name="INIWAV">     1</i>
   </separator>
   <separator name="electronic spin" >
    <i type="int" name="ISPIN">     2</i>
    <i type="logical" name="LNONCOLLINEAR"> F  </i>
    <v name="MAGMOM">      0.00000000      0.00000000      0.00000000      0.00000000      0.00000000      0.00000000      0.00000000      0.00000000      0.00000000      0.00000000      0.00000000      0.00000000      0.00000000      0.00000000      0.00000000      0.00000000      0.00000000      0.00000000      0.00000000      0.00000000
      0.00000000      0.00000000      0.00000000      0.00000000      0.00000000      0.00000000      0.00000000      0.00000000      0.00000000      0.00000000      0.00000000      0.00000000      0.00000000      0.00000000      0.00000000      0.00000000      0.00000000      0.00000000      0.00000000      0.00000000
      0.00000000      0.00000000      0.00000000      0.00000000      0.00000000      0.00000000      0.00000000      0.00000000      0.00000000      0.00000000      0.00000000      0.00000000      0.00000000      0.00000000      0.00000000      0.00000000      0.00000000      0.00000000      0.00000000      0.00000000
      0.00000000      0.00000000      0.00000000      0.00000000      0.00000000      0.00000000      0.00000000      0.00000000      0.00000000      0.00000000      0.00000000      0.00000000      0.00000000      0.00000000      0.00000000      0.00000000      0.00000000      0.00000000      0.00000000      0.00000000
      0.00000000      0.00000000      0.00000000      0.00000000      0.00000000      0.00000000      0.00000000      0.00000000      0.00000000      0.00000000      0.00000000      0.00000000      0.00000000      0.00000000      0.00000000      0.00000000      0.00000000      0.00000000      0.00000000</v>
    <i name="NUPDOWN">     -1.00000000</i>
    <i type="logical" name="LSORBIT"> F  </i>
    <v name="SAXIS">      0.00000000      0.00000000      1.00000000</v>
    <i type="logical" name="LSPIRAL"> F  </i>
    <v name="QSPIRAL">      0.00000000      0.00000000      0.00000000</v>
    <i type="logical" name="LZEROZ"> F  </i>
   </separator>
   <separator name="electronic exchange-correlation" >
    <i type="logical" name="LASPH"> T  </i>
    <i type="logical" name="LMETAGGA"> F  </i>
   </separator>
   <separator name="electronic convergence" >
    <i type="int" name="NELM">   200</i>
    <i type="int" name="NELMDL">    -5</i>
    <i type="int" name="NELMIN">     2</i>
    <i name="ENINI">    520.00000000</i>
    <separator name="electronic convergence detail" >
     <i type="logical" name="LDIAG"> T  </i>
     <i type="logical" name="LSUBROT"> F  </i>
     <i name="WEIMIN">      0.00100000</i>
     <i name="EBREAK">      0.00000000</i>
     <i name="DEPER">      0.30000000</i>
     <i type="int" name="NRMM">     4</i>
     <i name="TIME">      0.40000000</i>
    </separator>
   </separator>
   <separator name="electronic mixer" >
    <i name="AMIX">      0.20000000</i>
    <i name="BMIX">      0.00010000</i>
    <i name="AMIN">      0.10000000</i>
    <i name="AMIX_MAG">      0.80000000</i>
    <i name="BMIX_MAG">      0.00010000</i>
    <separator name="electronic mixer details" >
     <i type="int" name="IMIX">     4</i>
     <i type="logical" name="MIXFIRST"> F  </i>
     <i type="int" name="MAXMIX">   -45</i>
     <i name="WC">    100.00000000</i>
     <i type="int" name="INIMIX">     1</i>
     <i type="int" name="MIXPRE">     1</i>
     <i type="int" name="MREMOVE">     5</i>
    </separator>
   </separator>
   <separator name="electronic dipolcorrection" >
    <i type="logical" name="LDIPOL"> F  </i>
    <i type="logical" name="LMONO"> F  </i>
    <i type="int" name="IDIPOL">     0</i>
    <i name="EPSILON">      1.00000000</i>
    <v name="DIPOL">   -100.00000000   -100.00000000   -100.00000000</v>
    <i name="EFIELD">      0.00000000</i>
   </separator>
  </separator>
  <separator name="grids" >
   <i type="int" name="NGX">    96</i>
   <i type="int" name="NGY">    96</i>
   <i type="int" name="NGZ">    84</i>
   <i type="int" name="NGXF">   192</i>
   <i type="int" name="NGYF">   192</i>
   <i type="int" name="NGZF">   168</i>
   <i type="logical" name="ADDGRID"> T  </i>
  </separator>
  <separator name="ionic" >
   <i type="int" name="NSW">   500</i>
   <i type="int" name="IBRION">     3</i>
   <i type="int" name="MDALGO">     0</i>
   <i type="int" name="ISIF">     2</i>
   <i name="PSTRESS">      0.00000000</i>
   <i name="EDIFFG">     -0.03000000</i>
   <i type="int" name="NFREE">     0</i>
   <i name="POTIM">      0.00000000</i>
   <i name="SMASS">     -3.00000000</i>
   <i name="SCALEE">      1.00000000</i>
  </separator>
  <separator name="ionic md" >
   <i name="TEBEG">      0.00010000</i>
   <i name="TEEND">      0.00010000</i>
   <i type="int" name="NBLOCK">     1</i>
   <i type="int" name="KBLOCK">   500</i>
   <i type="int" name="NPACO">   256</i>
   <i name="APACO">     10.00000000</i>
  </separator>
  <separator name="symmetry" >
   <i type="int" name="ISYM">     0</i>
   <i name="SYMPREC">      0.00001000</i>
  </separator>
  <separator name="dos" >
   <i type="int" name="LORBIT">     0</i>
   <v name="RWIGS">     -1.00000000     -1.00000000     -1.00000000     -1.00000000</v>
   <i type="int" name="NEDOS">   301</i>
   <i name="EMIN">     10.00000000</i>
   <i name="EMAX">    -10.00000000</i>
   <i name="EFERMI">      0.00000000</i>
  </separator>
  <separator name="writing" >
   <i type="int" name="NWRITE">     2</i>
   <i type="logical" name="LWAVE"> F  </i>
   <i type="logical" name="LDOWNSAMPLE"> F  </i>
   <i type="logical" name="LCHARG"> F  </i>
   <i type="logical" name="LPARD"> F  </i>
   <i type="logical" name="LVTOT"> F  </i>
   <i type="logical" name="LVHAR"> F  </i>
   <i type="logical" name="LELF"> F  </i>
   <i type="logical" name="LOPTICS"> F  </i>
   <v name="STM">      0.00000000      0.00000000      0.00000000      0.00000000      0.00000000      0.00000000      0.00000000</v>
  </separator>
  <separator name="performance" >
   <i type="int" name="NPAR">     5</i>
   <i type="int" name="NSIM">     4</i>
   <i type="int" name="NBLK">    -1</i>
   <i type="logical" name="LPLANE"> T  </i>
   <i type="logical" name="LSCALAPACK"> T  </i>
   <i type="logical" name="LSCAAWARE"> F  </i>
   <i type="logical" name="LSCALU"> F  </i>
   <i type="logical" name="LASYNC"> F  </i>
   <i type="logical" name="LORBITALREAL"> F  </i>
  </separator>
  <separator name="miscellaneous" >
   <i type="int" name="IDIOT">     3</i>
   <i type="int" name="PHON_NSTRUCT">    -1</i>
   <i type="logical" name="LMUSIC"> F  </i>
   <v name="POMASS">     12.01100000      1.00000000     18.99800000     16.00000000</v>
   <v name="DARWINR">      0.00000000      0.00000000      0.00000000      0.00000000</v>
   <v name="DARWINV">      1.00000000      1.00000000      1.00000000      1.00000000</v>
   <i type="logical" name="LCORR"> T  </i>
  </separator>
  <i type="logical" name="GGA_COMPAT"> T  </i>
  <i type="logical" name="LBERRY"> F  </i>
  <i type="int" name="ICORELEVEL">     0</i>
  <i type="logical" name="LDAU"> F  </i>
  <i type="int" name="I_CONSTRAINED_M">     0</i>
  <separator name="electronic exchange-correlation" >
   <i type="string" name="GGA">--</i>
   <i type="int" name="VOSKOWN">     0</i>
   <i type="logical" name="LHFCALC"> F  </i>
   <i type="string" name="PRECFOCK"></i>
   <i type="logical" name="LSYMGRAD"> F  </i>
   <i type="logical" name="LHFONE"> F  </i>
   <i type="logical" name="LRHFCALC"> F  </i>
   <i type="logical" name="LTHOMAS"> F  </i>
   <i type="logical" name="LMODELHF"> F  </i>
   <i type="logical" name="LFOCKACE"> F  </i>
   <i name="ENCUT4O">     -1.00000000</i>
   <i type="int" name="EXXOEP">     0</i>
   <i type="int" name="FOURORBIT">     0</i>
   <i name="AEXX">      0.00000000</i>
   <i name="HFALPHA">      0.00000000</i>
   <i name="MCALPHA">      0.00000000</i>
   <i name="ALDAX">      1.00000000</i>
   <i name="AGGAX">      1.00000000</i>
   <i name="ALDAC">      1.00000000</i>
   <i name="AGGAC">      1.00000000</i>
   <i type="int" name="NKREDX">     1</i>
   <i type="int" name="NKREDY">     1</i>
   <i type="int" name="NKREDZ">     1</i>
   <i type="logical" name="SHIFTRED"> F  </i>
   <i type="logical" name="ODDONLY"> F  </i>
   <i type="logical" name="EVENONLY"> F  </i>
   <i type="int" name="LMAXFOCK">     0</i>
   <i type="int" name="NMAXFOCKAE">     0</i>
   <i type="logical" name="LFOCKAEDFT"> F  </i>
   <i name="HFSCREEN">      0.00000000</i>
   <i name="HFSCREENC">      0.00000000</i>
   <i type="int" name="NBANDSGWLOW">     0</i>
  </separator>
  <separator name="vdW DFT" >
   <i type="logical" name="LUSE_VDW"> F  </i>
   <i type="int" name="IVDW_NL">     1</i>
   <i type="logical" name="LSPIN_VDW"> F  </i>
   <i name="Zab_VDW">     -0.84910000</i>
   <i name="PARAM1">      0.12340000</i>
   <i name="PARAM2">      1.00000000</i>
   <i name="PARAM3">      0.00000000</i>
  </separator>
  <separator name="model GW" >
   <i type="int" name="MODEL_GW">     0</i>
   <i name="MODEL_EPS0">     23.48414909</i>
   <i name="MODEL_ALPHA">      1.00000000</i>
  </separator>
  <separator name="linear response parameters" >
   <i type="logical" name="LEPSILON"> F  </i>
   <i type="logical" name="LRPA"> F  </i>
   <i type="logical" name="LNABLA"> F  </i>
   <i type="logical" name="LVEL"> F  </i>
   <i name="CSHIFT">      0.10000000</i>
   <i name="OMEGAMAX">     -1.00000000</i>
   <i name="DEG_THRESHOLD">      0.00200000</i>
   <i name="RTIME">     -0.10000000</i>
   <i name="WPLASMAI">      0.00000000</i>
   <v name="DFIELD">      0.00000000      0.00000000      0.00000000</v>
   <v name="WPLASMA">      0.00000000      0.00000000      0.00000000      0.00000000      0.00000000      0.00000000      0.00000000      0.00000000      0.00000000</v>
  </separator>
  <separator name="orbital magnetization" >
   <i type="logical" name="NUCIND"> F  </i>
   <v name="MAGPOS">      0.00000000      0.00000000      0.00000000</v>
   <i type="logical" name="LNICSALL"> T  </i>
   <i type="logical" name="ORBITALMAG"> F  </i>
   <i type="logical" name="LMAGBLOCH"> F  </i>
   <i type="logical" name="LCHIMAG"> F  </i>
   <i type="logical" name="LGAUGE"> T  </i>
   <i type="int" name="MAGATOM">     0</i>
   <v name="MAGDIPOL">      0.00000000      0.00000000      0.00000000</v>
   <v name="AVECCONST">      0.00000000      0.00000000      0.00000000</v>
  </separator>
  <separator name="response functions" >
   <i type="logical" name="LALL_IN_ONE"> F  </i>
   <i type="int" name="IALL_IN_ONE">    -1</i>
   <i type="int" name="NBANDS_WAVE">    -1</i>
   <i type="logical" name="LFINITE_TEMPERATURE"> F  </i>
   <i type="logical" name="LADDER"> F  </i>
   <i type="logical" name="LRPAFORCE"> F  </i>
   <i type="logical" name="LFXC"> F  </i>
   <i type="logical" name="LHARTREE"> T  </i>
   <i type="int" name="IBSE">     0</i>
   <v type="int" name="KPOINT">    -1     0     0     0</v>
   <i type="logical" name="LTCTC"> F  </i>
   <i type="logical" name="LTCTE"> F  </i>
   <i type="logical" name="LTETE"> F  </i>
   <i type="logical" name="LTRIPLET"> F  </i>
   <i type="logical" name="LFXCEPS"> F  </i>
   <i type="logical" name="LFXHEG"> F  </i>
   <i type="int" name="NATURALO">     2</i>
   <i type="logical" name="LHOLEGF"> F  </i>
   <i type="logical" name="L2ORDER"> F  </i>
   <i type="logical" name="LDMP1"> F  </i>
   <i type="logical" name="LMP2LT"> F  </i>
   <i type="logical" name="LSMP2LT"> F  </i>
   <i type="logical" name="LGWLF"> F  </i>
   <i name="ENCUTGW">     -1.60000002</i>
   <i name="ENCUTGWSOFT">     -1.60000002</i>
   <i name="ENCUTLF">     -1.00000000</i>
   <i type="logical" name="LESF_SPLINES"> F  </i>
   <i type="int" name="LMAXMP2">    -1</i>
   <i name="SCISSOR">      0.00000000</i>
   <i type="int" name="NOMEGA">     0</i>
   <i type="int" name="NOMEGAR">     0</i>
   <i type="int" name="NBANDSGW">    -1</i>
   <i type="int" name="NBANDSO">    -1</i>
   <i type="int" name="NBANDSV">    -1</i>
   <i type="int" name="NELMGW">     1</i>
   <i type="int" name="NELMHF">     1</i>
   <i type="int" name="DIM">     3</i>
   <i type="int" name="IESPILON">     4</i>
   <i type="int" name="ANTIRES">     0</i>
   <i name="OMEGAMAX">    -30.00000000</i>
   <i name="OMEGAMIN">    -30.00000000</i>
   <i name="OMEGATL">   -200.00000000</i>
   <i type="int" name="OMEGAGRID">     0</i>
   <i name="CSHIFT">     -0.10000000</i>
   <i type="logical" name="LSELFENERGY"> F  </i>
   <i type="logical" name="LSPECTRAL"> F  </i>
   <i type="logical" name="LSPECTRALGW"> F  </i>
   <i type="logical" name="LSINGLES"> F  </i>
   <i type="logical" name="LFERMIGW"> F  </i>
   <i type="logical" name="ODDONLYGW"> F  </i>
   <i type="logical" name="EVENONLYGW"> F  </i>
   <i type="int" name="NKREDLFX">     1</i>
   <i type="int" name="NKREDLFY">     1</i>
   <i type="int" name="NKREDLFZ">     1</i>
   <i type="int" name="MAXMEM">  2800</i>
   <i type="int" name="TELESCOPE">     0</i>
   <i type="int" name="NTAUPAR">    -1</i>
   <i type="int" name="NOMEGAPAR">    -1</i>
   <i name="DAMP_NEWTON">      0.80000001</i>
   <i name="LAMBDA">      1.00000000</i>
  </separator>
  <separator name="External order field" >
   <i name="OFIELD_KAPPA">      0.00000000</i>
   <v name="OFIELD_K">      0.00000000      0.00000000      0.00000000</v>
   <i name="OFIELD_Q6_NEAR">      0.00000000</i>
   <i name="OFIELD_Q6_FAR">      0.00000000</i>
   <i name="OFIELD_A">      0.00000000</i>
  </separator>
  <separator name="optional k-points parameters" >
   <i type="int" name="KPOINTS_OPT_MODE">     1</i>
   <i type="logical" name="LKPOINTS_OPT"> F  </i>
  </separator>
 </parameters>
 <atominfo>
  <atoms>      99 </atoms>
  <types>       4 </types>
  <array name="atoms" >
   <dimension dim="1">ion</dimension>
   <field type="string">element</field>
   <field type="int">atomtype</field>
   <set>
    <rc><c>C </c><c>   1</c></rc>
    <rc><c>C </c><c>   1</c></rc>
    <rc><c>C </c><c>   1</c></rc>
    <rc><c>C </c><c>   1</c></rc>
    <rc><c>C </c><c>   1</c></rc>
    <rc><c>C </c><c>   1</c></rc>
    <rc><c>C </c><c>   1</c></rc>
    <rc><c>C </c><c>   1</c></rc>
    <rc><c>C </c><c>   1</c></rc>
    <rc><c>C </c><c>   1</c></rc>
    <rc><c>C </c><c>   1</c></rc>
    <rc><c>C </c><c>   1</c></rc>
    <rc><c>C </c><c>   1</c></rc>
    <rc><c>C </c><c>   1</c></rc>
    <rc><c>C </c><c>   1</c></rc>
    <rc><c>C </c><c>   1</c></rc>
    <rc><c>C </c><c>   1</c></rc>
    <rc><c>C </c><c>   1</c></rc>
    <rc><c>C </c><c>   1</c></rc>
    <rc><c>C </c><c>   1</c></rc>
    <rc><c>C </c><c>   1</c></rc>
    <rc><c>C </c><c>   1</c></rc>
    <rc><c>C </c><c>   1</c></rc>
    <rc><c>C </c><c>   1</c></rc>
    <rc><c>C </c><c>   1</c></rc>
    <rc><c>C </c><c>   1</c></rc>
    <rc><c>C </c><c>   1</c></rc>
    <rc><c>C </c><c>   1</c></rc>
    <rc><c>C </c><c>   1</c></rc>
    <rc><c>C </c><c>   1</c></rc>
    <rc><c>C </c><c>   1</c></rc>
    <rc><c>C </c><c>   1</c></rc>
    <rc><c>C </c><c>   1</c></rc>
    <rc><c>C </c><c>   1</c></rc>
    <rc><c>C </c><c>   1</c></rc>
    <rc><c>C </c><c>   1</c></rc>
    <rc><c>C </c><c>   1</c></rc>
    <rc><c>C </c><c>   1</c></rc>
    <rc><c>C </c><c>   1</c></rc>
    <rc><c>C </c><c>   1</c></rc>
    <rc><c>C </c><c>   1</c></rc>
    <rc><c>C </c><c>   1</c></rc>
    <rc><c>C </c><c>   1</c></rc>
    <rc><c>C </c><c>   1</c></rc>
    <rc><c>C </c><c>   1</c></rc>
    <rc><c>C </c><c>   1</c></rc>
    <rc><c>C </c><c>   1</c></rc>
    <rc><c>C </c><c>   1</c></rc>
    <rc><c>C </c><c>   1</c></rc>
    <rc><c>C </c><c>   1</c></rc>
    <rc><c>C </c><c>   1</c></rc>
    <rc><c>C </c><c>   1</c></rc>
    <rc><c>C </c><c>   1</c></rc>
    <rc><c>C </c><c>   1</c></rc>
    <rc><c>C </c><c>   1</c></rc>
    <rc><c>C </c><c>   1</c></rc>
    <rc><c>C </c><c>   1</c></rc>
    <rc><c>C </c><c>   1</c></rc>
    <rc><c>C </c><c>   1</c></rc>
    <rc><c>C </c><c>   1</c></rc>
    <rc><c>C </c><c>   1</c></rc>
    <rc><c>C </c><c>   1</c></rc>
    <rc><c>C </c><c>   1</c></rc>
    <rc><c>C </c><c>   1</c></rc>
    <rc><c>C </c><c>   1</c></rc>
    <rc><c>C </c><c>   1</c></rc>
    <rc><c>C </c><c>   1</c></rc>
    <rc><c>C </c><c>   1</c></rc>
    <rc><c>C </c><c>   1</c></rc>
    <rc><c>C </c><c>   1</c></rc>
    <rc><c>C </c><c>   1</c></rc>
    <rc><c>C </c><c>   1</c></rc>
    <rc><c>C </c><c>   1</c></rc>
    <rc><c>C </c><c>   1</c></rc>
    <rc><c>C </c><c>   1</c></rc>
    <rc><c>C </c><c>   1</c></rc>
    <rc><c>C </c><c>   1</c></rc>
    <rc><c>C </c><c>   1</c></rc>
    <rc><c>C </c><c>   1</c></rc>
    <rc><c>C </c><c>   1</c></rc>
    <rc><c>C </c><c>   1</c></rc>
    <rc><c>C </c><c>   1</c></rc>
    <rc><c>C </c><c>   1</c></rc>
    <rc><c>C </c><c>   1</c></rc>
    <rc><c>C </c><c>   1</c></rc>
    <rc><c>C </c><c>   1</c></rc>
    <rc><c>C </c><c>   1</c></rc>
    <rc><c>C </c><c>   1</c></rc>
    <rc><c>H </c><c>   2</c></rc>
    <rc><c>H </c><c>   2</c></rc>
    <rc><c>H </c><c>   2</c></rc>
    <rc><c>H </c><c>   2</c></rc>
    <rc><c>H </c><c>   2</c></rc>
    <rc><c>H </c><c>   2</c></rc>
    <rc><c>H </c><c>   2</c></rc>
    <rc><c>H </c><c>   2</c></rc>
    <rc><c>F </c><c>   3</c></rc>
    <rc><c>F </c><c>   3</c></rc>
    <rc><c>O </c><c>   4</c></rc>
   </set>
  </array>
  <array name="atomtypes" >
   <dimension dim="1">type</dimension>
   <field type="int">atomspertype</field>
   <field type="string">element</field>
   <field>mass</field>
   <field>valence</field>
   <field type="string">pseudopotential</field>
   <set>
    <rc><c>  88</c><c>C </c><c>     12.01100000</c><c>      4.00000000</c><c>  PAW_PBE C 08Apr2002                   </c></rc>
    <rc><c>   8</c><c>H </c><c>      1.00000000</c><c>      1.00000000</c><c>  PAW_PBE H 15Jun2001                   </c></rc>
    <rc><c>   2</c><c>F </c><c>     18.99800000</c><c>      7.00000000</c><c>  PAW_PBE F 08Apr2002                   </c></rc>
    <rc><c>   1</c><c>O </c><c>     16.00000000</c><c>      6.00000000</c><c>  PAW_PBE O 08Apr2002                   </c></rc>
   </set>
  </array>
 </atominfo>
 <structure name="initialpos" >
  <crystal>
   <varray name="basis" >
    <v>      17.27103806       0.00000000       0.00000000 </v>
    <v>      -8.63551903      14.95715771       0.00000000 </v>
    <v>       0.00000000       0.00000000      15.00000000 </v>
   </varray>
   <i name="volume">   3874.88459904 </i>
   <varray name="rec_basis" >
    <v>       0.05790040       0.03342881       0.00000000 </v>
    <v>       0.00000000       0.06685762       0.00000000 </v>
    <v>       0.00000000       0.00000000       0.06666667 </v>
   </varray>
  </crystal>
  <varray name="positions" >
   <v>       0.99929504       0.99974337       0.49886435 </v>
   <v>       0.99874722       0.14225767       0.49718834 </v>
   <v>       0.99852295       0.28516369       0.49614349 </v>
   <v>       0.99882091       0.42832350       0.49603640 </v>
   <v>       0.99956930       0.57148922       0.49757491 </v>
   <v>       0.00067862       0.71475652       0.50000840 </v>
   <v>       0.00049628       0.85775740       0.50068868 </v>
   <v>       0.14266218       0.00036740       0.49623459 </v>
   <v>       0.14207168       0.14287527       0.49628491 </v>
   <v>       0.14081660       0.28479711       0.49718429 </v>
   <v>       0.14076085       0.42808389       0.49584561 </v>
   <v>       0.14193910       0.57119564       0.49453191 </v>
   <v>       0.14268131       0.71436849       0.49501527 </v>
   <v>       0.14285450       0.85747880       0.49570973 </v>
   <v>       0.28526576       0.99995900       0.49518272 </v>
   <v>       0.28516435       0.14269503       0.49789777 </v>
   <v>       0.28504848       0.28623962       0.50483852 </v>
   <v>       0.28139152       0.42778814       0.50836427 </v>
   <v>       0.28463336       0.57026249       0.49964240 </v>
   <v>       0.28501361       0.71449681       0.49507052 </v>
   <v>       0.28524078       0.85741119       0.49449499 </v>
   <v>       0.42820936       0.00004821       0.49595024 </v>
   <v>       0.42807026       0.14244254       0.49654642 </v>
   <v>       0.42679375       0.28217626       0.49652505 </v>
   <v>       0.42612776       0.71599859       0.49604878 </v>
   <v>       0.42789922       0.85735412       0.49623582 </v>
   <v>       0.57084124       0.00032840       0.49864245 </v>
   <v>       0.57092163       0.14276894       0.49804988 </v>
   <v>       0.57197646       0.28641381       0.49928917 </v>
   <v>       0.57168449       0.85798637       0.50172146 </v>
   <v>       0.71369984       0.99988088       0.50320049 </v>
   <v>       0.71373681       0.14281338       0.49948543 </v>
   <v>       0.71381398       0.28575666       0.50121764 </v>
   <v>       0.71354503       0.42795386       0.50943497 </v>
   <v>       0.71966749       0.57343804       0.53438588 </v>
   <v>       0.72300953       0.71807860       0.53914764 </v>
   <v>       0.71295963       0.85718827       0.51435234 </v>
   <v>       0.85647309       0.99984050       0.50452353 </v>
   <v>       0.85612034       0.14251336       0.49963839 </v>
   <v>       0.85617643       0.28539849       0.49876700 </v>
   <v>       0.85671077       0.42850161       0.50226280 </v>
   <v>       0.85776813       0.57196455       0.50814343 </v>
   <v>       0.85967203       0.71547403       0.51402377 </v>
   <v>       0.85735959       0.85705172       0.51041270 </v>
   <v>       0.04680397       0.09504213       0.49675437 </v>
   <v>       0.04571026       0.23717667       0.49603057 </v>
   <v>       0.04566643       0.38034445       0.49519662 </v>
   <v>       0.04688852       0.52368089       0.49542677 </v>
   <v>       0.04756287       0.66683198       0.49700607 </v>
   <v>       0.04779685       0.80989239       0.49849459 </v>
   <v>       0.04743301       0.95261699       0.49798966 </v>
   <v>       0.18996239       0.09521816       0.49683895 </v>
   <v>       0.18913215       0.23798966       0.49804942 </v>
   <v>       0.18690473       0.37960058       0.49881297 </v>
   <v>       0.18898227       0.52327457       0.49583120 </v>
   <v>       0.18983117       0.66673698       0.49465810 </v>
   <v>       0.19027535       0.80979630       0.49482126 </v>
   <v>       0.19030116       0.95258978       0.49552118 </v>
   <v>       0.33289799       0.09530272       0.49611136 </v>
   <v>       0.33378077       0.23803041       0.50046579 </v>
   <v>       0.32497497       0.37800739       0.51693692 </v>
   <v>       0.32833252       0.52167842       0.50906306 </v>
   <v>       0.33317834       0.66746156       0.49649891 </v>
   <v>       0.33280547       0.80961835       0.49480682 </v>
   <v>       0.33280742       0.95243578       0.49496814 </v>
   <v>       0.47578390       0.09498133       0.49680826 </v>
   <v>       0.47520954       0.23738492       0.49650684 </v>
   <v>       0.47496065       0.80932706       0.49739282 </v>
   <v>       0.47571909       0.95262282       0.49688807 </v>
   <v>       0.61839883       0.09527538       0.49872707 </v>
   <v>       0.61877390       0.23813253       0.49968980 </v>
   <v>       0.62065217       0.37993295       0.50406033 </v>
   <v>       0.62002928       0.81328276       0.50878405 </v>
   <v>       0.61862954       0.95289023       0.50131258 </v>
   <v>       0.76124402       0.09523447       0.50065006 </v>
   <v>       0.76127462       0.23786160       0.49968967 </v>
   <v>       0.76159332       0.38084659       0.50456882 </v>
   <v>       0.76253550       0.52505094       0.51750800 </v>
   <v>       0.76598593       0.66751304       0.53081594 </v>
   <v>       0.76182397       0.80906059       0.52197062 </v>
   <v>       0.76137475       0.95244119       0.50780124 </v>
   <v>       0.90360986       0.09460584       0.50010821 </v>
   <v>       0.90348645       0.23761419       0.49775134 </v>
   <v>       0.90374051       0.38081063       0.49873223 </v>
   <v>       0.90461705       0.52403461       0.50191789 </v>
   <v>       0.90579354       0.66707382       0.50692514 </v>
   <v>       0.90556903       0.81016141       0.50812971 </v>
   <v>       0.90417354       0.95199860       0.50388019 </v>
   <v>       0.46345193       0.35424292       0.49398598 </v>
   <v>       0.40040587       0.55550068       0.51735133 </v>
   <v>       0.64828003       0.53874006       0.54689893 </v>
   <v>       0.58538250       0.41726617       0.50206126 </v>
   <v>       0.58349233       0.74117916       0.50991973 </v>
   <v>       0.46222029       0.67956951       0.49492945 </v>
   <v>       0.56718594       0.58749447       0.47309989 </v>
   <v>       0.49002385       0.51221278       0.41984421 </v>
   <v>       0.41378170       0.42807702       0.53844813 </v>
   <v>       0.63427615       0.66956704       0.56475149 </v>
   <v>       0.55389814       0.54020240       0.43022414 </v>
  </varray>
  <varray name="selective"  type="logical" >
   <v type="logical" >  T  T  T </v>
   <v type="logical" >  T  T  T </v>
   <v type="logical" >  T  T  T </v>
   <v type="logical" >  T  T  T </v>
   <v type="logical" >  T  T  T </v>
   <v type="logical" >  T  T  T </v>
   <v type="logical" >  T  T  T </v>
   <v type="logical" >  T  T  T </v>
   <v type="logical" >  T  T  T </v>
   <v type="logical" >  T  T  T </v>
   <v type="logical" >  T  T  T </v>
   <v type="logical" >  T  T  T </v>
   <v type="logical" >  T  T  T </v>
   <v type="logical" >  T  T  T </v>
   <v type="logical" >  T  T  T </v>
   <v type="logical" >  T  T  T </v>
   <v type="logical" >  T  T  T </v>
   <v type="logical" >  T  T  T </v>
   <v type="logical" >  T  T  T </v>
   <v type="logical" >  T  T  T </v>
   <v type="logical" >  T  T  T </v>
   <v type="logical" >  T  T  T </v>
   <v type="logical" >  T  T  T </v>
   <v type="logical" >  T  T  T </v>
   <v type="logical" >  T  T  T </v>
   <v type="logical" >  T  T  T </v>
   <v type="logical" >  T  T  T </v>
   <v type="logical" >  T  T  T </v>
   <v type="logical" >  T  T  T </v>
   <v type="logical" >  T  T  T </v>
   <v type="logical" >  T  T  T </v>
   <v type="logical" >  T  T  T </v>
   <v type="logical" >  T  T  T </v>
   <v type="logical" >  T  T  T </v>
   <v type="logical" >  T  T  T </v>
   <v type="logical" >  T  T  T </v>
   <v type="logical" >  T  T  T </v>
   <v type="logical" >  T  T  T </v>
   <v type="logical" >  T  T  T </v>
   <v type="logical" >  T  T  T </v>
   <v type="logical" >  T  T  T </v>
   <v type="logical" >  T  T  T </v>
   <v type="logical" >  T  T  T </v>
   <v type="logical" >  T  T  T </v>
   <v type="logical" >  T  T  T </v>
   <v type="logical" >  T  T  T </v>
   <v type="logical" >  T  T  T </v>
   <v type="logical" >  T  T  T </v>
   <v type="logical" >  T  T  T </v>
   <v type="logical" >  T  T  T </v>
   <v type="logical" >  T  T  T </v>
   <v type="logical" >  T  T  T </v>
   <v type="logical" >  T  T  T </v>
   <v type="logical" >  T  T  T </v>
   <v type="logical" >  T  T  T </v>
   <v type="logical" >  T  T  T </v>
   <v type="logical" >  T  T  T </v>
   <v type="logical" >  T  T  T </v>
   <v type="logical" >  T  T  T </v>
   <v type="logical" >  T  T  T </v>
   <v type="logical" >  T  T  T </v>
   <v type="logical" >  T  T  T </v>
   <v type="logical" >  T  T  T </v>
   <v type="logical" >  T  T  T </v>
   <v type="logical" >  T  T  T </v>
   <v type="logical" >  T  T  T </v>
   <v type="logical" >  T  T  T </v>
   <v type="logical" >  T  T  T </v>
   <v type="logical" >  T  T  T </v>
   <v type="logical" >  T  T  T </v>
   <v type="logical" >  T  T  T </v>
   <v type="logical" >  T  T  T </v>
   <v type="logical" >  T  T  T </v>
   <v type="logical" >  T  T  T </v>
   <v type="logical" >  T  T  T </v>
   <v type="logical" >  T  T  T </v>
   <v type="logical" >  T  T  T </v>
   <v type="logical" >  T  T  T </v>
   <v type="logical" >  T  T  T </v>
   <v type="logical" >  T  T  T </v>
   <v type="logical" >  T  T  T </v>
   <v type="logical" >  T  T  T </v>
   <v type="logical" >  T  T  T </v>
   <v type="logical" >  T  T  T </v>
   <v type="logical" >  T  T  T </v>
   <v type="logical" >  T  T  T </v>
   <v type="logical" >  T  T  T </v>
   <v type="logical" >  T  T  T </v>
   <v type="logical" >  T  T  T </v>
   <v type="logical" >  T  T  T </v>
   <v type="logical" >  T  T  T </v>
   <v type="logical" >  T  T  T </v>
   <v type="logical" >  T  T  T </v>
   <v type="logical" >  T  T  T </v>
   <v type="logical" >  T  T  T </v>
   <v type="logical" >  T  T  T </v>
   <v type="logical" >  T  T  T </v>
   <v type="logical" >  T  T  T </v>
   <v type="logical" >  T  T  F </v>
  </varray>
  <nose>
   <v>      -3.00000000       0.00000000       0.00010000       0.00010000 </v>
  </nose>
 </structure>
 <calculation>
  <scstep>
   <time name="dav">   69.99   70.42</time>
   <time name="total">   74.88   75.39</time>
   <energy>
    <i name="alphaZ">    186.33367753 </i>
    <i name="ewald">  37912.81730292 </i>
    <i name="hartreedc"> -49065.57261689 </i>
    <i name="XCdc">   1280.47441155 </i>
    <i name="pawpsdc">  10991.97733137 </i>
    <i name="pawaedc"> -11054.15789429 </i>
    <i name="eentropy">     -0.03692077 </i>
    <i name="bandstr">  -1495.37809363 </i>
    <i name="atom">  14800.58670786 </i>
    <i name="e_fr_energy">   3557.04390565 </i>
    <i name="e_wo_entrp">   3557.08082643 </i>
    <i name="e_0_energy">   3557.06236604 </i>
   </energy>
  </scstep>
  <scstep>
   <time name="dav">   86.73   87.31</time>
   <time name="total">   86.73   87.33</time>
   <energy>
    <i name="e_fr_energy">   -200.93695798 </i>
    <i name="e_wo_entrp">   -200.93691589 </i>
    <i name="e_0_energy">   -200.93693693 </i>
   </energy>
  </scstep>
  <scstep>
   <time name="dav">   73.65   74.14</time>
   <time name="total">   73.65   74.15</time>
   <energy>
    <i name="e_fr_energy">   -887.41115355 </i>
    <i name="e_wo_entrp">   -887.41115329 </i>
    <i name="e_0_energy">   -887.41115342 </i>
   </energy>
  </scstep>
  <scstep>
   <time name="dav">   72.84   73.34</time>
   <time name="total">   72.84   73.35</time>
   <energy>
    <i name="e_fr_energy">   -912.79725345 </i>
    <i name="e_wo_entrp">   -912.79725343 </i>
    <i name="e_0_energy">   -912.79725344 </i>
   </energy>
  </scstep>
  <scstep>
   <time name="dav">   82.55   83.10</time>
   <time name="total">   88.42   89.02</time>
   <energy>
    <i name="e_fr_energy">   -913.57690758 </i>
    <i name="e_wo_entrp">   -913.57690756 </i>
    <i name="e_0_energy">   -913.57690757 </i>
   </energy>
  </scstep>
  <scstep>
   <time name="dav">   70.64   71.08</time>
   <time name="total">   81.91   82.46</time>
   <energy>
    <i name="e_fr_energy">   -880.24394494 </i>
    <i name="e_wo_entrp">   -880.24394493 </i>
    <i name="e_0_energy">   -880.24394494 </i>
   </energy>
  </scstep>
  <scstep>
   <time name="dav">   69.10   69.55</time>
   <time name="total">   79.90   80.46</time>
   <energy>
    <i name="e_fr_energy">   -852.05264290 </i>
    <i name="e_wo_entrp">   -852.05264287 </i>
    <i name="e_0_energy">   -852.05264288 </i>
   </energy>
  </scstep>
  <scstep>
   <time name="dav">   72.61   73.09</time>
   <time name="total">   83.92   84.52</time>
   <energy>
    <i name="e_fr_energy">   -851.68809426 </i>
    <i name="e_wo_entrp">   -851.68809422 </i>
    <i name="e_0_energy">   -851.68809424 </i>
   </energy>
  </scstep>
  <scstep>
   <time name="dav">   70.92   71.35</time>
   <time name="total">   82.27   82.80</time>
   <energy>
    <i name="e_fr_energy">   -851.78661750 </i>
    <i name="e_wo_entrp">   -851.78661747 </i>
    <i name="e_0_energy">   -851.78661749 </i>
   </energy>
  </scstep>
  <scstep>
   <time name="dav">   73.46   73.90</time>
   <time name="total">   84.84   85.41</time>
   <energy>
    <i name="e_fr_energy">   -851.64304447 </i>
    <i name="e_wo_entrp">   -851.64304445 </i>
    <i name="e_0_energy">   -851.64304446 </i>
   </energy>
  </scstep>
  <scstep>
   <time name="dav">   70.40   70.82</time>
   <time name="total">   81.83   82.35</time>
   <energy>
    <i name="e_fr_energy">   -851.62956124 </i>
    <i name="e_wo_entrp">   -851.62956122 </i>
    <i name="e_0_energy">   -851.62956123 </i>
   </energy>
  </scstep>
  <scstep>
   <time name="dav">   72.51   72.96</time>
   <time name="total">   83.97   84.53</time>
   <energy>
    <i name="e_fr_energy">   -851.62740747 </i>
    <i name="e_wo_entrp">   -851.62740745 </i>
    <i name="e_0_energy">   -851.62740746 </i>
   </energy>
  </scstep>
  <scstep>
   <time name="dav">   72.40   72.87</time>
   <time name="total">   83.85   84.44</time>
   <energy>
    <i name="e_fr_energy">   -851.62759820 </i>
    <i name="e_wo_entrp">   -851.62759818 </i>
    <i name="e_0_energy">   -851.62759819 </i>
   </energy>
  </scstep>
  <scstep>
   <time name="dav">   72.67   73.21</time>
   <time name="total">   84.13   84.77</time>
   <energy>
    <i name="e_fr_energy">   -851.62757915 </i>
    <i name="e_wo_entrp">   -851.62757912 </i>
    <i name="e_0_energy">   -851.62757913 </i>
   </energy>
  </scstep>
  <scstep>
   <time name="dav">   75.28   75.73</time>
   <time name="total">   86.78   87.37</time>
   <energy>
    <i name="e_fr_energy">   -851.62761135 </i>
    <i name="e_wo_entrp">   -851.62761132 </i>
    <i name="e_0_energy">   -851.62761134 </i>
   </energy>
  </scstep>
  <scstep>
   <time name="dav">   77.46   77.93</time>
   <time name="total">   88.85   89.42</time>
   <energy>
    <i name="e_fr_energy">   -851.62763931 </i>
    <i name="e_wo_entrp">   -851.62763928 </i>
    <i name="e_0_energy">   -851.62763930 </i>
   </energy>
  </scstep>
  <scstep>
   <time name="dav">   70.33   70.77</time>
   <time name="total">   81.60   82.19</time>
   <energy>
    <i name="e_fr_energy">   -851.62763657 </i>
    <i name="e_wo_entrp">   -851.62763654 </i>
    <i name="e_0_energy">   -851.62763656 </i>
   </energy>
  </scstep>
  <scstep>
   <time name="dav">   71.81   72.22</time>
   <time name="total">   77.55   78.04</time>
   <energy>
    <i name="alphaZ">    186.33367753 </i>
    <i name="ewald">  37912.81730292 </i>
    <i name="hartreedc"> -50592.56519481 </i>
    <i name="XCdc">   1337.86272402 </i>
    <i name="pawpsdc">  38620.10877321 </i>
    <i name="pawaedc"> -38693.10220295 </i>
    <i name="eentropy">     -0.00000003 </i>
    <i name="bandstr">  -4423.66942517 </i>
    <i name="atom">  14800.58670786 </i>
    <i name="e_fr_energy">   -851.62763741 </i>
    <i name="e_wo_entrp">   -851.62763739 </i>
    <i name="e_0_energy">   -851.62763740 </i>
   </energy>
  </scstep>
  <structure>
   <crystal>
    <varray name="basis" >
     <v>      17.27103806       0.00000000       0.00000000 </v>
     <v>      -8.63551903      14.95715771       0.00000000 </v>
     <v>       0.00000000       0.00000000      15.00000000 </v>
    </varray>
    <i name="volume">   3874.88459904 </i>
    <varray name="rec_basis" >
     <v>       0.05790040       0.03342881       0.00000000 </v>
     <v>       0.00000000       0.06685762       0.00000000 </v>
     <v>       0.00000000       0.00000000       0.06666667 </v>
    </varray>
   </crystal>
   <varray name="positions" >
    <v>       0.99929504       0.99974337       0.49886435 </v>
    <v>       0.99874722       0.14225767       0.49718834 </v>
    <v>       0.99852295       0.28516369       0.49614349 </v>
    <v>       0.99882091       0.42832350       0.49603640 </v>
    <v>       0.99956930       0.57148922       0.49757491 </v>
    <v>       0.00067862       0.71475652       0.50000840 </v>
    <v>       0.00049628       0.85775740       0.50068868 </v>
    <v>       0.14266218       0.00036740       0.49623459 </v>
    <v>       0.14207168       0.14287527       0.49628491 </v>
    <v>       0.14081660       0.28479711       0.49718429 </v>
    <v>       0.14076085       0.42808389       0.49584561 </v>
    <v>       0.14193910       0.57119564       0.49453191 </v>
    <v>       0.14268131       0.71436849       0.49501527 </v>
    <v>       0.14285450       0.85747880       0.49570973 </v>
    <v>       0.28526576       0.99995900       0.49518272 </v>
    <v>       0.28516435       0.14269503       0.49789777 </v>
    <v>       0.28504848       0.28623962       0.50483852 </v>
    <v>       0.28139152       0.42778814       0.50836427 </v>
    <v>       0.28463336       0.57026249       0.49964240 </v>
    <v>       0.28501361       0.71449681       0.49507052 </v>
    <v>       0.28524078       0.85741119       0.49449499 </v>
    <v>       0.42820936       0.00004821       0.49595024 </v>
    <v>       0.42807026       0.14244254       0.49654642 </v>
    <v>       0.42679375       0.28217626       0.49652505 </v>
    <v>       0.42612776       0.71599859       0.49604878 </v>
    <v>       0.42789922       0.85735412       0.49623582 </v>
    <v>       0.57084124       0.00032840       0.49864245 </v>
    <v>       0.57092163       0.14276894       0.49804988 </v>
    <v>       0.57197646       0.28641381       0.49928917 </v>
    <v>       0.57168449       0.85798637       0.50172146 </v>
    <v>       0.71369984       0.99988088       0.50320049 </v>
    <v>       0.71373681       0.14281338       0.49948543 </v>
    <v>       0.71381398       0.28575666       0.50121764 </v>
    <v>       0.71354503       0.42795386       0.50943497 </v>
    <v>       0.71966749       0.57343804       0.53438588 </v>
    <v>       0.72300953       0.71807860       0.53914764 </v>
    <v>       0.71295963       0.85718827       0.51435234 </v>
    <v>       0.85647309       0.99984050       0.50452353 </v>
    <v>       0.85612034       0.14251336       0.49963839 </v>
    <v>       0.85617643       0.28539849       0.49876700 </v>
    <v>       0.85671077       0.42850161       0.50226280 </v>
    <v>       0.85776813       0.57196455       0.50814343 </v>
    <v>       0.85967203       0.71547403       0.51402377 </v>
    <v>       0.85735959       0.85705172       0.51041270 </v>
    <v>       0.04680397       0.09504213       0.49675437 </v>
    <v>       0.04571026       0.23717667       0.49603057 </v>
    <v>       0.04566643       0.38034445       0.49519662 </v>
    <v>       0.04688852       0.52368089       0.49542677 </v>
    <v>       0.04756287       0.66683198       0.49700607 </v>
    <v>       0.04779685       0.80989239       0.49849459 </v>
    <v>       0.04743301       0.95261699       0.49798966 </v>
    <v>       0.18996239       0.09521816       0.49683895 </v>
    <v>       0.18913215       0.23798966       0.49804942 </v>
    <v>       0.18690473       0.37960058       0.49881297 </v>
    <v>       0.18898227       0.52327457       0.49583120 </v>
    <v>       0.18983117       0.66673698       0.49465810 </v>
    <v>       0.19027535       0.80979630       0.49482126 </v>
    <v>       0.19030116       0.95258978       0.49552118 </v>
    <v>       0.33289799       0.09530272       0.49611136 </v>
    <v>       0.33378077       0.23803041       0.50046579 </v>
    <v>       0.32497497       0.37800739       0.51693692 </v>
    <v>       0.32833252       0.52167842       0.50906306 </v>
    <v>       0.33317834       0.66746156       0.49649891 </v>
    <v>       0.33280547       0.80961835       0.49480682 </v>
    <v>       0.33280742       0.95243578       0.49496814 </v>
    <v>       0.47578390       0.09498133       0.49680826 </v>
    <v>       0.47520954       0.23738492       0.49650684 </v>
    <v>       0.47496065       0.80932706       0.49739282 </v>
    <v>       0.47571909       0.95262282       0.49688807 </v>
    <v>       0.61839883       0.09527538       0.49872707 </v>
    <v>       0.61877390       0.23813253       0.49968980 </v>
    <v>       0.62065217       0.37993295       0.50406033 </v>
    <v>       0.62002928       0.81328276       0.50878405 </v>
    <v>       0.61862954       0.95289023       0.50131258 </v>
    <v>       0.76124402       0.09523447       0.50065006 </v>
    <v>       0.76127462       0.23786160       0.49968967 </v>
    <v>       0.76159332       0.38084659       0.50456882 </v>
    <v>       0.76253550       0.52505094       0.51750800 </v>
    <v>       0.76598593       0.66751304       0.53081594 </v>
    <v>       0.76182397       0.80906059       0.52197062 </v>
    <v>       0.76137475       0.95244119       0.50780124 </v>
    <v>       0.90360986       0.09460584       0.50010821 </v>
    <v>       0.90348645       0.23761419       0.49775134 </v>
    <v>       0.90374051       0.38081063       0.49873223 </v>
    <v>       0.90461705       0.52403461       0.50191789 </v>
    <v>       0.90579354       0.66707382       0.50692514 </v>
    <v>       0.90556903       0.81016141       0.50812971 </v>
    <v>       0.90417354       0.95199860       0.50388019 </v>
    <v>       0.46345193       0.35424292       0.49398598 </v>
    <v>       0.40040587       0.55550068       0.51735133 </v>
    <v>       0.64828003       0.53874006       0.54689893 </v>
    <v>       0.58538250       0.41726617       0.50206126 </v>
    <v>       0.58349233       0.74117916       0.50991973 </v>
    <v>       0.46222029       0.67956951       0.49492945 </v>
    <v>       0.56718594       0.58749447       0.47309989 </v>
    <v>       0.49002385       0.51221278       0.41984421 </v>
    <v>       0.41378170       0.42807702       0.53844813 </v>
    <v>       0.63427615       0.66956704       0.56475149 </v>
    <v>       0.55389814       0.54020240       0.43022414 </v>
   </varray>
  </structure>
  <varray name="forces" >
   <v>       0.00026158       0.00312997       0.00087952 </v>
   <v>      -0.00093784       0.00300966      -0.00094302 </v>
   <v>      -0.00149109       0.00129823      -0.00249682 </v>
   <v>      -0.00076794       0.00312252      -0.00104587 </v>
   <v>       0.00349203       0.00065618      -0.00084220 </v>
   <v>       0.00391760      -0.00208149       0.00130880 </v>
   <v>       0.00229718      -0.00113383       0.00327488 </v>
   <v>       0.00049043       0.00144782       0.00050664 </v>
   <v>      -0.00046981       0.00238522       0.00174732 </v>
   <v>      -0.00084904       0.00032003       0.00384224 </v>
   <v>      -0.00404487       0.00419463       0.00193845 </v>
   <v>      -0.00526024       0.00255038      -0.00042253 </v>
   <v>      -0.00043719      -0.00369016      -0.00046430 </v>
   <v>       0.00116983      -0.00186470      -0.00037594 </v>
   <v>      -0.00160290      -0.00042189      -0.00053973 </v>
   <v>      -0.00239617       0.00143347       0.00327322 </v>
   <v>      -0.00321641      -0.00034953       0.01095749 </v>
   <v>      -0.00181092      -0.00236842       0.01576093 </v>
   <v>      -0.00872806       0.00167377       0.00806179 </v>
   <v>      -0.01452708      -0.01131706       0.00192972 </v>
   <v>      -0.00410014      -0.00293104      -0.00071322 </v>
   <v>      -0.00188222      -0.00172099      -0.00105048 </v>
   <v>      -0.00445001      -0.00146822      -0.00038949 </v>
   <v>      -0.00460785       0.00134320       0.00393173 </v>
   <v>      -0.00721132       0.00013425       0.00273790 </v>
   <v>      -0.00439244       0.00062108       0.00094100 </v>
   <v>      -0.00088145       0.00068785       0.00048921 </v>
   <v>      -0.00037326      -0.00220320      -0.00021310 </v>
   <v>      -0.00040235      -0.00210227       0.00180141 </v>
   <v>      -0.00906461       0.00750318       0.00299611 </v>
   <v>      -0.00426789       0.00533056       0.00244781 </v>
   <v>       0.00276573       0.00151943      -0.00070646 </v>
   <v>       0.00797547      -0.00045419      -0.00072272 </v>
   <v>       0.00827130       0.00090055       0.00521410 </v>
   <v>       0.00449922       0.00027190       0.01090134 </v>
   <v>       0.00253692      -0.00296703       0.00583171 </v>
   <v>      -0.00276766       0.00344843       0.00547243 </v>
   <v>       0.00015360       0.00381605       0.00229181 </v>
   <v>      -0.00050743       0.00310801      -0.00163403 </v>
   <v>       0.00337113       0.00200951      -0.00224698 </v>
   <v>       0.00596696       0.00114353      -0.00024099 </v>
   <v>       0.00426421      -0.00013710       0.00400792 </v>
   <v>       0.00315482      -0.00160987       0.00685139 </v>
   <v>       0.00036210       0.00021765       0.00689124 </v>
   <v>       0.00076623      -0.00459811      -0.00022687 </v>
   <v>       0.00122809      -0.00084867      -0.00079214 </v>
   <v>       0.00316762      -0.00109906      -0.00143703 </v>
   <v>      -0.00022941      -0.00232794      -0.00120377 </v>
   <v>      -0.00326718       0.00142027       0.00006678 </v>
   <v>      -0.00348440       0.00352939       0.00067640 </v>
   <v>      -0.00082126       0.00003274       0.00145998 </v>
   <v>       0.00107769      -0.00114370       0.00145901 </v>
   <v>       0.00137120      -0.00033785       0.00563452 </v>
   <v>       0.00401859       0.00227331       0.00718650 </v>
   <v>       0.01138077      -0.00514915       0.00138754 </v>
   <v>       0.00759106       0.00651240      -0.00045821 </v>
   <v>       0.00134662       0.00586917      -0.00076264 </v>
   <v>      -0.00032679       0.00230539       0.00038422 </v>
   <v>       0.00248406       0.00240385      -0.00003562 </v>
   <v>       0.00261795       0.00144010       0.00636980 </v>
   <v>      -0.00101657       0.00292663       0.02117895 </v>
   <v>       0.00438691       0.00097178       0.01970405 </v>
   <v>       0.01010496       0.00406049       0.00426140 </v>
   <v>       0.00476632       0.00702378       0.00000482 </v>
   <v>       0.00212077       0.00214344      -0.00104663 </v>
   <v>       0.00494940       0.00480947      -0.00026178 </v>
   <v>       0.00496627       0.00289351       0.00176895 </v>
   <v>       0.00295313      -0.00161597       0.00252722 </v>
   <v>       0.00019863       0.00063028      -0.00061485 </v>
   <v>      -0.00229721       0.00179333      -0.00039088 </v>
   <v>      -0.00351992       0.00096243       0.00061385 </v>
   <v>      -0.00528534       0.00182982       0.00327789 </v>
   <v>       0.00351968      -0.00539418       0.00684530 </v>
   <v>       0.00260483      -0.00331766       0.00251623 </v>
   <v>       0.00044747      -0.00353792      -0.00076575 </v>
   <v>      -0.00805396      -0.00077811      -0.00194741 </v>
   <v>      -0.00909765       0.00050709       0.00156500 </v>
   <v>      -0.00321260      -0.00166834       0.00444495 </v>
   <v>      -0.00087835       0.00032957       0.00607799 </v>
   <v>      -0.00275070       0.00147925       0.00861295 </v>
   <v>       0.00176033      -0.00539366       0.00482793 </v>
   <v>       0.00123964      -0.00391821      -0.00051692 </v>
   <v>       0.00093315      -0.00133593      -0.00280596 </v>
   <v>      -0.00206168       0.00009493      -0.00154519 </v>
   <v>      -0.00398788      -0.00078185       0.00115785 </v>
   <v>      -0.00405836       0.00093093       0.00370310 </v>
   <v>      -0.00251279       0.00122051       0.00734783 </v>
   <v>      -0.00100048      -0.00251156       0.00395514 </v>
   <v>      -0.00076407       0.00124391       0.00392843 </v>
   <v>      -0.00269831       0.00078720       0.02901518 </v>
   <v>       0.00278375      -0.00131802       0.01593600 </v>
   <v>       0.00242254      -0.00010857       0.00465702 </v>
   <v>      -0.00165319       0.00276922       0.01202312 </v>
   <v>       0.00121269       0.00023967       0.00071022 </v>
   <v>       0.00001022      -0.02598607       0.02498045 </v>
   <v>       0.00199835      -0.00502861      -0.01895858 </v>
   <v>      -0.00401882       0.00190701       0.02969926 </v>
   <v>       0.00197033      -0.00340311      -0.00368918 </v>
   <v>       0.01109577      -0.00419472      -0.31374663 </v>
  </varray>
  <varray name="stress" >
   <v>       5.78351758       0.63632749       0.01215835 </v>
   <v>       0.63632406       2.88226473       0.02912815 </v>
   <v>       0.01215850       0.02912767      -0.15208215 </v>
  </varray>
  <energy>
   <i name="e_fr_energy">   -859.53552973 </i>
   <i name="e_wo_entrp">   -859.53552971 </i>
   <i name="e_0_energy">   -859.53552972 </i>
  </energy>
  <time name="totalsc"> 1687.39 1699.04</time>
 </calculation>
 <calculation>
  <scstep>
   <time name="dav">   67.04   67.52</time>
   <time name="total">   78.54   79.10</time>
   <energy>
    <i name="alphaZ">    186.33367753 </i>
    <i name="ewald">  37912.74524270 </i>
    <i name="hartreedc"> -50592.48657290 </i>
    <i name="XCdc">   1337.86238473 </i>
    <i name="pawpsdc">  38619.84105115 </i>
    <i name="pawaedc"> -38692.83413839 </i>
    <i name="eentropy">     -0.00000003 </i>
    <i name="bandstr">  -4423.67604317 </i>
    <i name="atom">  14800.58670786 </i>
    <i name="e_fr_energy">   -851.62769051 </i>
    <i name="e_wo_entrp">   -851.62769048 </i>
    <i name="e_0_energy">   -851.62769050 </i>
   </energy>
  </scstep>
  <scstep>
   <time name="dav">   73.18   73.63</time>
   <time name="total">   84.19   84.77</time>
   <energy>
    <i name="e_fr_energy">   -851.62769282 </i>
    <i name="e_wo_entrp">   -851.62769279 </i>
    <i name="e_0_energy">   -851.62769281 </i>
   </energy>
  </scstep>
  <scstep>
   <time name="dav">   48.76   49.06</time>
   <time name="total">   53.75   54.10</time>
   <energy>
    <i name="alphaZ">    186.33367753 </i>
    <i name="ewald">  37912.74524270 </i>
    <i name="hartreedc"> -50592.47802677 </i>
    <i name="XCdc">   1337.86229937 </i>
    <i name="pawpsdc">  38619.73893743 </i>
    <i name="pawaedc"> -38692.73193659 </i>
    <i name="eentropy">     -0.00000003 </i>
    <i name="bandstr">  -4423.68459377 </i>
    <i name="atom">  14800.58670786 </i>
    <i name="e_fr_energy">   -851.62769226 </i>
    <i name="e_wo_entrp">   -851.62769223 </i>
    <i name="e_0_energy">   -851.62769224 </i>
   </energy>
  </scstep>
  <structure>
   <crystal>
    <varray name="basis" >
     <v>      17.27103806       0.00000000       0.00000000 </v>
     <v>      -8.63551903      14.95715771       0.00000000 </v>
     <v>       0.00000000       0.00000000      15.00000000 </v>
    </varray>
    <i name="volume">   3874.88459904 </i>
    <varray name="rec_basis" >
     <v>       0.05790040       0.03342881       0.00000000 </v>
     <v>       0.00000000       0.06685762       0.00000000 </v>
     <v>       0.00000000       0.00000000       0.06666667 </v>
    </varray>
   </crystal>
   <varray name="positions" >
    <v>       0.99929618       0.99974526       0.49886483 </v>
    <v>       0.99874761       0.14225948       0.49718808 </v>
    <v>       0.99852240       0.28516433       0.49614248 </v>
    <v>       0.99882135       0.42832535       0.49603651 </v>
    <v>       0.99957134       0.57148942       0.49757480 </v>
    <v>       0.00067999       0.71475488       0.50000924 </v>
    <v>       0.00049713       0.85775640       0.50069066 </v>
    <v>       0.14266284       0.00036810       0.49623403 </v>
    <v>       0.14207210       0.14287661       0.49628522 </v>
    <v>       0.14081611       0.28479709       0.49718560 </v>
    <v>       0.14075973       0.42808645       0.49584612 </v>
    <v>       0.14193672       0.57119709       0.49453144 </v>
    <v>       0.14267966       0.71436575       0.49501459 </v>
    <v>       0.14285443       0.85747727       0.49570886 </v>
    <v>       0.28526459       0.99995841       0.49518169 </v>
    <v>       0.28516334       0.14269569       0.49789818 </v>
    <v>       0.28504640       0.28623911       0.50484104 </v>
    <v>       0.28138958       0.42778635       0.50836818 </v>
    <v>       0.28462865       0.57026334       0.49964457 </v>
    <v>       0.28500129       0.71448895       0.49507089 </v>
    <v>       0.28523733       0.85740893       0.49449402 </v>
    <v>       0.42820761       0.00004671       0.49594944 </v>
    <v>       0.42806709       0.14244120       0.49654600 </v>
    <v>       0.42679142       0.28217672       0.49652722 </v>
    <v>       0.42612355       0.71599830       0.49604972 </v>
    <v>       0.42789683       0.85735417       0.49623618 </v>
    <v>       0.57084087       0.00032848       0.49864326 </v>
    <v>       0.57092057       0.14276713       0.49805039 </v>
    <v>       0.57197537       0.28641209       0.49929165 </v>
    <v>       0.57168172       0.85799090       0.50172417 </v>
    <v>       0.71369905       0.99988415       0.50320317 </v>
    <v>       0.71373881       0.14281412       0.49948590 </v>
    <v>       0.71381832       0.28575612       0.50121834 </v>
    <v>       0.71354997       0.42795431       0.50944018 </v>
    <v>       0.71967046       0.57343833       0.53439626 </v>
    <v>       0.72301089       0.71807728       0.53915613 </v>
    <v>       0.71295925       0.85719043       0.51435784 </v>
    <v>       0.85647442       0.99984287       0.50452592 </v>
    <v>       0.85612099       0.14251521       0.49963832 </v>
    <v>       0.85617892       0.28539960       0.49876663 </v>
    <v>       0.85671444       0.42850215       0.50226376 </v>
    <v>       0.85777038       0.57196427       0.50814719 </v>
    <v>       0.85967323       0.71547283       0.51402945 </v>
    <v>       0.85735992       0.85705174       0.51041803 </v>
    <v>       0.04680280       0.09503884       0.49675413 </v>
    <v>       0.04571059       0.23717589       0.49603018 </v>
    <v>       0.04566774       0.38034348       0.49519613 </v>
    <v>       0.04688743       0.52367909       0.49542644 </v>
    <v>       0.04756127       0.66683267       0.49700609 </v>
    <v>       0.04779588       0.80989449       0.49849467 </v>
    <v>       0.04743245       0.95261676       0.49799018 </v>
    <v>       0.18996252       0.09521712       0.49683857 </v>
    <v>       0.18913270       0.23798917       0.49805133 </v>
    <v>       0.18690766       0.37960187       0.49881545 </v>
    <v>       0.18898695       0.52327087       0.49583102 </v>
    <v>       0.18983760       0.66674107       0.49465725 </v>
    <v>       0.19027798       0.80979994       0.49482020 </v>
    <v>       0.19030163       0.95259104       0.49552062 </v>
    <v>       0.33290014       0.09530402       0.49611055 </v>
    <v>       0.33378268       0.23803108       0.50046730 </v>
    <v>       0.32497528       0.37800913       0.51694129 </v>
    <v>       0.32833528       0.52167885       0.50906896 </v>
    <v>       0.33318544       0.66746400       0.49650005 </v>
    <v>       0.33281051       0.80962274       0.49480629 </v>
    <v>       0.33280927       0.95243690       0.49496703 </v>
    <v>       0.47578828       0.09498420       0.49680823 </v>
    <v>       0.47521326       0.23738647       0.49650849 </v>
    <v>       0.47496177       0.80932558       0.49739439 </v>
    <v>       0.47571933       0.95262287       0.49688771 </v>
    <v>       0.61839799       0.09527623       0.49872751 </v>
    <v>       0.61877205       0.23813287       0.49969128 </v>
    <v>       0.62064957       0.37993387       0.50406425 </v>
    <v>       0.62002956       0.81327869       0.50878995 </v>
    <v>       0.61862984       0.95288758       0.50131504 </v>
    <v>       0.76124298       0.09523182       0.50065057 </v>
    <v>       0.76126957       0.23786083       0.49968945 </v>
    <v>       0.76158806       0.38084673       0.50457122 </v>
    <v>       0.76253297       0.52504973       0.51751293 </v>
    <v>       0.76598580       0.66751344       0.53082295 </v>
    <v>       0.76182320       0.80906170       0.52197868 </v>
    <v>       0.76137393       0.95243737       0.50780574 </v>
    <v>       0.90360921       0.09460302       0.50010867 </v>
    <v>       0.90348642       0.23761306       0.49775051 </v>
    <v>       0.90373918       0.38081047       0.49873226 </v>
    <v>       0.90461428       0.52403387       0.50191951 </v>
    <v>       0.90579132       0.66707425       0.50692823 </v>
    <v>       0.90556796       0.81016206       0.50813509 </v>
    <v>       0.90417210       0.95199676       0.50388318 </v>
    <v>       0.46345188       0.35424327       0.49398921 </v>
    <v>       0.40040451       0.55550111       0.51735987 </v>
    <v>       0.64828170       0.53873936       0.54691388 </v>
    <v>       0.58538363       0.41726572       0.50206646 </v>
    <v>       0.58349270       0.74118048       0.50992852 </v>
    <v>       0.46222106       0.67956932       0.49492905 </v>
    <v>       0.56717307       0.58747624       0.47313041 </v>
    <v>       0.49003006       0.51221646       0.41983571 </v>
    <v>       0.41378049       0.42807826       0.53844982 </v>
    <v>       0.63427922       0.66956744       0.56475843 </v>
    <v>       0.55390399       0.54021376       0.43022414 </v>
   </varray>
  </structure>
  <varray name="forces" >
   <v>      -0.00044791      -0.00042618       0.00095423 </v>
   <v>       0.00009551      -0.00021304      -0.00108252 </v>
   <v>       0.00037148       0.00005472      -0.00264674 </v>
   <v>       0.00024186      -0.00010149      -0.00131490 </v>
   <v>      -0.00030910      -0.00016584      -0.00077834 </v>
   <v>      -0.00069060       0.00038556       0.00140217 </v>
   <v>      -0.00074833       0.00031389       0.00332576 </v>
   <v>      -0.00028042       0.00033764       0.00035442 </v>
   <v>      -0.00008924      -0.00002884       0.00159664 </v>
   <v>       0.00020610       0.00077739       0.00382378 </v>
   <v>       0.00111655       0.00032411       0.00193510 </v>
   <v>       0.00086411      -0.00003748      -0.00066805 </v>
   <v>      -0.00018786       0.00093207      -0.00071466 </v>
   <v>      -0.00047580       0.00097226      -0.00054411 </v>
   <v>      -0.00004499       0.00083111      -0.00074531 </v>
   <v>       0.00064202       0.00111350       0.00162273 </v>
   <v>      -0.00091917       0.00124905       0.01135343 </v>
   <v>       0.00032355       0.00045893       0.01636030 </v>
   <v>       0.00106282       0.00087459       0.00856435 </v>
   <v>       0.00421499       0.00541827       0.00103893 </v>
   <v>       0.00008561       0.00094764      -0.00096674 </v>
   <v>       0.00001583       0.00086131      -0.00120847 </v>
   <v>      -0.00009819       0.00103428      -0.00043439 </v>
   <v>      -0.00015965       0.00159541       0.00387767 </v>
   <v>       0.00069966       0.00058554       0.00261920 </v>
   <v>      -0.00027841       0.00051365       0.00082717 </v>
   <v>      -0.00030509       0.00043033       0.00037578 </v>
   <v>      -0.00031876       0.00078478      -0.00029189 </v>
   <v>      -0.00048831       0.00045533       0.00191494 </v>
   <v>       0.00189618      -0.00102437       0.00421567 </v>
   <v>       0.00115922      -0.00118413       0.00243089 </v>
   <v>      -0.00026282       0.00005315      -0.00094344 </v>
   <v>      -0.00079506       0.00147358       0.00035670 </v>
   <v>       0.00004725      -0.00010313       0.00516921 </v>
   <v>       0.00190247       0.00002897       0.01011683 </v>
   <v>       0.00142948      -0.00012115       0.00560950 </v>
   <v>      -0.00160436      -0.00018064       0.00616845 </v>
   <v>      -0.00008684      -0.00078656       0.00257484 </v>
   <v>       0.00034310      -0.00051269      -0.00173632 </v>
   <v>      -0.00018382      -0.00004432      -0.00240252 </v>
   <v>      -0.00053152      -0.00017759      -0.00002112 </v>
   <v>      -0.00020578      -0.00016124       0.00419941 </v>
   <v>       0.00044411       0.00037427       0.00707243 </v>
   <v>      -0.00093955       0.00002516       0.00729824 </v>
   <v>      -0.00045820       0.00148513       0.00043589 </v>
   <v>      -0.00014576       0.00045751      -0.00094732 </v>
   <v>      -0.00019161       0.00076370      -0.00156396 </v>
   <v>       0.00015676       0.00021951      -0.00136997 </v>
   <v>       0.00024288      -0.00044618      -0.00021336 </v>
   <v>       0.00109273      -0.00085681       0.00205575 </v>
   <v>       0.00010668       0.00032695       0.00133093 </v>
   <v>       0.00005826       0.00046656       0.00137600 </v>
   <v>      -0.00046002      -0.00014130       0.00549473 </v>
   <v>      -0.00068856       0.00065220       0.00677723 </v>
   <v>      -0.00332630       0.00243199       0.00263972 </v>
   <v>      -0.00061409       0.00021487      -0.00055502 </v>
   <v>      -0.00044789      -0.00007877      -0.00094472 </v>
   <v>      -0.00029223       0.00048387       0.00012099 </v>
   <v>      -0.00070763       0.00082589      -0.00016734 </v>
   <v>      -0.00096344       0.00063559       0.00647393 </v>
   <v>      -0.00142914      -0.00015372       0.02071503 </v>
   <v>      -0.00125525       0.00092200       0.01926448 </v>
   <v>      -0.00182760       0.00007123       0.00414611 </v>
   <v>      -0.00141909      -0.00012716      -0.00012568 </v>
   <v>      -0.00055176       0.00027162      -0.00129236 </v>
   <v>      -0.00246443      -0.00064416       0.00060030 </v>
   <v>      -0.00211020       0.00085178       0.00060313 </v>
   <v>      -0.00139765       0.00132207       0.00240474 </v>
   <v>      -0.00062492       0.00048441      -0.00069965 </v>
   <v>       0.00012060       0.00052151      -0.00045146 </v>
   <v>       0.00038603       0.00009975       0.00052983 </v>
   <v>       0.00305174      -0.00005596       0.00288481 </v>
   <v>      -0.00174656       0.00073067       0.00668376 </v>
   <v>      -0.00083446       0.00111479       0.00232034 </v>
   <v>      -0.00042487       0.00141422       0.00054977 </v>
   <v>       0.00168767      -0.00021007      -0.00129986 </v>
   <v>       0.00010822       0.00033663       0.00131527 </v>
   <v>       0.00144984      -0.00077778       0.00467816 </v>
   <v>       0.00119690      -0.00023338       0.00659252 </v>
   <v>      -0.00143416       0.00003019       0.00897703 </v>
   <v>      -0.00075774       0.00062159       0.00443049 </v>
   <v>       0.00002132       0.00040258      -0.00074729 </v>
   <v>       0.00018156       0.00039840      -0.00301317 </v>
   <v>       0.00061458       0.00038297      -0.00177442 </v>
   <v>       0.00086962       0.00009598       0.00085015 </v>
   <v>       0.00046214      -0.00019809       0.00357308 </v>
   <v>      -0.00003515      -0.00006012       0.00727143 </v>
   <v>      -0.00010925      -0.00010105       0.00380921 </v>
   <v>      -0.00114919       0.00131770       0.00376993 </v>
   <v>      -0.00106004       0.00151668       0.02907750 </v>
   <v>       0.00344514      -0.00106689       0.01575983 </v>
   <v>       0.00024839       0.00105781       0.00441738 </v>
   <v>      -0.00151009      -0.00006863       0.01193689 </v>
   <v>      -0.00076453       0.00090244       0.00058305 </v>
   <v>      -0.00034094      -0.02555810       0.02499804 </v>
   <v>       0.00167988      -0.00518801      -0.01908114 </v>
   <v>      -0.00272816       0.00283698       0.03011042 </v>
   <v>      -0.00011395      -0.00499141      -0.00234365 </v>
   <v>       0.01049365      -0.00364794      -0.31362668 </v>
  </varray>
  <varray name="stress" >
   <v>       5.78644151       0.63746900       0.01189241 </v>
   <v>       0.63746557       2.88238453       0.02964439 </v>
   <v>       0.01189256       0.02964390      -0.14974673 </v>
  </varray>
  <energy>
   <i name="e_fr_energy">   -859.53557795 </i>
   <i name="e_wo_entrp">   -859.53557792 </i>
   <i name="e_0_energy">   -859.53557793 </i>
  </energy>
  <time name="totalsc">  459.67  462.70</time>
 </calculation>
 <calculation>
  <scstep>
   <time name="dav">   68.09   68.55</time>
   <time name="total">   79.37   79.91</time>
   <energy>
    <i name="alphaZ">    186.33367753 </i>
    <i name="ewald">  37912.58260312 </i>
    <i name="hartreedc"> -50592.30795969 </i>
    <i name="XCdc">   1337.86186684 </i>
    <i name="pawpsdc">  38619.56435286 </i>
[...]
       <r>   -17.7275     5.0093    31.3776 </r>
       <r>   -17.6083     3.4955    31.7943 </r>
       <r>   -17.4891    12.8254    33.3234 </r>
       <r>   -17.3698    14.9993    35.1117 </r>
       <r>   -17.2506     9.8199    36.2824 </r>
       <r>   -17.1314     8.0406    37.2411 </r>
       <r>   -17.0122     4.5823    37.7874 </r>
       <r>   -16.8930     8.4429    38.7940 </r>
       <r>   -16.7737     8.5639    39.8150 </r>
       <r>   -16.6545     4.8238    40.3901 </r>
       <r>   -16.5353     5.1439    41.0034 </r>
       <r>   -16.4161     8.2522    41.9873 </r>
       <r>   -16.2968    15.8723    43.8797 </r>
       <r>   -16.1776     7.6101    44.7870 </r>
       <r>   -16.0584     2.1468    45.0429 </r>
       <r>   -15.9392     5.3555    45.6814 </r>
       <r>   -15.8199     0.6224    45.7556 </r>
       <r>   -15.7007     3.0398    46.1180 </r>
       <r>   -15.5815     1.2426    46.2662 </r>
       <r>   -15.4623     6.7164    47.0669 </r>
       <r>   -15.3430     6.5728    47.8506 </r>
       <r>   -15.2238    10.0929    49.0539 </r>
       <r>   -15.1046     5.5337    49.7136 </r>
       <r>   -14.9854    11.6592    51.1037 </r>
       <r>   -14.8661    13.6718    52.7337 </r>
       <r>   -14.7469     2.6507    53.0497 </r>
       <r>   -14.6277     5.8774    53.7505 </r>
       <r>   -14.5085    13.4319    55.3519 </r>
       <r>   -14.3892     8.3378    56.3460 </r>
       <r>   -14.2700    10.0640    57.5458 </r>
       <r>   -14.1508    11.5786    58.9263 </r>
       <r>   -14.0316     6.9944    59.7602 </r>
       <r>   -13.9123     6.8853    60.5811 </r>
       <r>   -13.7931     3.3717    60.9831 </r>
       <r>   -13.6739     6.2012    61.7224 </r>
       <r>   -13.5547     8.7674    62.7677 </r>
       <r>   -13.4355     8.6446    63.7983 </r>
       <r>   -13.3162     7.6775    64.7137 </r>
       <r>   -13.1970     7.7851    65.6419 </r>
       <r>   -13.0778     5.4692    66.2939 </r>
       <r>   -12.9586     2.5182    66.5941 </r>
       <r>   -12.8393    10.0236    67.7892 </r>
       <r>   -12.7201     7.2051    68.6482 </r>
       <r>   -12.6009    10.4946    69.8994 </r>
       <r>   -12.4817     9.9312    71.0835 </r>
       <r>   -12.3624    12.7982    72.6093 </r>
       <r>   -12.2432     9.8768    73.7869 </r>
       <r>   -12.1240     7.8432    74.7220 </r>
       <r>   -12.0048     4.8044    75.2948 </r>
       <r>   -11.8855     6.3651    76.0536 </r>
       <r>   -11.7663     9.9910    77.2448 </r>
       <r>   -11.6471     8.1936    78.2217 </r>
       <r>   -11.5279    12.1622    79.6717 </r>
       <r>   -11.4086    14.1203    81.3552 </r>
       <r>   -11.2894     9.3501    82.4700 </r>
       <r>   -11.1702    13.9508    84.1332 </r>
       <r>   -11.0510    10.4302    85.3768 </r>
       <r>   -10.9317    10.4584    86.6237 </r>
       <r>   -10.8125    16.5598    88.5980 </r>
       <r>   -10.6933     3.7433    89.0443 </r>
       <r>   -10.5741     4.4218    89.5715 </r>
       <r>   -10.4548     7.1181    90.4201 </r>
       <r>   -10.3356     8.0183    91.3761 </r>
       <r>   -10.2164    15.7079    93.2489 </r>
       <r>   -10.0972    18.7098    95.4795 </r>
       <r>    -9.9779    19.8359    97.8444 </r>
       <r>    -9.8587    16.5153    99.8135 </r>
       <r>    -9.7395    19.9366   102.1904 </r>
       <r>    -9.6203    14.8125   103.9564 </r>
       <r>    -9.5011     9.1399   105.0461 </r>
       <r>    -9.3818    23.8230   107.8864 </r>
       <r>    -9.2626    11.5120   109.2589 </r>
       <r>    -9.1434    22.4783   111.9388 </r>
       <r>    -9.0242    21.2202   114.4688 </r>
       <r>    -8.9049    23.7125   117.2959 </r>
       <r>    -8.7857    28.1046   120.6466 </r>
       <r>    -8.6665    24.8464   123.6089 </r>
       <r>    -8.5473    18.6299   125.8301 </r>
       <r>    -8.4280    18.0003   127.9761 </r>
       <r>    -8.3088    17.6457   130.0799 </r>
       <r>    -8.1896    21.2379   132.6120 </r>
       <r>    -8.0704    19.8183   134.9748 </r>
       <r>    -7.9511    20.4214   137.4096 </r>
       <r>    -7.8319    16.4393   139.3695 </r>
       <r>    -7.7127    17.6937   141.4790 </r>
       <r>    -7.5935    15.5346   143.3311 </r>
       <r>    -7.4742    10.4983   144.5828 </r>
       <r>    -7.3550    11.6102   145.9670 </r>
       <r>    -7.2358    21.9706   148.5864 </r>
       <r>    -7.1166    22.8636   151.3123 </r>
       <r>    -6.9973    18.5678   153.5261 </r>
       <r>    -6.8781    13.2354   155.1040 </r>
       <r>    -6.7589    10.1177   156.3103 </r>
       <r>    -6.6397    10.5313   157.5659 </r>
       <r>    -6.5204    14.1636   159.2546 </r>
       <r>    -6.4012     9.4594   160.3823 </r>
       <r>    -6.2820    13.2347   161.9602 </r>
       <r>    -6.1628    15.6117   163.8215 </r>
       <r>    -6.0436    18.6394   166.0438 </r>
       <r>    -5.9243     8.7937   167.0922 </r>
       <r>    -5.8051    17.4340   169.1708 </r>
       <r>    -5.6859    13.5338   170.7843 </r>
       <r>    -5.5667    11.3001   172.1316 </r>
       <r>    -5.4474     9.8346   173.3041 </r>
       <r>    -5.3282    10.8471   174.5973 </r>
       <r>    -5.2090     2.5852   174.9056 </r>
       <r>    -5.0898     3.8432   175.3638 </r>
       <r>    -4.9705    21.2033   177.8917 </r>
       <r>    -4.8513    19.2094   180.1819 </r>
       <r>    -4.7321    10.6166   181.4477 </r>
       <r>    -4.6129     5.2300   182.0712 </r>
       <r>    -4.4936     9.1755   183.1652 </r>
       <r>    -4.3744     0.8286   183.2640 </r>
       <r>    -4.2552     4.8388   183.8409 </r>
       <r>    -4.1360     7.1550   184.6939 </r>
       <r>    -4.0167     7.8194   185.6262 </r>
       <r>    -3.8975     6.4401   186.3940 </r>
       <r>    -3.7783     7.6172   187.3022 </r>
       <r>    -3.6591     5.7183   187.9839 </r>
       <r>    -3.5398     0.1348   188.0000 </r>
       <r>    -3.4206     0.0878   188.0105 </r>
       <r>    -3.3014     2.6818   188.3302 </r>
       <r>    -3.1822     6.5896   189.1158 </r>
       <r>    -3.0629     1.1788   189.2564 </r>
       <r>    -2.9437     1.8816   189.4807 </r>
       <r>    -2.8245     0.1618   189.5000 </r>
       <r>    -2.7053     0.0367   189.5044 </r>
       <r>    -2.5860     3.3053   189.8984 </r>
       <r>    -2.4668     0.8517   190.0000 </r>
       <r>    -2.3476     0.0024   190.0003 </r>
       <r>    -2.2284     1.7763   190.2120 </r>
       <r>    -2.1092     2.4061   190.4989 </r>
       <r>    -1.9899     0.0091   190.5000 </r>
       <r>    -1.8707     0.0419   190.5050 </r>
       <r>    -1.7515     2.2421   190.7723 </r>
       <r>    -1.6323     2.3989   191.0583 </r>
       <r>    -1.5130     7.2592   191.9238 </r>
       <r>    -1.3938     0.6392   192.0000 </r>
       <r>    -1.2746     0.5415   192.0646 </r>
       <r>    -1.1554     5.7809   192.7538 </r>
       <r>    -1.0361     6.0510   193.4752 </r>
       <r>    -0.9169     4.5435   194.0169 </r>
       <r>    -0.7977    15.2625   195.8366 </r>
       <r>    -0.6785     9.4128   196.9588 </r>
       <r>    -0.5592     5.8239   197.6531 </r>
       <r>    -0.4400    13.0114   199.2044 </r>
       <r>    -0.3208     6.9236   200.0299 </r>
       <r>    -0.2016     4.1264   200.5218 </r>
       <r>    -0.0823     7.2540   201.3867 </r>
       <r>     0.0369     8.1677   202.3605 </r>
       <r>     0.1561    10.9748   203.6689 </r>
       <r>     0.2753    12.6920   205.1821 </r>
       <r>     0.3946     5.5963   205.8493 </r>
       <r>     0.5138     1.2828   206.0023 </r>
       <r>     0.6330     3.8970   206.4669 </r>
       <r>     0.7522    10.0271   207.6624 </r>
       <r>     0.8715    13.9936   209.3308 </r>
       <r>     0.9907     5.3132   209.9642 </r>
       <r>     1.1099     9.6078   211.1097 </r>
       <r>     1.2291     7.6990   212.0276 </r>
       <r>     1.3483     7.2658   212.8939 </r>
       <r>     1.4676    11.5869   214.2753 </r>
       <r>     1.5868    19.8524   216.6422 </r>
       <r>     1.7060    13.1228   218.2067 </r>
       <r>     1.8252    13.1198   219.7709 </r>
       <r>     1.9445     9.2986   220.8796 </r>
       <r>     2.0637    18.6909   223.1080 </r>
       <r>     2.1829    17.1941   225.1579 </r>
       <r>     2.3021    19.5341   227.4868 </r>
       <r>     2.4214    19.9465   229.8649 </r>
       <r>     2.5406    20.6993   232.3328 </r>
       <r>     2.6598     7.5170   233.2290 </r>
       <r>     2.7790    15.6723   235.0975 </r>
       <r>     2.8983    27.9949   238.4352 </r>
       <r>     3.0175    13.0725   239.9938 </r>
       <r>     3.1367     0.0523   240.0000 </r>
       <r>     3.2559     0.0000   240.0000 </r>
       <r>     3.3752     0.0000   240.0000 </r>
       <r>     3.4944     0.0000   240.0000 </r>
       <r>     3.6136     0.0000   240.0000 </r>
       <r>     3.7328     0.0000   240.0000 </r>
       <r>     3.8521     0.0000   240.0000 </r>
       <r>     3.9713     0.0000   240.0000 </r>
       <r>     4.0905     0.0000   240.0000 </r>
       <r>     4.2097     0.0000   240.0000 </r>
       <r>     4.3290     0.0000   240.0000 </r>
       <r>     4.4482     0.0000   240.0000 </r>
       <r>     4.5674     0.0000   240.0000 </r>
      </set>
     </set>
    </array>
   </total>
  </dos>
 </calculation>
 <structure name="finalpos" >
  <crystal>
   <varray name="basis" >
    <v>      17.27103806       0.00000000       0.00000000 </v>
    <v>      -8.63551903      14.95715771       0.00000000 </v>
    <v>       0.00000000       0.00000000      15.00000000 </v>
   </varray>
   <i name="volume">   3874.88459904 </i>
   <varray name="rec_basis" >
    <v>       0.05790040       0.03342881       0.00000000 </v>
    <v>       0.00000000       0.06685762       0.00000000 </v>
    <v>       0.00000000       0.00000000       0.06666667 </v>
   </varray>
  </crystal>
  <varray name="positions" >
   <v>       0.99920512       0.99962478       0.50020986 </v>
   <v>       0.99868541       0.14215101       0.49770561 </v>
   <v>       0.99847127       0.28506566       0.49614009 </v>
   <v>       0.99874915       0.42825244       0.49604545 </v>
   <v>       0.99942370       0.57140397       0.49800319 </v>
   <v>       0.00052316       0.71464643       0.50111281 </v>
   <v>       0.00038653       0.85763665       0.50225388 </v>
   <v>       0.14259003       0.00028849       0.49647006 </v>
   <v>       0.14204637       0.14282158       0.49693634 </v>
   <v>       0.14079305       0.28473704       0.49771131 </v>
   <v>       0.14070069       0.42802479       0.49602699 </v>
   <v>       0.14182822       0.57113884       0.49438515 </v>
   <v>       0.14254764       0.71428780       0.49458210 </v>
   <v>       0.14273657       0.85739052       0.49544174 </v>
   <v>       0.28523222       0.99988853       0.49452702 </v>
   <v>       0.28514881       0.14264296       0.49819010 </v>
   <v>       0.28508147       0.28625839       0.50559233 </v>
   <v>       0.28133919       0.42778435       0.50914772 </v>
   <v>       0.28450288       0.57021905       0.50024843 </v>
   <v>       0.28492822       0.71444025       0.49496515 </v>
   <v>       0.28517133       0.85732905       0.49359987 </v>
   <v>       0.42819568      -0.00004393       0.49559590 </v>
   <v>       0.42807829       0.14234562       0.49702565 </v>
   <v>       0.42680855       0.28204468       0.49832973 </v>
   <v>       0.42604447       0.71584609       0.49679859 </v>
   <v>       0.42787580       0.85725388       0.49636298 </v>
   <v>       0.57082965       0.00017641       0.49914344 </v>
   <v>       0.57093090       0.14268501       0.49884867 </v>
   <v>       0.57198014       0.28633699       0.50185928 </v>
   <v>       0.57161620       0.85771972       0.50354993 </v>
   <v>       0.71363742       0.99971054       0.50440121 </v>
   <v>       0.71372012       0.14270411       0.50004830 </v>
   <v>       0.71381215       0.28569809       0.50281631 </v>
   <v>       0.71357635       0.42789880       0.51330211 </v>
   <v>       0.72013369       0.57350234       0.54033389 </v>
   <v>       0.72331771       0.71824540       0.54482299 </v>
   <v>       0.71287594       0.85704996       0.51772387 </v>
   <v>       0.85638318       0.99971535       0.50609002 </v>
   <v>       0.85606250       0.14238715       0.50003918 </v>
   <v>       0.85614505       0.28531601       0.49917445 </v>
   <v>       0.85665161       0.42840462       0.50380491 </v>
   <v>       0.85774674       0.57190482       0.51086361 </v>
   <v>       0.85965621       0.71542814       0.51753233 </v>
   <v>       0.85730670       0.85696882       0.51353800 </v>
   <v>       0.04675678       0.09494703       0.49752984 </v>
   <v>       0.04567016       0.23708178       0.49624859 </v>
   <v>       0.04560631       0.38026002       0.49512161 </v>
   <v>       0.04676861       0.52360897       0.49538996 </v>
   <v>       0.04740695       0.66674624       0.49724952 </v>
   <v>       0.04767536       0.80979019       0.49925434 </v>
   <v>       0.04734999       0.95249706       0.49900320 </v>
   <v>       0.18993548       0.09515638       0.49716746 </v>
   <v>       0.18913136       0.23794636       0.49885114 </v>
   <v>       0.18685993       0.37955410       0.49939829 </v>
   <v>       0.18888624       0.52321457       0.49596130 </v>
   <v>       0.18973856       0.66668375       0.49438096 </v>
   <v>       0.19017696       0.80972314       0.49408517 </v>
   <v>       0.19023343       0.95252148       0.49515609 </v>
   <v>       0.33289049       0.09524506       0.49603842 </v>
   <v>       0.33377156       0.23799356       0.50133679 </v>
   <v>       0.32504300       0.37809602       0.51719536 </v>
   <v>       0.32819530       0.52167016       0.51007647 </v>
   <v>       0.33309824       0.66740868       0.49695304 </v>
   <v>       0.33277381       0.80956035       0.49439295 </v>
   <v>       0.33278141       0.95235725       0.49413281 </v>
   <v>       0.47579611       0.09489471       0.49704773 </v>
   <v>       0.47521875       0.23727277       0.49819640 </v>
   <v>       0.47491464       0.80917736       0.49838066 </v>
   <v>       0.47570350       0.95252247       0.49692534 </v>
   <v>       0.61838879       0.09515723       0.49929895 </v>
   <v>       0.61877858       0.23806176       0.50137482 </v>
   <v>       0.62066340       0.37981479       0.50801200 </v>
   <v>       0.61990795       0.81301083       0.51222373 </v>
   <v>       0.61856526       0.95267127       0.50241476 </v>
   <v>       0.76118971       0.09507584       0.50125898 </v>
   <v>       0.76124971       0.23777492       0.50044882 </v>
   <v>       0.76156600       0.38077687       0.50706982 </v>
   <v>       0.76264328       0.52502078       0.52184994 </v>
   <v>       0.76624145       0.66760529       0.53599271 </v>
   <v>       0.76186906       0.80903414       0.52621132 </v>
   <v>       0.76128656       0.95227212       0.50978285 </v>
   <v>       0.90353752       0.09447142       0.50080901 </v>
   <v>       0.90343121       0.23749917       0.49786941 </v>
   <v>       0.90368273       0.38073301       0.49925506 </v>
   <v>       0.90451263       0.52394705       0.50340173 </v>
   <v>       0.90571870       0.66702386       0.50945331 </v>
   <v>       0.90553014       0.81008594       0.51099871 </v>
   <v>       0.90408748       0.95188429       0.50588105 </v>
   <v>       0.46355976       0.35409069       0.49646491 </v>
   <v>       0.40020504       0.55558802       0.51876207 </v>
   <v>       0.64907240       0.53873803       0.55469506 </v>
   <v>       0.58537818       0.41714588       0.50681707 </v>
   <v>       0.58347397       0.74089044       0.51435875 </v>
   <v>       0.46218918       0.67946272       0.49547869 </v>
   <v>       0.56119602       0.58173341       0.48455725 </v>
   <v>       0.49379584       0.51550969       0.41649108 </v>
   <v>       0.41430876       0.42853030       0.53724135 </v>
   <v>       0.63526638       0.67031921       0.57240293 </v>
   <v>       0.55716289       0.54920764       0.43022414 </v>
  </varray>
  <varray name="selective"  type="logical" >
   <v type="logical" >  T  T  T </v>
   <v type="logical" >  T  T  T </v>
   <v type="logical" >  T  T  T </v>
   <v type="logical" >  T  T  T </v>
   <v type="logical" >  T  T  T </v>
   <v type="logical" >  T  T  T </v>
   <v type="logical" >  T  T  T </v>
   <v type="logical" >  T  T  T </v>
   <v type="logical" >  T  T  T </v>
   <v type="logical" >  T  T  T </v>
   <v type="logical" >  T  T  T </v>
   <v type="logical" >  T  T  T </v>
   <v type="logical" >  T  T  T </v>
   <v type="logical" >  T  T  T </v>
   <v type="logical" >  T  T  T </v>
   <v type="logical" >  T  T  T </v>
   <v type="logical" >  T  T  T </v>
   <v type="logical" >  T  T  T </v>
   <v type="logical" >  T  T  T </v>
   <v type="logical" >  T  T  T </v>
   <v type="logical" >  T  T  T </v>
   <v type="logical" >  T  T  T </v>
   <v type="logical" >  T  T  T </v>
   <v type="logical" >  T  T  T </v>
   <v type="logical" >  T  T  T </v>
   <v type="logical" >  T  T  T </v>
   <v type="logical" >  T  T  T </v>
   <v type="logical" >  T  T  T </v>
   <v type="logical" >  T  T  T </v>
   <v type="logical" >  T  T  T </v>
   <v type="logical" >  T  T  T </v>
   <v type="logical" >  T  T  T </v>
   <v type="logical" >  T  T  T </v>
   <v type="logical" >  T  T  T </v>
   <v type="logical" >  T  T  T </v>
   <v type="logical" >  T  T  T </v>
   <v type="logical" >  T  T  T </v>
   <v type="logical" >  T  T  T </v>
   <v type="logical" >  T  T  T </v>
   <v type="logical" >  T  T  T </v>
   <v type="logical" >  T  T  T </v>
   <v type="logical" >  T  T  T </v>
   <v type="logical" >  T  T  T </v>
   <v type="logical" >  T  T  T </v>
   <v type="logical" >  T  T  T </v>
   <v type="logical" >  T  T  T </v>
   <v type="logical" >  T  T  T </v>
   <v type="logical" >  T  T  T </v>
   <v type="logical" >  T  T  T </v>
   <v type="logical" >  T  T  T </v>
   <v type="logical" >  T  T  T </v>
   <v type="logical" >  T  T  T </v>
   <v type="logical" >  T  T  T </v>
   <v type="logical" >  T  T  T </v>
   <v type="logical" >  T  T  T </v>
   <v type="logical" >  T  T  T </v>
   <v type="logical" >  T  T  T </v>
   <v type="logical" >  T  T  T </v>
   <v type="logical" >  T  T  T </v>
   <v type="logical" >  T  T  T </v>
   <v type="logical" >  T  T  T </v>
   <v type="logical" >  T  T  T </v>
   <v type="logical" >  T  T  T </v>
   <v type="logical" >  T  T  T </v>
   <v type="logical" >  T  T  T </v>
   <v type="logical" >  T  T  T </v>
   <v type="logical" >  T  T  T </v>
   <v type="logical" >  T  T  T </v>
   <v type="logical" >  T  T  T </v>
   <v type="logical" >  T  T  T </v>
   <v type="logical" >  T  T  T </v>
   <v type="logical" >  T  T  T </v>
   <v type="logical" >  T  T  T </v>
   <v type="logical" >  T  T  T </v>
   <v type="logical" >  T  T  T </v>
   <v type="logical" >  T  T  T </v>
   <v type="logical" >  T  T  T </v>
   <v type="logical" >  T  T  T </v>
   <v type="logical" >  T  T  T </v>
   <v type="logical" >  T  T  T </v>
   <v type="logical" >  T  T  T </v>
   <v type="logical" >  T  T  T </v>
   <v type="logical" >  T  T  T </v>
   <v type="logical" >  T  T  T </v>
   <v type="logical" >  T  T  T </v>
   <v type="logical" >  T  T  T </v>
   <v type="logical" >  T  T  T </v>
   <v type="logical" >  T  T  T </v>
   <v type="logical" >  T  T  T </v>
   <v type="logical" >  T  T  T </v>
   <v type="logical" >  T  T  T </v>
   <v type="logical" >  T  T  T </v>
   <v type="logical" >  T  T  T </v>
   <v type="logical" >  T  T  T </v>
   <v type="logical" >  T  T  T </v>
   <v type="logical" >  T  T  T </v>
   <v type="logical" >  T  T  T </v>
   <v type="logical" >  T  T  T </v>
   <v type="logical" >  T  T  F </v>
  </varray>
  <nose>
   <v>      -3.00000000       0.00000000       0.00010000       0.00010000 </v>
  </nose>
 </structure>
</modeling>
