unknown system                          
           1
    17.271038    0.000000    0.000000
    -8.635519   14.957158    0.000000
     0.000000    0.000000   15.000000
   C    H    F    O 
    88     8     2     1
Direct configuration=     1
   0.99929618  0.99974526  0.49886483
   0.99874761  0.14225948  0.49718808
   0.99852240  0.28516433  0.49614248
   0.99882135  0.42832535  0.49603651
   0.99957134  0.57148942  0.49757480
   0.00067999  0.71475488  0.50000924
   0.00049713  0.85775640  0.50069066
   0.14266284  0.00036810  0.49623403
   0.14207210  0.14287661  0.49628522
   0.14081611  0.28479709  0.49718560
   0.14075973  0.42808645  0.49584612
   0.14193672  0.57119709  0.49453144
   0.14267966  0.71436575  0.49501459
   0.14285443  0.85747727  0.49570886
   0.28526459  0.99995841  0.49518169
   0.28516334  0.14269569  0.49789818
   0.28504640  0.28623911  0.50484104
   0.28138958  0.42778635  0.50836818
   0.28462865  0.57026334  0.49964457
   0.28500129  0.71448895  0.49507089
   0.28523733  0.85740893  0.49449402
   0.42820761  0.00004671  0.49594944
   0.42806709  0.14244120  0.49654600
   0.42679142  0.28217672  0.49652722
   0.42612355  0.71599830  0.49604972
   0.42789683  0.85735417  0.49623618
   0.57084087  0.00032848  0.49864326
   0.57092057  0.14276713  0.49805039
   0.57197537  0.28641209  0.49929165
   0.57168172  0.85799090  0.50172417
   0.71369905  0.99988415  0.50320317
   0.71373881  0.14281412  0.49948590
   0.71381832  0.28575612  0.50121834
   0.71354997  0.42795431  0.50944018
   0.71967046  0.57343833  0.53439626
   0.72301089  0.71807728  0.53915613
   0.71295925  0.85719043  0.51435784
   0.85647442  0.99984287  0.50452592
   0.85612099  0.14251521  0.49963832
   0.85617892  0.28539960  0.49876663
   0.85671444  0.42850215  0.50226376
   0.85777038  0.57196427  0.50814719
   0.85967323  0.71547283  0.51402945
   0.85735992  0.85705174  0.51041803
   0.04680280  0.09503884  0.49675413
   0.04571059  0.23717589  0.49603018
   0.04566774  0.38034348  0.49519613
   0.04688743  0.52367909  0.49542644
   0.04756127  0.66683267  0.49700609
   0.04779588  0.80989449  0.49849467
   0.04743245  0.95261676  0.49799018
   0.18996252  0.09521712  0.49683857
   0.18913270  0.23798917  0.49805133
   0.18690766  0.37960187  0.49881545
   0.18898695  0.52327087  0.49583102
   0.18983760  0.66674107  0.49465725
   0.19027798  0.80979994  0.49482020
   0.19030163  0.95259104  0.49552062
   0.33290014  0.09530402  0.49611055
   0.33378268  0.23803108  0.50046730
   0.32497528  0.37800913  0.51694129
   0.32833528  0.52167885  0.50906896
   0.33318544  0.66746400  0.49650005
   0.33281051  0.80962274  0.49480629
   0.33280927  0.95243690  0.49496703
   0.47578828  0.09498420  0.49680823
   0.47521326  0.23738647  0.49650849
   0.47496177  0.80932558  0.49739439
   0.47571933  0.95262287  0.49688771
   0.61839799  0.09527623  0.49872751
   0.61877205  0.23813287  0.49969128
   0.62064957  0.37993387  0.50406425
   0.62002956  0.81327869  0.50878995
   0.61862984  0.95288758  0.50131504
   0.76124298  0.09523182  0.50065057
   0.76126957  0.23786083  0.49968945
   0.76158806  0.38084673  0.50457122
   0.76253297  0.52504973  0.51751293
   0.76598580  0.66751344  0.53082295
   0.76182320  0.80906170  0.52197868
   0.76137393  0.95243737  0.50780574
   0.90360921  0.09460302  0.50010867
   0.90348642  0.23761306  0.49775051
   0.90373918  0.38081047  0.49873226
   0.90461428  0.52403387  0.50191951
   0.90579132  0.66707425  0.50692823
   0.90556796  0.81016206  0.50813509
   0.90417210  0.95199676  0.50388318
   0.46345188  0.35424327  0.49398921
   0.40040451  0.55550111  0.51735987
   0.64828170  0.53873936  0.54691388
   0.58538363  0.41726572  0.50206646
   0.58349270  0.74118048  0.50992852
   0.46222106  0.67956932  0.49492905
   0.56717307  0.58747624  0.47313041
   0.49003006  0.51221646  0.41983571
   0.41378049  0.42807826  0.53844982
   0.63427922  0.66956744  0.56475843
   0.55390399  0.54021376  0.43022414
Direct configuration=     2
   0.99929668  0.99974641  0.49886586
   0.99874785  0.14226071  0.49718746
   0.99852203  0.28516469  0.49614032
   0.99882168  0.42832669  0.49603653
   0.99957270  0.57148920  0.49757461
   0.00068072  0.71475341  0.50001101
   0.00049741  0.85775547  0.50069470
   0.14266325  0.00036868  0.49623280
   0.14207230  0.14287752  0.49628571
   0.14081596  0.28479738  0.49718823
   0.14075938  0.42808872  0.49584715
   0.14193492  0.57119809  0.49453032
   0.14267822  0.71436367  0.49501303
   0.14285429  0.85747631  0.49570699
   0.28526369  0.99995815  0.49517947
   0.28516314  0.14269677  0.49789779
   0.28504430  0.28623927  0.50484644
   0.28138810  0.42778485  0.50837656
   0.28462521  0.57026447  0.49964933
   0.28499481  0.71448560  0.49507098
   0.28523453  0.85740725  0.49449188
   0.42820626  0.00004561  0.49594771
   0.42806444  0.14244035  0.49654514
   0.42678969  0.28217785  0.49653154
   0.42612036  0.71599805  0.49605152
   0.42789463  0.85735420  0.49623684
   0.57084040  0.00032843  0.49864480
   0.57091959  0.14276573  0.49805136
   0.57197409  0.28641053  0.49929671
   0.57168004  0.85799366  0.50173052
   0.71369854  0.99988590  0.50320857
   0.71374034  0.14281451  0.49948667
   0.71382212  0.28575649  0.50122055
   0.71355425  0.42795446  0.50945064
   0.71967468  0.57343874  0.53441658
   0.72301398  0.71807674  0.53917306
   0.71295787  0.85719206  0.51436945
   0.85647522  0.99984421  0.50453095
   0.85612149  0.14251623  0.49963810
   0.85618089  0.28540032  0.49876576
   0.85671715  0.42850228  0.50226585
   0.85777202  0.57196369  0.50815490
   0.85967464  0.71547189  0.51404104
   0.85735966  0.85705165  0.51042908
   0.04680191  0.09503675  0.49675413
   0.04571085  0.23717528  0.49602927
   0.04566892  0.38034293  0.49519504
   0.04688643  0.52367737  0.49542565
   0.04755962  0.66683269  0.49700593
   0.04779526  0.80989546  0.49849585
   0.04743203  0.95261654  0.49799114
   0.18996274  0.09521623  0.49683774
   0.18913271  0.23798831  0.49805509
   0.18690993  0.37960325  0.49882017
   0.18898972  0.52326909  0.49583160
   0.18984290  0.66674462  0.49465546
   0.19027989  0.80980285  0.49481792
   0.19030192  0.95259223  0.49551931
   0.33290182  0.09530545  0.49610881
   0.33378391  0.23803182  0.50047043
   0.32497447  0.37801034  0.51694981
   0.32833716  0.52167969  0.50908057
   0.33319056  0.66746595  0.49650229
   0.33281399  0.80962626  0.49480512
   0.33281057  0.95243777  0.49496460
   0.47579027  0.09498590  0.49680883
   0.47521544  0.23738806  0.49651093
   0.47496233  0.80932480  0.49739747
   0.47571923  0.95262288  0.49688692
   0.61839739  0.09527699  0.49872834
   0.61877054  0.23813292  0.49969419
   0.62064901  0.37993432  0.50407184
   0.62002901  0.81327507  0.50880172
   0.61862987  0.95288556  0.50131986
   0.76124218  0.09523020  0.50065257
   0.76126589  0.23785970  0.49968949
   0.76158335  0.38084690  0.50457587
   0.76253122  0.52504796  0.51752302
   0.76598667  0.66751381  0.53083745
   0.76182196  0.80906285  0.52199519
   0.76137290  0.95243418  0.50781452
   0.90360871  0.09460057  0.50010942
   0.90348653  0.23761209  0.49774869
   0.90373836  0.38081036  0.49873216
   0.90461218  0.52403304  0.50192256
   0.90578935  0.66707427  0.50693436
   0.90556691  0.81016241  0.50814587
   0.90417065  0.95199486  0.50388908
   0.46345154  0.35424404  0.49399562
   0.40040310  0.55550253  0.51737721
   0.64828558  0.53873813  0.54694386
   0.58538495  0.41726569  0.50207675
   0.58349247  0.74118102  0.50994616
   0.46222158  0.67956945  0.49492817
   0.56714710  0.58743980  0.47319184
   0.49004228  0.51222372  0.41981843
   0.41377924  0.42808144  0.53845364
   0.63428343  0.66956704  0.56477336
   0.55391556  0.54023698  0.43022414
Direct configuration=     3
   0.99929521  0.99974478  0.49886755
   0.99874761  0.14225959  0.49718644
   0.99852256  0.28516422  0.49613700
   0.99882154  0.42832549  0.49603623
   0.99957118  0.57148811  0.49757445
   0.00067916  0.71475351  0.50001381
   0.00049610  0.85775542  0.50070082
   0.14266275  0.00036854  0.49623085
   0.14207182  0.14287647  0.49628636
   0.14081668  0.28479816  0.49719211
   0.14076089  0.42808845  0.49584873
   0.14193614  0.57119758  0.49452842
   0.14267855  0.71436495  0.49501044
   0.14285409  0.85747751  0.49570413
   0.28526427  0.99995901  0.49517598
   0.28516430  0.14269779  0.49789657
   0.28504388  0.28624057  0.50485482
   0.28138866  0.42778601  0.50838952
   0.28462771  0.57026521  0.49965694
   0.28500224  0.71449130  0.49507069
   0.28523569  0.85740856  0.49448841
   0.42820692  0.00004653  0.49594505
   0.42806632  0.14244276  0.49654492
   0.42679086  0.28217951  0.49653790
   0.42612260  0.71599848  0.49605409
   0.42789509  0.85735434  0.49623769
   0.57084016  0.00032823  0.49864698
   0.57091959  0.14276653  0.49805279
   0.57197521  0.28641282  0.49930322
   0.57168058  0.85799070  0.50174072
   0.71369867  0.99988353  0.50321678
   0.71373938  0.14281370  0.49948766
   0.71381987  0.28575639  0.50122318
   0.71355277  0.42795361  0.50946593
   0.71967820  0.57343868  0.53444675
   0.72301834  0.71807860  0.53919806
   0.71295520  0.85719080  0.51438755
   0.85647302  0.99984116  0.50453759
   0.85612121  0.14251446  0.49963774
   0.85617981  0.28539926  0.49876435
   0.85671494  0.42850122  0.50226921
   0.85777082  0.57196289  0.50816634
   0.85967509  0.71547234  0.51405848
   0.85735783  0.85705112  0.51044607
   0.04680212  0.09503807  0.49675424
   0.04571084  0.23717579  0.49602778
   0.04566878  0.38034375  0.49519334
   0.04688690  0.52367771  0.49542552
   0.04755935  0.66683110  0.49700542
   0.04779547  0.80989362  0.49849801
   0.04743209  0.95261642  0.49799246
   0.18996298  0.09521669  0.49683641
   0.18913160  0.23798778  0.49806055
   0.18690896  0.37960382  0.49882677
   0.18898715  0.52327175  0.49583277
   0.18984023  0.66674302  0.49465392
   0.19027823  0.80980131  0.49481436
   0.19030151  0.95259215  0.49551703
   0.33290081  0.09530593  0.49610607
   0.33378247  0.23803252  0.50047514
   0.32497208  0.37800959  0.51696202
   0.32833501  0.52168073  0.50909733
   0.33318697  0.66746560  0.49650553
   0.33281113  0.80962490  0.49480328
   0.33280936  0.95243728  0.49496076
   0.47578683  0.09498457  0.49680851
   0.47521317  0.23738859  0.49651413
   0.47496108  0.80932607  0.49740198
   0.47571866  0.95262340  0.49688695
   0.61839786  0.09527678  0.49872954
   0.61877133  0.23813243  0.49969850
   0.62065236  0.37993379  0.50408345
   0.62002663  0.81327565  0.50881920
   0.61862943  0.95288661  0.50132687
   0.76124280  0.09523137  0.50065593
   0.76126955  0.23785975  0.49969026
   0.76158695  0.38084574  0.50458285
   0.76253350  0.52504630  0.51753756
   0.76598985  0.66751380  0.53085966
   0.76182105  0.80906322  0.52201985
   0.76137232  0.95243530  0.50782714
   0.90360893  0.09460101  0.50011035
   0.90348686  0.23761228  0.49774579
   0.90373929  0.38081030  0.49873182
   0.90461351  0.52403260  0.50192682
   0.90578986  0.66707327  0.50694352
   0.90556687  0.81016183  0.50816175
   0.90417135  0.95199762  0.50389737
   0.46345087  0.35424538  0.49400502
   0.40040251  0.55550526  0.51740289
   0.64829225  0.53873674  0.54698807
   0.58538606  0.41726654  0.50209177
   0.58349097  0.74117925  0.50997222
   0.46222115  0.67957031  0.49492677
   0.56710871  0.58738652  0.47328306
   0.49006060  0.51223458  0.41979287
   0.41377857  0.42808670  0.53845968
   0.63428799  0.66956538  0.56479707
   0.55393030  0.54026989  0.43022414
Direct configuration=     4
   0.99929311  0.99974232  0.49887017
   0.99874710  0.14225735  0.49718511
   0.99852363  0.28516361  0.49613260
   0.99882134  0.42832307  0.49603552
   0.99956981  0.57148926  0.49757570
   0.00067657  0.71475389  0.50001784
   0.00049421  0.85775570  0.50070932
   0.14266182  0.00036804  0.49622827
   0.14207103  0.14287438  0.49628737
   0.14081733  0.28479839  0.49719605
   0.14076267  0.42808701  0.49585102
   0.14193880  0.57119689  0.49452595
   0.14267964  0.71436747  0.49500688
   0.14285375  0.85747947  0.49570046
   0.28526557  0.99996059  0.49517116
   0.28516495  0.14269841  0.49789596
   0.28504467  0.28624187  0.50486649
   0.28138949  0.42778917  0.50840748
   0.28463244  0.57026581  0.49966741
   0.28501617  0.71450129  0.49507012
   0.28523853  0.85741135  0.49448352
   0.42820816  0.00004859  0.49594157
   0.42806926  0.14244567  0.49654425
   0.42679304  0.28218127  0.49654663
   0.42612733  0.71599968  0.49605763
   0.42789710  0.85735510  0.49623890
   0.57084031  0.00032812  0.49864996
   0.57091996  0.14276825  0.49805480
   0.57197795  0.28641689  0.49931138
   0.57168217  0.85798511  0.50175483
   0.71369972  0.99988071  0.50322598
   0.71373762  0.14281243  0.49948909
   0.71381457  0.28575395  0.50122569
   0.71354922  0.42795192  0.50948599
   0.71968217  0.57343798  0.53448676
   0.72302335  0.71808177  0.53923182
   0.71295198  0.85718703  0.51441170
   0.85646946  0.99983690  0.50454618
   0.85612080  0.14251168  0.49963738
   0.85617776  0.28539746  0.49876246
   0.85671102  0.42849955  0.50227396
   0.85776884  0.57196183  0.50818112
   0.85967559  0.71547346  0.51408196
   0.85735576  0.85705128  0.51046968
   0.04680291  0.09504093  0.49675447
   0.04571100  0.23717693  0.49602582
   0.04566826  0.38034499  0.49519109
   0.04688818  0.52367919  0.49542592
   0.04755989  0.66682908  0.49700461
   0.04779586  0.80989222  0.49849866
   0.04743184  0.95261599  0.49799437
   0.18996323  0.09521813  0.49683462
   0.18913002  0.23798806  0.49806795
   0.18690654  0.37960388  0.49883559
   0.18898285  0.52327515  0.49583463
   0.18983375  0.66673912  0.49465263
   0.19027473  0.80979767  0.49480950
   0.19030082  0.95259139  0.49551365
   0.33289873  0.09530605  0.49610240
   0.33377989  0.23803390  0.50048156
   0.32496917  0.37800846  0.51697830
   0.32833214  0.52168267  0.50911899
   0.33318008  0.66746461  0.49651007
   0.33280591  0.80962162  0.49480085
   0.33280696  0.95243635  0.49495550
   0.47578144  0.09498217  0.49680863
   0.47520937  0.23738943  0.49651842
   0.47495922  0.80932801  0.49740818
   0.47571808  0.95262368  0.49688660
   0.61839863  0.09527591  0.49873124
   0.61877323  0.23813208  0.49970425
   0.62065729  0.37993332  0.50409972
   0.62002286  0.81327795  0.50884354
   0.61863062  0.95289004  0.50133609
   0.76124401  0.09523227  0.50065956
   0.76127382  0.23786030  0.49969040
   0.76159280  0.38084482  0.50459235
   0.76253793  0.52504538  0.51755847
   0.76599286  0.66751252  0.53088952
   0.76182087  0.80906321  0.52205281
   0.76137165  0.95243815  0.50784397
   0.90360912  0.09460240  0.50011160
   0.90348731  0.23761271  0.49774183
   0.90374082  0.38080990  0.49873137
   0.90461615  0.52403225  0.50193264
   0.90579163  0.66707301  0.50695539
   0.90556735  0.81016116  0.50818302
   0.90417137  0.95199968  0.50390811
   0.46345029  0.35424765  0.49401763
   0.40040180  0.55550886  0.51743709
   0.64830157  0.53873511  0.54704682
   0.58538775  0.41726771  0.50211165
   0.58348863  0.74117610  0.51000685
   0.46222062  0.67957150  0.49492496
   0.56705776  0.58731620  0.47340414
   0.49008439  0.51224879  0.41975897
   0.41377628  0.42809030  0.53846598
   0.63429215  0.66956283  0.56482776
   0.55394943  0.54031356  0.43022414
Direct configuration=     5
   0.99929248  0.99974241  0.49887389
   0.99874679  0.14225713  0.49718371
   0.99852419  0.28516407  0.49612746
   0.99882182  0.42832307  0.49603452
   0.99956972  0.57148847  0.49757722
   0.00067601  0.71475307  0.50002288
   0.00049337  0.85775520  0.50072002
   0.14266138  0.00036810  0.49622528
   0.14207200  0.14287734  0.49628802
   0.14081723  0.28479957  0.49719937
   0.14076225  0.42808774  0.49585413
   0.14193886  0.57119793  0.49452341
   0.14267913  0.71436692  0.49500264
   0.14285308  0.85747949  0.49569613
   0.28526780  0.99995987  0.49516551
   0.28516410  0.14269952  0.49789610
   0.28504301  0.28624222  0.50488016
   0.28138721  0.42779142  0.50842860
   0.28463142  0.57026703  0.49967999
   0.28501117  0.71449852  0.49507021
   0.28523741  0.85741188  0.49447738
   0.42820783  0.00004854  0.49593865
   0.42806856  0.14244691  0.49654336
   0.42679213  0.28218324  0.49655780
   0.42612696  0.71600066  0.49606232
   0.42789708  0.85735664  0.49624057
   0.57084065  0.00032823  0.49865387
   0.57091891  0.14276787  0.49805757
   0.57197953  0.28641855  0.49932125
   0.57167973  0.85798644  0.50177162
   0.71370067  0.99988166  0.50323639
   0.71373797  0.14281200  0.49949115
   0.71381371  0.28575096  0.50122879
   0.71355076  0.42795016  0.50950914
   0.71969063  0.57343838  0.53453303
   0.72302803  0.71808286  0.53927462
   0.71294998  0.85718480  0.51444203
   0.85646746  0.99983669  0.50455690
   0.85612124  0.14251135  0.49963718
   0.85617843  0.28539716  0.49876025
   0.85671193  0.42849882  0.50228007
   0.85777166  0.57196139  0.50819537
   0.85967720  0.71547355  0.51411081
   0.85735553  0.85705283  0.51049972
   0.04680229  0.09503923  0.49675419
   0.04571140  0.23717687  0.49602353
   0.04566902  0.38034480  0.49518850
   0.04688827  0.52367958  0.49542531
   0.04755968  0.66682969  0.49700383
   0.04779486  0.80989330  0.49849842
   0.04743046  0.95261530  0.49799712
   0.18996313  0.09521875  0.49683262
   0.18912930  0.23798863  0.49807729
   0.18690666  0.37960437  0.49884678
   0.18898520  0.52327478  0.49583648
   0.18983447  0.66673997  0.49465151
   0.19027394  0.80979786  0.49480355
   0.19030084  0.95259187  0.49550926
   0.33289892  0.09530737  0.49609814
   0.33377943  0.23803561  0.50048823
   0.32496612  0.37800921  0.51699837
   0.32833305  0.52168543  0.50914598
   0.33318173  0.66746636  0.49651608
   0.33280712  0.80962399  0.49479805
   0.33280656  0.95243717  0.49494909
   0.47578327  0.09498249  0.49680901
   0.47520982  0.23739238  0.49652413
   0.47495847  0.80932779  0.49741497
   0.47571822  0.95262407  0.49688615
   0.61839806  0.09527567  0.49873361
   0.61877254  0.23813213  0.49971118
   0.62065906  0.37993420  0.50412060
   0.62001976  0.81327547  0.50887531
   0.61863288  0.95289147  0.50134613
   0.76124419  0.09523069  0.50066352
   0.76127250  0.23785971  0.49969008
   0.76159270  0.38084327  0.50460462
   0.76254002  0.52504479  0.51758722
   0.76599485  0.66751136  0.53092782
   0.76182130  0.80906399  0.52209313
   0.76136977  0.95243641  0.50786488
   0.90360815  0.09460067  0.50011340
   0.90348752  0.23761177  0.49773712
   0.90374055  0.38080876  0.49873109
   0.90461590  0.52403176  0.50194045
   0.90579181  0.66707374  0.50697083
   0.90556622  0.81015972  0.50820827
   0.90416901  0.95199776  0.50392166
   0.46345007  0.35425082  0.49403351
   0.40039953  0.55551269  0.51747910
   0.64831256  0.53873284  0.54711955
   0.58539099  0.41726838  0.50213634
   0.58348650  0.74117402  0.51004956
   0.46222131  0.67957226  0.49492294
   0.56699449  0.58722926  0.47355372
   0.49011277  0.51226638  0.41971709
   0.41377401  0.42809295  0.53847344
   0.63429559  0.66955952  0.56486811
   0.55397376  0.54036731  0.43022414
Direct configuration=     6
   0.99929225  0.99974356  0.49887891
   0.99874660  0.14225804  0.49718222
   0.99852404  0.28516479  0.49612159
   0.99882275  0.42832500  0.49603297
   0.99957082  0.57148663  0.49757910
   0.00067758  0.71475248  0.50002879
   0.00049268  0.85775392  0.50073278
   0.14266132  0.00036873  0.49622180
   0.14207213  0.14287921  0.49628961
   0.14081658  0.28480132  0.49720279
   0.14076062  0.42808990  0.49585818
   0.14193704  0.57119936  0.49452095
   0.14267708  0.71436439  0.49499769
   0.14285117  0.85747690  0.49569213
   0.28526652  0.99996054  0.49515840
   0.28516216  0.14269909  0.49789790
   0.28503970  0.28624274  0.50489632
   0.28138215  0.42779112  0.50845258
   0.28462889  0.57027003  0.49969399
   0.28499358  0.71448754  0.49507107
   0.28523322  0.85741016  0.49446973
   0.42820849  0.00004693  0.49593718
   0.42806610  0.14244715  0.49654380
   0.42678928  0.28218614  0.49657143
   0.42612264  0.71600091  0.49606821
   0.42789494  0.85735788  0.49624257
   0.57084297  0.00032839  0.49865779
   0.57091765  0.14276605  0.49806117
   0.57197906  0.28641759  0.49933340
   0.57167542  0.85799298  0.50179156
   0.71370118  0.99988471  0.50324882
   0.71373979  0.14281177  0.49949371
   0.71381711  0.28574919  0.50123319
   0.71355723  0.42794936  0.50953612
   0.71970109  0.57343915  0.53458408
   0.72303148  0.71808090  0.53932729
   0.71294734  0.85718473  0.51447828
   0.85646691  0.99983895  0.50457041
   0.85612218  0.14251280  0.49963712
   0.85618067  0.28539750  0.49875758
   0.85671638  0.42849852  0.50228788
   0.85777734  0.57196204  0.50821003
   0.85967855  0.71547283  0.51414260
   0.85735671  0.85705390  0.51053682
   0.04680138  0.09503683  0.49675411
   0.04571161  0.23717570  0.49602067
   0.04567042  0.38034374  0.49518549
   0.04688764  0.52367862  0.49542353
   0.04755859  0.66683166  0.49700312
   0.04779271  0.80989544  0.49849803
   0.04742846  0.95261468  0.49800094
   0.18996236  0.09521890  0.49683044
   0.18912964  0.23799018  0.49808832
   0.18690906  0.37960641  0.49885871
   0.18899156  0.52327187  0.49583852
   0.18983969  0.66674381  0.49465014
   0.19027550  0.80980113  0.49479631
   0.19030222  0.95259342  0.49550358
   0.33290107  0.09530925  0.49609341
   0.33378043  0.23803720  0.50049565
   0.32496207  0.37801109  0.51702193
   0.32833581  0.52168862  0.50917723
   0.33318890  0.66746989  0.49652220
   0.33281193  0.80962925  0.49479482
   0.33280892  0.95243895  0.49494142
   0.47578948  0.09498714  0.49680845
   0.47521418  0.23739649  0.49653147
   0.47495892  0.80932688  0.49742277
   0.47571929  0.95262491  0.49688588
   0.61839685  0.09527622  0.49873675
   0.61876950  0.23813206  0.49971903
   0.62065796  0.37993575  0.50414506
   0.62001814  0.81327114  0.50891419
   0.61863448  0.95289109  0.50135669
   0.76124393  0.09522836  0.50066778
   0.76126736  0.23785749  0.49968925
   0.76158763  0.38084066  0.50461956
   0.76254152  0.52504393  0.51762435
   0.76599836  0.66751180  0.53097319
   0.76182109  0.80906249  0.52213955
   0.76136706  0.95243056  0.50788971
   0.90360660  0.09459699  0.50011567
   0.90348764  0.23761007  0.49773165
   0.90373944  0.38080743  0.49873094
   0.90461396  0.52403076  0.50195007
   0.90578991  0.66707474  0.50698911
   0.90556433  0.81015903  0.50823808
   0.90416663  0.95199772  0.50393815
   0.46344994  0.35425436  0.49405277
   0.40039632  0.55551683  0.51752894
   0.64832612  0.53873020  0.54720594
   0.58539540  0.41726904  0.50216583
   0.58348442  0.74117286  0.51010039
   0.46222291  0.67957284  0.49492074
   0.56691842  0.58712464  0.47373060
   0.49014573  0.51228743  0.41966721
   0.41377312  0.42809543  0.53848307
   0.63429817  0.66955540  0.56492133
   0.55400336  0.54043210  0.43022414
Direct configuration=     7
   0.99928972  0.99974281  0.49888632
   0.99874567  0.14225695  0.49718043
   0.99852378  0.28516392  0.49611427
   0.99882312  0.42832510  0.49603021
   0.99957038  0.57148544  0.49758171
   0.00067755  0.71475446  0.50003639
   0.00048963  0.85775320  0.50074910
   0.14266011  0.00036889  0.49621737
   0.14207039  0.14287843  0.49629269
   0.14081655  0.28480349  0.49720774
   0.14076193  0.42809173  0.49586199
   0.14193766  0.57119799  0.49451838
   0.14267559  0.71436507  0.49499137
   0.14284872  0.85747577  0.49568732
   0.28526642  0.99995974  0.49515063
   0.28516229  0.14269877  0.49789943
   0.28503950  0.28624553  0.50491674
   0.28137916  0.42779280  0.50848241
   0.28463330  0.57027370  0.49971200
   0.28499866  0.71449251  0.49507033
   0.28523255  0.85741074  0.49445934
   0.42821229  0.00004812  0.49593648
   0.42806782  0.14244974  0.49654547
   0.42678928  0.28219026  0.49658916
   0.42612040  0.71599858  0.49607236
   0.42789355  0.85735777  0.49624505
   0.57084409  0.00032974  0.49866297
   0.57091859  0.14276664  0.49806602
   0.57197778  0.28641762  0.49935018
   0.57167676  0.85799381  0.50181900
   0.71370157  0.99988415  0.50326590
   0.71373927  0.14281006  0.49949679
   0.71381752  0.28575002  0.50123704
   0.71355958  0.42794784  0.50956960
   0.71971125  0.57344005  0.53464708
   0.72303323  0.71807750  0.53939357
   0.71294323  0.85718245  0.51452713
   0.85646471  0.99983816  0.50458950
   0.85612241  0.14251234  0.49963709
   0.85617966  0.28539556  0.49875391
   0.85671674  0.42849656  0.50229913
   0.85778005  0.57196380  0.50822918
   0.85967776  0.71547239  0.51418225
   0.85735649  0.85705416  0.51058443
   0.04680105  0.09503734  0.49675421
   0.04571073  0.23717515  0.49601654
   0.04567007  0.38034404  0.49518163
   0.04688846  0.52367822  0.49542206
   0.04755747  0.66683119  0.49700241
   0.04779114  0.80989398  0.49850038
   0.04742671  0.95261424  0.49800668
   0.18996060  0.09521920  0.49682820
   0.18912894  0.23799233  0.49810210
   0.18690800  0.37960891  0.49887248
   0.18899151  0.52327660  0.49584124
   0.18983598  0.66674227  0.49464799
   0.19027394  0.80980095  0.49478680
   0.19030221  0.95259365  0.49549575
   0.33290142  0.09531045  0.49608812
   0.33377873  0.23803758  0.50050597
   0.32495592  0.37801162  0.51705220
   0.32833375  0.52169133  0.50921532
   0.33318706  0.66747120  0.49652963
   0.33280855  0.80962726  0.49479078
   0.33281098  0.95244022  0.49493160
   0.47578821  0.09498675  0.49680949
   0.47521595  0.23739949  0.49654187
   0.47495804  0.80932888  0.49743327
   0.47572199  0.95262680  0.49688807
   0.61839656  0.09527632  0.49873942
   0.61876813  0.23813137  0.49972858
   0.62066002  0.37993661  0.50417707
   0.62001431  0.81327136  0.50896560
   0.61863596  0.95289251  0.50136724
   0.76124766  0.09523269  0.50067141
   0.76126803  0.23785448  0.49968883
   0.76158676  0.38083787  0.50463870
   0.76254839  0.52504293  0.51767379
   0.76600490  0.66751334  0.53103293
   0.76182010  0.80905837  0.52219902
   0.76136497  0.95242856  0.50791743
   0.90360563  0.09459632  0.50011857
   0.90348793  0.23760972  0.49772468
   0.90374045  0.38080678  0.49873081
   0.90461547  0.52402923  0.50196202
   0.90579027  0.66707499  0.50701241
   0.90556351  0.81015981  0.50827502
   0.90416627  0.95200026  0.50395905
   0.46344914  0.35425824  0.49407791
   0.40039342  0.55552224  0.51759362
   0.64834533  0.53872746  0.54731598
   0.58539962  0.41727159  0.50220366
   0.58348111  0.74117084  0.51016583
   0.46222358  0.67957444  0.49491827
   0.56681948  0.58698838  0.47395528
   0.49018798  0.51231489  0.41960303
   0.41377697  0.42809513  0.53849707
   0.63429990  0.66954952  0.56499901
   0.55404157  0.54051706  0.43022414
Direct configuration=     8
   0.99928633  0.99974108  0.49889700
   0.99874393  0.14225415  0.49717827
   0.99852376  0.28516235  0.49610522
   0.99882291  0.42832276  0.49602586
   0.99957228  0.57149067  0.49758736
   0.00067431  0.71475574  0.50004626
   0.00048578  0.85775332  0.50076979
   0.14265769  0.00036800  0.49621174
   0.14206832  0.14287744  0.49629780
   0.14081651  0.28480523  0.49721562
   0.14076506  0.42809509  0.49586555
   0.14194005  0.57119712  0.49451571
   0.14267491  0.71436746  0.49498328
   0.14284731  0.85747782  0.49568042
   0.28526926  0.99995898  0.49514100
   0.28516401  0.14270239  0.49789802
   0.28504081  0.28624870  0.50494271
   0.28138057  0.42779648  0.50851865
   0.28463907  0.57027663  0.49973439
   0.28501646  0.71450731  0.49507024
   0.28523581  0.85741250  0.49444745
   0.42821263  0.00005292  0.49593247
   0.42807277  0.14245380  0.49654597
   0.42679259  0.28219306  0.49661218
   0.42612377  0.71599841  0.49607503
   0.42789423  0.85735743  0.49624835
   0.57084671  0.00033111  0.49866814
   0.57092017  0.14276912  0.49807237
   0.57197834  0.28642073  0.49937393
   0.57167727  0.85799067  0.50185458
   0.71370361  0.99988262  0.50328620
   0.71373804  0.14280936  0.49949767
   0.71381330  0.28574979  0.50124204
   0.71355675  0.42794639  0.50961418
   0.71972455  0.57344034  0.53472767
   0.72303081  0.71807730  0.53947426
   0.71294048  0.85717732  0.51459413
   0.85646063  0.99983388  0.50461356
   0.85612366  0.14251161  0.49963681
   0.85617857  0.28539543  0.49875129
   0.85671248  0.42849304  0.50231534
   0.85777992  0.57196451  0.50825718
   0.85968109  0.71547399  0.51423188
   0.85735372  0.85705412  0.51064541
   0.04680017  0.09503951  0.49675485
   0.04570914  0.23717808  0.49601227
   0.04566938  0.38034570  0.49517652
   0.04688985  0.52367792  0.49542093
   0.04755554  0.66682817  0.49700192
   0.04778997  0.80989086  0.49850741
   0.04742479  0.95261333  0.49801527
   0.18995916  0.09521928  0.49682618
   0.18912431  0.23799114  0.49811722
   0.18690367  0.37961120  0.49888857
   0.18898805  0.52328129  0.49584750
   0.18982843  0.66673852  0.49464427
   0.19026970  0.80979796  0.49477426
   0.19029930  0.95259134  0.49548523
   0.33290009  0.09530999  0.49608280
   0.33377581  0.23803835  0.50052098
   0.32495193  0.37801153  0.51708843
   0.32832518  0.52168872  0.50926194
   0.33317845  0.66747028  0.49653902
   0.33280036  0.80962206  0.49478531
   0.33281224  0.95243957  0.49491949
   0.47578142  0.09498257  0.49681299
   0.47521441  0.23740080  0.49655502
   0.47495551  0.80933082  0.49744795
   0.47572487  0.95262645  0.49689141
   0.61839824  0.09527603  0.49874219
   0.61877082  0.23813136  0.49974026
   0.62066093  0.37993153  0.50421666
   0.62000931  0.81327577  0.50903328
   0.61863735  0.95289559  0.50138011
   0.76124834  0.09523277  0.50067735
   0.76127134  0.23785373  0.49968778
   0.76159377  0.38083652  0.50466298
   0.76256259  0.52504727  0.51773648
   0.76600982  0.66751324  0.53111152
   0.76181811  0.80905608  0.52227042
   0.76136537  0.95243118  0.50794836
   0.90360528  0.09459821  0.50012287
   0.90348787  0.23761115  0.49771837
   0.90374252  0.38080596  0.49873093