  99  99   0   0
  0.3914025E+02  0.1727104E-08  0.1727104E-08  0.1500000E-08  0.0000000E+00
  1.000000000000000E-004
  CAR 
 unknown system                          
      6.30478238    -25.65289511  301     -2.33194543      1.00000000
    -25.653  0.0000E+00  0.0000E+00  0.0000E+00  0.0000E+00
    -25.546  0.0000E+00  0.0000E+00  0.0000E+00  0.0000E+00
    -25.440  0.0000E+00  0.0000E+00  0.0000E+00  0.0000E+00
    -25.333  0.0000E+00  0.0000E+00  0.0000E+00  0.0000E+00
    -25.227  0.0000E+00  0.0000E+00  0.0000E+00  0.0000E+00
    -25.120  0.0000E+00  0.0000E+00  0.0000E+00  0.0000E+00
    -25.014  0.0000E+00  0.0000E+00  0.0000E+00  0.0000E+00
    -24.907  0.0000E+00  0.0000E+00  0.0000E+00  0.0000E+00
    -24.801  0.0000E+00  0.0000E+00  0.0000E+00  0.0000E+00
    -24.694  0.0000E+00  0.0000E+00  0.0000E+00  0.0000E+00
    -24.588  0.0000E+00  0.0000E+00  0.0000E+00  0.0000E+00
    -24.481  0.9380E-17  0.9380E-17  0.9992E-18  0.9992E-18
    -24.375  0.3847E-08  0.3846E-08  0.4098E-09  0.4097E-09
    -24.268  0.2589E-03  0.2589E-03  0.2758E-04  0.2758E-04
    -24.162  0.7845E-02  0.7845E-02  0.8633E-03  0.8633E-03
    -24.055  0.1283E-02  0.1283E-02  0.1000E-02  0.1000E-02
    -23.948  0.1871E-06  0.1871E-06  0.1000E-02  0.1000E-02
    -23.842  0.5017E-14  0.5017E-14  0.1000E-02  0.1000E-02
    -23.735  0.0000E+00  0.0000E+00  0.1000E-02  0.1000E-02
    -23.629  0.0000E+00  0.0000E+00  0.1000E-02  0.1000E-02
    -23.522  0.0000E+00  0.0000E+00  0.1000E-02  0.1000E-02
    -23.416  0.0000E+00  0.0000E+00  0.1000E-02  0.1000E-02
    -23.309  0.0000E+00  0.0000E+00  0.1000E-02  0.1000E-02
    -23.203  0.0000E+00  0.0000E+00  0.1000E-02  0.1000E-02
    -23.096  0.0000E+00  0.0000E+00  0.1000E-02  0.1000E-02
    -22.990  0.0000E+00  0.0000E+00  0.1000E-02  0.1000E-02
    -22.883  0.0000E+00  0.0000E+00  0.1000E-02  0.1000E-02
    -22.777  0.0000E+00  0.0000E+00  0.1000E-02  0.1000E-02
    -22.670  0.0000E+00  0.0000E+00  0.1000E-02  0.1000E-02
    -22.564  0.0000E+00  0.0000E+00  0.1000E-02  0.1000E-02
    -22.457  0.0000E+00  0.0000E+00  0.1000E-02  0.1000E-02
    -22.351  0.0000E+00  0.0000E+00  0.1000E-02  0.1000E-02
    -22.244  0.0000E+00  0.0000E+00  0.1000E-02  0.1000E-02
    -22.138  0.0000E+00  0.0000E+00  0.1000E-02  0.1000E-02
    -22.031  0.0000E+00  0.0000E+00  0.1000E-02  0.1000E-02
    -21.924  0.3642E-10  0.3642E-10  0.1000E-02  0.1000E-02
    -21.818  0.1371E-04  0.1371E-04  0.1001E-02  0.1001E-02
    -21.711  0.2154E-02  0.2154E-02  0.1231E-02  0.1231E-02
    -21.605  0.8498E-02  0.8498E-02  0.2136E-02  0.2136E-02
    -21.498  0.5672E-02  0.5672E-02  0.2740E-02  0.2740E-02
    -21.392  0.2007E-02  0.2007E-02  0.2954E-02  0.2954E-02
    -21.285  0.1110E-01  0.1110E-01  0.4137E-02  0.4137E-02
    -21.179  0.8271E-02  0.8271E-02  0.5018E-02  0.5018E-02
    -21.072  0.3891E-02  0.3891E-02  0.5432E-02  0.5432E-02
    -20.966  0.1215E-02  0.1215E-02  0.5562E-02  0.5562E-02
    -20.859  0.1218E-01  0.1218E-01  0.6859E-02  0.6859E-02
    -20.753  0.1162E-01  0.1162E-01  0.8097E-02  0.8097E-02
    -20.646  0.5351E-02  0.5351E-02  0.8667E-02  0.8667E-02
    -20.540  0.8699E-03  0.8699E-03  0.8760E-02  0.8760E-02
    -20.433  0.4410E-02  0.4410E-02  0.9230E-02  0.9230E-02
    -20.327  0.6392E-02  0.6392E-02  0.9911E-02  0.9911E-02
    -20.220  0.1255E-01  0.1255E-01  0.1125E-01  0.1125E-01
    -20.114  0.1496E-01  0.1496E-01  0.1284E-01  0.1284E-01
    -20.007  0.3162E-02  0.3162E-02  0.1318E-01  0.1318E-01
    -19.901  0.9579E-03  0.9579E-03  0.1328E-01  0.1328E-01
    -19.794  0.5145E-02  0.5145E-02  0.1383E-01  0.1383E-01
    -19.687  0.7814E-02  0.7814E-02  0.1466E-01  0.1466E-01
    -19.581  0.3298E-02  0.3298E-02  0.1501E-01  0.1501E-01
    -19.474  0.1010E-01  0.1010E-01  0.1609E-01  0.1609E-01
    -19.368  0.1575E-01  0.1575E-01  0.1776E-01  0.1776E-01
    -19.261  0.8242E-02  0.8242E-02  0.1864E-01  0.1864E-01
    -19.155  0.1236E-02  0.1236E-02  0.1877E-01  0.1877E-01
    -19.048  0.5210E-02  0.5210E-02  0.1933E-01  0.1933E-01
    -18.942  0.7823E-02  0.7823E-02  0.2016E-01  0.2016E-01
    -18.835  0.7116E-02  0.7116E-02  0.2092E-01  0.2092E-01
    -18.729  0.3071E-02  0.3071E-02  0.2125E-01  0.2125E-01
    -18.622  0.6214E-02  0.6214E-02  0.2191E-01  0.2191E-01
    -18.516  0.7710E-02  0.7710E-02  0.2273E-01  0.2273E-01
    -18.409  0.1911E-01  0.1911E-01  0.2477E-01  0.2477E-01
    -18.303  0.4192E-02  0.4192E-02  0.2521E-01  0.2521E-01
    -18.196  0.4857E-02  0.4857E-02  0.2573E-01  0.2573E-01
    -18.090  0.6086E-02  0.6086E-02  0.2638E-01  0.2638E-01
    -17.983  0.1045E-01  0.1045E-01  0.2749E-01  0.2749E-01
    -17.877  0.6979E-02  0.6979E-02  0.2824E-01  0.2824E-01
    -17.770  0.5307E-02  0.5307E-02  0.2880E-01  0.2880E-01
    -17.663  0.3748E-02  0.3748E-02  0.2920E-01  0.2920E-01
    -17.557  0.3358E-02  0.3358E-02  0.2956E-01  0.2956E-01
    -17.450  0.5611E-02  0.5611E-02  0.3016E-01  0.3016E-01
    -17.344  0.1966E-01  0.1966E-01  0.3225E-01  0.3225E-01
    -17.237  0.8260E-02  0.8260E-02  0.3313E-01  0.3313E-01
    -17.131  0.1020E-01  0.1020E-01  0.3422E-01  0.3422E-01
    -17.024  0.9252E-02  0.9252E-02  0.3520E-01  0.3520E-01
    -16.918  0.5246E-02  0.5246E-02  0.3576E-01  0.3576E-01
    -16.811  0.8617E-02  0.8617E-02  0.3668E-01  0.3668E-01
    -16.705  0.1031E-01  0.1031E-01  0.3778E-01  0.3778E-01
    -16.598  0.2314E-02  0.2314E-02  0.3802E-01  0.3802E-01
    -16.492  0.4050E-02  0.4050E-02  0.3846E-01  0.3846E-01
    -16.385  0.6110E-02  0.6110E-02  0.3911E-01  0.3911E-01
    -16.279  0.1467E-01  0.1467E-01  0.4067E-01  0.4067E-01
    -16.172  0.1175E-01  0.1175E-01  0.4192E-01  0.4192E-01
    -16.066  0.7802E-02  0.7802E-02  0.4275E-01  0.4275E-01
    -15.959  0.2276E-02  0.2276E-02  0.4299E-01  0.4299E-01
    -15.853  0.8586E-03  0.8586E-03  0.4309E-01  0.4309E-01
    -15.746  0.5952E-02  0.5952E-02  0.4372E-01  0.4372E-01
    -15.639  0.1270E-02  0.1270E-02  0.4386E-01  0.4386E-01
    -15.533  0.3640E-02  0.3640E-02  0.4424E-01  0.4424E-01
    -15.426  0.1950E-02  0.1950E-02  0.4445E-01  0.4445E-01
    -15.320  0.8150E-02  0.8150E-02  0.4532E-01  0.4532E-01
    -15.213  0.7419E-02  0.7419E-02  0.4611E-01  0.4611E-01
    -15.107  0.8911E-02  0.8911E-02  0.4706E-01  0.4706E-01
    -15.000  0.6429E-02  0.6429E-02  0.4774E-01  0.4774E-01
    -14.894  0.6386E-02  0.6386E-02  0.4842E-01  0.4842E-01
    -14.787  0.1725E-01  0.1725E-01  0.5026E-01  0.5026E-01
    -14.681  0.6934E-02  0.6934E-02  0.5100E-01  0.5100E-01
    -14.574  0.2082E-02  0.2082E-02  0.5122E-01  0.5122E-01
    -14.468  0.1202E-01  0.1202E-01  0.5250E-01  0.5250E-01
    -14.361  0.1223E-01  0.1223E-01  0.5381E-01  0.5381E-01
    -14.255  0.6500E-02  0.6500E-02  0.5450E-01  0.5450E-01
    -14.148  0.6676E-02  0.6676E-02  0.5521E-01  0.5521E-01
    -14.042  0.1094E-01  0.1094E-01  0.5638E-01  0.5638E-01
    -13.935  0.1199E-01  0.1199E-01  0.5765E-01  0.5765E-01
    -13.829  0.4563E-02  0.4563E-02  0.5814E-01  0.5814E-01
    -13.722  0.5810E-02  0.5810E-02  0.5876E-01  0.5876E-01
    -13.616  0.4293E-02  0.4293E-02  0.5922E-01  0.5922E-01
    -13.509  0.5241E-02  0.5241E-02  0.5977E-01  0.5977E-01
    -13.402  0.9031E-02  0.9031E-02  0.6074E-01  0.6074E-01
    -13.296  0.9209E-02  0.9209E-02  0.6172E-01  0.6172E-01
    -13.189  0.6928E-02  0.6928E-02  0.6245E-01  0.6245E-01
    -13.083  0.8376E-02  0.8376E-02  0.6335E-01  0.6335E-01
    -12.976  0.3416E-02  0.3416E-02  0.6371E-01  0.6371E-01
    -12.870  0.6896E-02  0.6896E-02  0.6445E-01  0.6445E-01
    -12.763  0.1356E-02  0.1356E-02  0.6459E-01  0.6459E-01
    -12.657  0.9210E-02  0.9210E-02  0.6557E-01  0.6557E-01
    -12.550  0.8103E-02  0.8103E-02  0.6643E-01  0.6643E-01
    -12.444  0.7759E-02  0.7759E-02  0.6726E-01  0.6726E-01
    -12.337  0.1379E-01  0.1379E-01  0.6873E-01  0.6873E-01
    -12.231  0.1461E-01  0.1461E-01  0.7029E-01  0.7029E-01
    -12.124  0.9226E-02  0.9226E-02  0.7127E-01  0.7127E-01
    -12.018  0.1000E-01  0.1000E-01  0.7233E-01  0.7233E-01
    -11.911  0.6232E-02  0.6232E-02  0.7300E-01  0.7300E-01
    -11.805  0.5915E-02  0.5915E-02  0.7363E-01  0.7363E-01
    -11.698  0.7572E-02  0.7572E-02  0.7444E-01  0.7444E-01
    -11.592  0.6369E-02  0.6369E-02  0.7511E-01  0.7511E-01
    -11.485  0.1043E-01  0.1043E-01  0.7622E-01  0.7622E-01
    -11.378  0.1048E-01  0.1048E-01  0.7734E-01  0.7734E-01
    -11.272  0.1032E-01  0.1032E-01  0.7844E-01  0.7844E-01
    -11.165  0.1214E-01  0.1214E-01  0.7973E-01  0.7973E-01
    -11.059  0.1352E-01  0.1352E-01  0.8118E-01  0.8118E-01
    -10.952  0.7385E-02  0.7385E-02  0.8196E-01  0.8196E-01
    -10.846  0.6394E-02  0.6394E-02  0.8264E-01  0.8264E-01
    -10.739  0.1550E-01  0.1550E-01  0.8429E-01  0.8429E-01
    -10.633  0.1101E-01  0.1101E-01  0.8547E-01  0.8547E-01
    -10.526  0.5888E-02  0.5888E-02  0.8610E-01  0.8610E-01
    -10.420  0.7611E-02  0.7611E-02  0.8691E-01  0.8691E-01
    -10.313  0.2456E-02  0.2456E-02  0.8717E-01  0.8717E-01
    -10.207  0.1287E-02  0.1287E-02  0.8730E-01  0.8730E-01
    -10.100  0.1289E-01  0.1289E-01  0.8868E-01  0.8868E-01
     -9.994  0.1727E-01  0.1727E-01  0.9052E-01  0.9052E-01
     -9.887  0.1521E-01  0.1521E-01  0.9214E-01  0.9214E-01
     -9.781  0.1814E-01  0.1814E-01  0.9407E-01  0.9407E-01
     -9.674  0.2009E-01  0.2009E-01  0.9621E-01  0.9621E-01
     -9.568  0.2044E-01  0.2044E-01  0.9839E-01  0.9839E-01
     -9.461  0.9331E-02  0.9331E-02  0.9938E-01  0.9938E-01
     -9.354  0.1595E-01  0.1595E-01  0.1011E+00  0.1011E+00
     -9.248  0.1539E-01  0.1539E-01  0.1027E+00  0.1027E+00
     -9.141  0.1414E-01  0.1414E-01  0.1042E+00  0.1042E+00
     -9.035  0.1860E-01  0.1860E-01  0.1062E+00  0.1062E+00
     -8.928  0.1639E-01  0.1639E-01  0.1080E+00  0.1080E+00
     -8.822  0.3599E-01  0.3599E-01  0.1118E+00  0.1118E+00
     -8.715  0.2901E-01  0.2901E-01  0.1149E+00  0.1149E+00
     -8.609  0.2477E-01  0.2477E-01  0.1175E+00  0.1175E+00
     -8.502  0.1817E-01  0.1817E-01  0.1195E+00  0.1195E+00
     -8.396  0.1349E-01  0.1349E-01  0.1209E+00  0.1209E+00
     -8.289  0.2301E-01  0.2301E-01  0.1233E+00  0.1233E+00
     -8.183  0.2390E-01  0.2390E-01  0.1259E+00  0.1259E+00
     -8.076  0.2577E-01  0.2577E-01  0.1286E+00  0.1286E+00
     -7.970  0.1984E-01  0.1984E-01  0.1307E+00  0.1307E+00
     -7.863  0.1460E-01  0.1460E-01  0.1323E+00  0.1323E+00
     -7.757  0.1364E-01  0.1364E-01  0.1338E+00  0.1338E+00
     -7.650  0.2072E-01  0.2072E-01  0.1360E+00  0.1360E+00
     -7.544  0.2072E-01  0.2072E-01  0.1382E+00  0.1382E+00
     -7.437  0.9753E-02  0.9753E-02  0.1392E+00  0.1392E+00
     -7.330  0.2785E-02  0.2785E-02  0.1395E+00  0.1395E+00
     -7.224  0.9082E-02  0.9082E-02  0.1405E+00  0.1405E+00
     -7.117  0.3194E-01  0.3194E-01  0.1439E+00  0.1439E+00
     -7.011  0.1632E-01  0.1632E-01  0.1456E+00  0.1456E+00
     -6.904  0.2161E-01  0.2161E-01  0.1479E+00  0.1479E+00
     -6.798  0.9596E-02  0.9596E-02  0.1489E+00  0.1489E+00
     -6.691  0.1100E-01  0.1100E-01  0.1501E+00  0.1501E+00
     -6.585  0.1222E-01  0.1222E-01  0.1514E+00  0.1514E+00
     -6.478  0.8446E-02  0.8446E-02  0.1523E+00  0.1523E+00
     -6.372  0.1398E-01  0.1398E-01  0.1538E+00  0.1538E+00
     -6.265  0.1282E-01  0.1282E-01  0.1552E+00  0.1552E+00
     -6.159  0.1779E-01  0.1779E-01  0.1571E+00  0.1571E+00
     -6.052  0.2498E-01  0.2498E-01  0.1597E+00  0.1597E+00
     -5.946  0.1349E-01  0.1349E-01  0.1612E+00  0.1612E+00
     -5.839  0.8771E-02  0.8771E-02  0.1621E+00  0.1621E+00
     -5.733  0.1662E-01  0.1662E-01  0.1639E+00  0.1639E+00
     -5.626  0.1593E-01  0.1593E-01  0.1656E+00  0.1656E+00
     -5.520  0.1211E-01  0.1211E-01  0.1668E+00  0.1668E+00
     -5.413  0.9360E-02  0.9360E-02  0.1678E+00  0.1678E+00
     -5.307  0.5177E-02  0.5177E-02  0.1684E+00  0.1684E+00
     -5.200  0.3410E-02  0.3410E-02  0.1688E+00  0.1688E+00
     -5.093  0.2170E-02  0.2170E-02  0.1690E+00  0.1690E+00
     -4.987  0.7000E-02  0.7000E-02  0.1697E+00  0.1697E+00
     -4.880  0.2548E-01  0.2548E-01  0.1724E+00  0.1724E+00
     -4.774  0.1429E-01  0.1429E-01  0.1740E+00  0.1740E+00
     -4.667  0.1366E-01  0.1366E-01  0.1754E+00  0.1754E+00
     -4.561  0.6001E-02  0.6001E-02  0.1761E+00  0.1761E+00
     -4.454  0.8815E-02  0.8815E-02  0.1770E+00  0.1770E+00
     -4.348  0.2306E-02  0.2306E-02  0.1772E+00  0.1772E+00
     -4.241  0.4446E-03  0.4446E-03  0.1773E+00  0.1773E+00
     -4.135  0.8334E-02  0.8334E-02  0.1782E+00  0.1782E+00
     -4.028  0.6585E-02  0.6585E-02  0.1789E+00  0.1789E+00
     -3.922  0.7447E-02  0.7447E-02  0.1797E+00  0.1797E+00
     -3.815  0.6725E-02  0.6725E-02  0.1804E+00  0.1804E+00
     -3.709  0.8200E-02  0.8200E-02  0.1813E+00  0.1813E+00
     -3.602  0.6259E-02  0.6259E-02  0.1819E+00  0.1819E+00
     -3.496  0.5975E-03  0.5975E-03  0.1820E+00  0.1820E+00
     -3.389  0.3490E-06  0.3490E-06  0.1820E+00  0.1820E+00
     -3.283  0.6274E-03  0.6274E-03  0.1821E+00  0.1821E+00
     -3.176  0.4862E-02  0.4862E-02  0.1826E+00  0.1826E+00
     -3.069  0.5466E-02  0.5466E-02  0.1832E+00  0.1832E+00
     -2.963  0.1244E-02  0.1244E-02  0.1833E+00  0.1833E+00
     -2.856  0.1846E-02  0.1846E-02  0.1835E+00  0.1835E+00
     -2.750  0.3550E-04  0.3550E-04  0.1835E+00  0.1835E+00
     -2.643  0.1212E-05  0.1212E-05  0.1835E+00  0.1835E+00
     -2.537  0.1514E-02  0.1514E-02  0.1837E+00  0.1837E+00
     -2.430  0.3153E-02  0.3153E-02  0.1840E+00  0.1840E+00
     -2.324  0.2507E-04  0.2507E-04  0.1840E+00  0.1840E+00
     -2.217  0.8499E-04  0.8499E-04  0.1840E+00  0.1840E+00
     -2.111  0.3764E-02  0.3764E-02  0.1844E+00  0.1844E+00
     -2.004  0.8443E-03  0.8443E-03  0.1845E+00  0.1845E+00
     -1.898  0.2029E-06  0.2029E-06  0.1845E+00  0.1845E+00
     -1.791  0.1550E-04  0.1550E-04  0.1845E+00  0.1845E+00
     -1.685  0.1931E-02  0.1931E-02  0.1847E+00  0.1847E+00
     -1.578  0.2829E-02  0.2829E-02  0.1850E+00  0.1850E+00
     -1.472  0.6747E-02  0.6747E-02  0.1857E+00  0.1857E+00
     -1.365  0.2556E-02  0.2556E-02  0.1860E+00  0.1860E+00
     -1.259  0.6776E-05  0.6776E-05  0.1860E+00  0.1860E+00
     -1.152  0.3037E-02  0.3037E-02  0.1863E+00  0.1863E+00
     -1.045  0.9533E-02  0.9533E-02  0.1873E+00  0.1873E+00
     -0.939  0.1544E-02  0.1544E-02  0.1875E+00  0.1875E+00
     -0.832  0.3722E-02  0.3722E-02  0.1879E+00  0.1879E+00
     -0.726  0.1510E-01  0.1510E-01  0.1895E+00  0.1895E+00
     -0.619  0.1273E-01  0.1273E-01  0.1909E+00  0.1909E+00
     -0.513  0.5129E-02  0.5129E-02  0.1914E+00  0.1914E+00
     -0.406  0.1111E-01  0.1111E-01  0.1926E+00  0.1926E+00
     -0.300  0.9220E-02  0.9220E-02  0.1936E+00  0.1936E+00
     -0.193  0.6123E-02  0.6123E-02  0.1942E+00  0.1942E+00
     -0.087  0.2813E-02  0.2813E-02  0.1945E+00  0.1945E+00
      0.020  0.1130E-01  0.1130E-01  0.1957E+00  0.1957E+00
      0.126  0.7989E-02  0.7989E-02  0.1966E+00  0.1966E+00
      0.233  0.1065E-01  0.1065E-01  0.1977E+00  0.1977E+00
      0.339  0.1189E-01  0.1189E-01  0.1990E+00  0.1990E+00
      0.446  0.8240E-02  0.8240E-02  0.1999E+00  0.1999E+00
      0.552  0.9248E-02  0.9248E-02  0.2008E+00  0.2008E+00
      0.659  0.1794E-02  0.1794E-02  0.2010E+00  0.2010E+00
      0.765  0.7263E-02  0.7263E-02  0.2018E+00  0.2018E+00
      0.872  0.7816E-02  0.7816E-02  0.2026E+00  0.2026E+00
      0.979  0.8747E-02  0.8747E-02  0.2036E+00  0.2036E+00
      1.085  0.9506E-02  0.9506E-02  0.2046E+00  0.2046E+00
      1.192  0.7906E-02  0.7906E-02  0.2054E+00  0.2054E+00
      1.298  0.7721E-02  0.7721E-02  0.2063E+00  0.2063E+00
      1.405  0.1113E-01  0.1113E-01  0.2074E+00  0.2074E+00
      1.511  0.1022E-01  0.1022E-01  0.2085E+00  0.2085E+00
      1.618  0.1714E-01  0.1714E-01  0.2104E+00  0.2104E+00
      1.724  0.1687E-01  0.1687E-01  0.2122E+00  0.2122E+00
      1.831  0.1362E-01  0.1362E-01  0.2136E+00  0.2136E+00
      1.937  0.1054E-01  0.1054E-01  0.2147E+00  0.2147E+00
      2.044  0.1689E-01  0.1689E-01  0.2165E+00  0.2165E+00
      2.150  0.2090E-01  0.2090E-01  0.2187E+00  0.2187E+00
      2.257  0.1634E-01  0.1634E-01  0.2205E+00  0.2205E+00
      2.363  0.1948E-01  0.1948E-01  0.2226E+00  0.2226E+00
      2.470  0.2695E-01  0.2695E-01  0.2254E+00  0.2254E+00
      2.576  0.9660E-02  0.9660E-02  0.2265E+00  0.2265E+00
      2.683  0.1310E-01  0.1310E-01  0.2279E+00  0.2279E+00
      2.789  0.2406E-01  0.2406E-01  0.2304E+00  0.2304E+00
      2.896  0.2810E-01  0.2810E-01  0.2334E+00  0.2334E+00
      3.002  0.2664E-01  0.2664E-01  0.2363E+00  0.2363E+00
      3.109  0.2347E-01  0.2347E-01  0.2388E+00  0.2388E+00
      3.216  0.2161E-01  0.2161E-01  0.2411E+00  0.2411E+00
      3.322  0.1991E-01  0.1991E-01  0.2432E+00  0.2432E+00
      3.429  0.2171E-01  0.2171E-01  0.2455E+00  0.2455E+00
      3.535  0.2522E-01  0.2522E-01  0.2482E+00  0.2482E+00
      3.642  0.1091E-01  0.1091E-01  0.2493E+00  0.2493E+00
      3.748  0.2237E-01  0.2237E-01  0.2517E+00  0.2517E+00
      3.855  0.2653E-01  0.2653E-01  0.2546E+00  0.2546E+00
      3.961  0.2053E-01  0.2053E-01  0.2567E+00  0.2567E+00
      4.068  0.2030E-01  0.2030E-01  0.2589E+00  0.2589E+00
      4.174  0.1383E-01  0.1383E-01  0.2604E+00  0.2604E+00
      4.281  0.2952E-01  0.2952E-01  0.2635E+00  0.2635E+00
      4.387  0.3477E-01  0.3477E-01  0.2672E+00  0.2672E+00
      4.494  0.2979E-01  0.2979E-01  0.2704E+00  0.2704E+00
      4.600  0.2588E-01  0.2588E-01  0.2732E+00  0.2732E+00
      4.707  0.2172E-01  0.2172E-01  0.2755E+00  0.2755E+00
      4.813  0.2679E-01  0.2679E-01  0.2783E+00  0.2783E+00
      4.920  0.1560E-01  0.1560E-01  0.2800E+00  0.2800E+00
      5.026  0.1645E-03  0.1645E-03  0.2800E+00  0.2800E+00
      5.133  0.1526E-08  0.1526E-08  0.2800E+00  0.2800E+00
      5.240  0.3127E-17  0.3127E-17  0.2800E+00  0.2800E+00
      5.346  0.0000E+00  0.0000E+00  0.2800E+00  0.2800E+00
      5.453  0.0000E+00  0.0000E+00  0.2800E+00  0.2800E+00
      5.559  0.0000E+00  0.0000E+00  0.2800E+00  0.2800E+00
      5.666  0.0000E+00  0.0000E+00  0.2800E+00  0.2800E+00
      5.772  0.0000E+00  0.0000E+00  0.2800E+00  0.2800E+00
      5.879  0.0000E+00  0.0000E+00  0.2800E+00  0.2800E+00
      5.985  0.0000E+00  0.0000E+00  0.2800E+00  0.2800E+00
      6.092  0.0000E+00  0.0000E+00  0.2800E+00  0.2800E+00
      6.198  0.0000E+00  0.0000E+00  0.2800E+00  0.2800E+00
      6.305  0.0000E+00  0.0000E+00  0.2800E+00  0.2800E+00
