       N       E                     dE             d eps       ncg     rms          rms(c)
DAV:   1     0.318424007800E+04    0.31842E+04   -0.13425E+05  4720   0.963E+02
DAV:   2    -0.302214104609E+03   -0.34865E+04   -0.32891E+04  6940   0.244E+02
DAV:   3    -0.877982824357E+03   -0.57577E+03   -0.57318E+03  5580   0.103E+02
DAV:   4    -0.897825560854E+03   -0.19843E+02   -0.19775E+02  5700   0.243E+01
DAV:   5    -0.898420507258E+03   -0.59495E+00   -0.59418E+00  6560   0.374E+00    0.523E+01
DAV:   6    -0.737316060199E+03    0.16110E+03   -0.17124E+02  5360   0.188E+01    0.291E+01
DAV:   7    -0.780619899367E+03   -0.43304E+02   -0.65645E+01  5020   0.118E+01    0.142E+01
DAV:   8    -0.809938540113E+03   -0.29319E+02   -0.21161E+01  5300   0.674E+00    0.739E+00
DAV:   9    -0.827511518464E+03   -0.17573E+02   -0.69817E+00  5160   0.362E+00    0.429E+00
DAV:  10    -0.840292503213E+03   -0.12781E+02   -0.46950E+00  5020   0.257E+00    0.231E+00
DAV:  11    -0.846847113315E+03   -0.65546E+01   -0.25542E+00  4960   0.176E+00    0.137E+00
DAV:  12    -0.849828012968E+03   -0.29809E+01   -0.11688E+00  4820   0.120E+00    0.729E-01
DAV:  13    -0.851288030174E+03   -0.14600E+01   -0.43032E-01  5260   0.716E-01    0.225E-01
DAV:  14    -0.851520249955E+03   -0.23222E+00   -0.45878E-02  5140   0.248E-01    0.116E-01
DAV:  15    -0.851531327373E+03   -0.11077E-01   -0.84252E-03  5060   0.112E-01    0.807E-02
DAV:  16    -0.851544456443E+03   -0.13129E-01   -0.27369E-03  4820   0.820E-02    0.602E-02
DAV:  17    -0.851572386002E+03   -0.27930E-01   -0.30768E-03  4960   0.708E-02    0.434E-02
DAV:  18    -0.851582306850E+03   -0.99208E-02   -0.10593E-03  4940   0.468E-02    0.306E-02
DAV:  19    -0.851586394088E+03   -0.40872E-02   -0.31467E-04  5020   0.313E-02    0.180E-02
DAV:  20    -0.851588443777E+03   -0.20497E-02   -0.11318E-04  5020   0.200E-02    0.971E-03
DAV:  21    -0.851589351930E+03   -0.90815E-03   -0.27211E-05  4980   0.118E-02    0.458E-03
DAV:  22    -0.851589762268E+03   -0.41034E-03   -0.10608E-05  4700   0.727E-03    0.242E-03
DAV:  23    -0.851589910660E+03   -0.14839E-03   -0.35392E-06  4640   0.477E-03    0.146E-03
DAV:  24    -0.851590005431E+03   -0.94771E-04   -0.19543E-06  4300   0.311E-03    0.881E-04
DAV:  25    -0.851590043026E+03   -0.37595E-04   -0.11074E-06  4060   0.202E-03    0.576E-04
DAV:  26    -0.851590051380E+03   -0.83543E-05   -0.29005E-07  3660   0.115E-03    0.470E-04
DAV:  27    -0.851590057290E+03   -0.59098E-05   -0.14343E-07  3540   0.661E-04    0.385E-04
DAV:  28    -0.851590058612E+03   -0.13218E-05   -0.68582E-08  3660   0.438E-04    0.372E-04
DAV:  29    -0.851590059243E+03   -0.63118E-06   -0.19973E-08  3780   0.243E-04
   1 F= -.85945995E+03 E0= -.85945995E+03  d E =-.859460E+03  mag=     0.0000
       N       E                     dE             d eps       ncg     rms          rms(c)
DAV:   1    -0.851590864676E+03   -0.80606E-03   -0.13431E-01  4800   0.515E-01    0.931E-02
DAV:   2    -0.851591067243E+03   -0.20257E-03   -0.24874E-03  5040   0.646E-02    0.537E-02
DAV:   3    -0.851591054838E+03    0.12405E-04   -0.85970E-05  5100   0.183E-02    0.269E-02
DAV:   4    -0.851591065335E+03   -0.10498E-04   -0.25971E-05  4880   0.880E-03    0.941E-03
DAV:   5    -0.851591065744E+03   -0.40895E-06   -0.49495E-06  4660   0.466E-03    0.285E-03
DAV:   6    -0.851591066010E+03   -0.26572E-06   -0.85624E-07  4180   0.165E-03
   2 F= -.85946077E+03 E0= -.85946077E+03  d E =-.824559E-03  mag=     0.0000
       N       E                     dE             d eps       ncg     rms          rms(c)
DAV:   1    -0.851590775247E+03    0.29050E-03   -0.50575E-01  4600   0.904E-01    0.179E-01
DAV:   2    -0.851591532034E+03   -0.75679E-03   -0.90155E-03  5040   0.108E-01    0.993E-02
DAV:   3    -0.851591499478E+03    0.32555E-04   -0.21156E-04  5020   0.279E-02    0.509E-02
DAV:   4    -0.851591541807E+03   -0.42329E-04   -0.98430E-05  4840   0.156E-02    0.153E-02
DAV:   5    -0.851591542086E+03   -0.27881E-06   -0.20630E-05  5080   0.899E-03    0.498E-03
DAV:   6    -0.851591543179E+03   -0.10933E-05   -0.27241E-06  4540   0.290E-03    0.249E-03
DAV:   7    -0.851591543876E+03   -0.69683E-06   -0.27925E-07  3640   0.113E-03
   3 F= -.85946089E+03 E0= -.85946089E+03  d E =-.117511E-03  mag=     0.0000
       N       E                     dE             d eps       ncg     rms          rms(c)
DAV:   1    -0.851590663926E+03    0.87925E-03   -0.11427E+00  4480   0.126E+00    0.264E-01
DAV:   2    -0.851592359518E+03   -0.16956E-02   -0.20457E-02  5000   0.148E-01    0.141E-01
DAV:   3    -0.851592292553E+03    0.66965E-04   -0.33318E-04  5020   0.322E-02    0.745E-02
DAV:   4    -0.851592376377E+03   -0.83824E-04   -0.23760E-04  4820   0.217E-02    0.180E-02
DAV:   5    -0.851592376034E+03    0.34330E-06   -0.52173E-05  5080   0.127E-02    0.701E-03
DAV:   6    -0.851592377578E+03   -0.15436E-05   -0.50401E-06  4660   0.393E-03    0.401E-03
DAV:   7    -0.851592379171E+03   -0.15928E-05   -0.75167E-07  4200   0.158E-03    0.146E-03
DAV:   8    -0.851592380236E+03   -0.10653E-05   -0.56114E-07  4500   0.126E-03    0.766E-04
DAV:   9    -0.851592381138E+03   -0.90218E-06   -0.11196E-07  3480   0.795E-04
   4 F= -.85946120E+03 E0= -.85946120E+03  d E =-.307708E-03  mag=     0.0000
       N       E                     dE             d eps       ncg     rms          rms(c)
DAV:   1    -0.851591292975E+03    0.10873E-02   -0.19773E+00  4480   0.160E+00    0.344E-01
DAV:   2    -0.851594148487E+03   -0.28555E-02   -0.36044E-02  5040   0.190E-01    0.177E-01
DAV:   3    -0.851594033737E+03    0.11475E-03   -0.52818E-04  5040   0.362E-02    0.954E-02
DAV:   4    -0.851594148062E+03   -0.11433E-03   -0.42962E-04  4760   0.267E-02    0.201E-02
DAV:   5    -0.851594147701E+03    0.36123E-06   -0.91896E-05  5080   0.146E-02    0.891E-03
DAV:   6    -0.851594148692E+03   -0.99128E-06   -0.48182E-06  4800   0.339E-03
   5 F= -.85946229E+03 E0= -.85946229E+03  d E =-.109094E-02  mag=     0.0000
       N       E                     dE             d eps       ncg     rms          rms(c)
DAV:   1    -0.851592510751E+03    0.16370E-02   -0.22833E+00  4480   0.170E+00    0.371E-01
DAV:   2    -0.851595874625E+03   -0.33639E-02   -0.42213E-02  5020   0.202E-01    0.189E-01
DAV:   3    -0.851595753381E+03    0.12124E-03   -0.61280E-04  5160   0.382E-02    0.102E-01
DAV:   4    -0.851595884114E+03   -0.13073E-03   -0.49124E-04  4720   0.283E-02    0.206E-02
DAV:   5    -0.851595885403E+03   -0.12891E-05   -0.99686E-05  5000   0.150E-02    0.929E-03
DAV:   6    -0.851595887091E+03   -0.16877E-05   -0.53331E-06  4640   0.367E-03    0.662E-03
DAV:   7    -0.851595891977E+03   -0.48857E-05   -0.45506E-06  4400   0.371E-03    0.278E-03
DAV:   8    -0.851595892492E+03   -0.51518E-06   -0.13174E-06  4540   0.294E-03
   6 F= -.85946326E+03 E0= -.85946326E+03  d E =-.974904E-03  mag=     0.0000
       N       E                     dE             d eps       ncg     rms          rms(c)
DAV:   1    -0.851595965948E+03   -0.73971E-04   -0.15559E+00  4480   0.149E+00    0.310E-01
DAV:   2    -0.851598476582E+03   -0.25106E-02   -0.29228E-02  4800   0.181E-01    0.165E-01
DAV:   3    -0.851598402166E+03    0.74415E-04   -0.47330E-04  5120   0.387E-02    0.870E-02
DAV:   4    -0.851598516547E+03   -0.11438E-03   -0.34554E-04  4680   0.264E-02    0.201E-02
DAV:   5    -0.851598518336E+03   -0.17892E-05   -0.75524E-05  5080   0.151E-02    0.857E-03
DAV:   6    -0.851598520780E+03   -0.24439E-05   -0.69719E-06  4720   0.546E-03    0.494E-03
DAV:   7    -0.851598526217E+03   -0.54374E-05   -0.26528E-06  4520   0.401E-03    0.234E-03
DAV:   8    -0.851598528690E+03   -0.24728E-05   -0.25721E-06  4560   0.432E-03    0.841E-04
DAV:   9    -0.851598530615E+03   -0.19248E-05   -0.99907E-07  4260   0.273E-03    0.769E-04
DAV:  10    -0.851598534848E+03   -0.42330E-05   -0.25228E-07  3640   0.122E-03    0.546E-04
DAV:  11    -0.851598538414E+03   -0.35658E-05   -0.10536E-07  3460   0.474E-04    0.495E-04
DAV:  12    -0.851598540727E+03   -0.23134E-05   -0.69730E-08  3460   0.459E-04    0.452E-04
DAV:  13    -0.851598541597E+03   -0.86975E-06   -0.39117E-08  3680   0.393E-04
   7 F= -.85946517E+03 E0= -.85946517E+03  d E =-.191275E-02  mag=    -0.0000
       N       E                     dE             d eps       ncg     rms          rms(c)
DAV:   1    -0.851598740830E+03   -0.20010E-03   -0.18452E-03  4780   0.652E-02    0.104E-02
DAV:   2    -0.851598742903E+03   -0.20730E-05   -0.35649E-05  5240   0.887E-03    0.551E-03
DAV:   3    -0.851598742801E+03    0.10127E-06   -0.13203E-06  4200   0.214E-03    0.311E-03
DAV:   4    -0.851598743020E+03   -0.21817E-06   -0.45604E-07  3800   0.121E-03    0.975E-04
DAV:   5    -0.851598743123E+03   -0.10361E-06   -0.80110E-08  3400   0.582E-04    0.543E-04
DAV:   6    -0.851598743161E+03   -0.38119E-07   -0.20617E-08  3360   0.295E-04
   8 F= -.85946538E+03 E0= -.85946538E+03  d E =-.209213E-03  mag=    -0.0000
       N       E                     dE             d eps       ncg     rms          rms(c)
DAV:   1    -0.851599045564E+03   -0.30244E-03   -0.63690E-03  4640   0.118E-01    0.194E-02
DAV:   2    -0.851599052182E+03   -0.66175E-05   -0.12053E-04  5060   0.159E-02    0.101E-02
DAV:   3    -0.851599051485E+03    0.69644E-06   -0.44016E-06  4580   0.383E-03    0.571E-03
DAV:   4    -0.851599051731E+03   -0.24617E-06   -0.14888E-06  4200   0.207E-03    0.173E-03
DAV:   5    -0.851599051821E+03   -0.89669E-07   -0.22979E-07  3620   0.994E-04    0.760E-04
DAV:   6    -0.851599051847E+03   -0.25568E-07   -0.60382E-08  3360   0.499E-04
   9 F= -.85946571E+03 E0= -.85946571E+03  d E =-.322455E-03  mag=    -0.0000
       N       E                     dE             d eps       ncg     rms          rms(c)
DAV:   1    -0.851599358487E+03   -0.30667E-03   -0.11010E-02  4640   0.148E-01    0.255E-02
DAV:   2    -0.851599369706E+03   -0.11219E-04   -0.19823E-04  4840   0.195E-02    0.131E-02
DAV:   3    -0.851599368691E+03    0.10151E-05   -0.65022E-06  4820   0.461E-03    0.740E-03
DAV:   4    -0.851599369215E+03   -0.52399E-06   -0.25546E-06  4240   0.262E-03    0.214E-03
DAV:   5    -0.851599369350E+03   -0.13435E-06   -0.41701E-07  3960   0.142E-03    0.925E-04
DAV:   6    -0.851599369393E+03   -0.43059E-07   -0.11518E-07  3280   0.778E-04
  10 F= -.85946604E+03 E0= -.85946604E+03  d E =-.334754E-03  mag=    -0.0000
       N       E                     dE             d eps       ncg     rms          rms(c)
DAV:   1    -0.851599660922E+03   -0.29157E-03   -0.14158E-02  4640   0.154E-01    0.287E-02
DAV:   2    -0.851599674971E+03   -0.14049E-04   -0.23576E-04  4880   0.193E-02    0.146E-02
DAV:   3    -0.851599674008E+03    0.96339E-06   -0.62925E-06  4620   0.449E-03    0.823E-03
DAV:   4    -0.851599674995E+03   -0.98688E-06   -0.36119E-06  4200   0.310E-03    0.226E-03
DAV:   5    -0.851599675162E+03   -0.16703E-06   -0.87233E-07  4200   0.225E-03    0.102E-03
DAV:   6    -0.851599675135E+03    0.26659E-07   -0.26449E-07  3620   0.128E-03
  11 F= -.85946636E+03 E0= -.85946636E+03  d E =-.323286E-03  mag=    -0.0000
       N       E                     dE             d eps       ncg     rms          rms(c)
DAV:   1    -0.851599961630E+03   -0.28647E-03   -0.15322E-02  4560   0.150E-01    0.296E-02
DAV:   2    -0.851599976818E+03   -0.15188E-04   -0.23642E-04  4900   0.176E-02    0.151E-02
DAV:   3    -0.851599976006E+03    0.81227E-06   -0.52142E-06  4480   0.403E-03    0.852E-03
DAV:   4    -0.851599977358E+03   -0.13523E-05   -0.41753E-06  4280   0.332E-03    0.230E-03
DAV:   5    -0.851599977643E+03   -0.28501E-06   -0.14612E-06  4220   0.304E-03    0.102E-03
DAV:   6    -0.851599977425E+03    0.21866E-06   -0.45817E-07  3800   0.172E-03
  12 F= -.85946668E+03 E0= -.85946668E+03  d E =-.315729E-03  mag=    -0.0000
       N       E                     dE             d eps       ncg     rms          rms(c)
DAV:   1    -0.851600275914E+03   -0.29827E-03   -0.14473E-02  4560   0.152E-01    0.283E-02
DAV:   2    -0.851600291245E+03   -0.15331E-04   -0.21866E-04  4800   0.178E-02    0.153E-02
DAV:   3    -0.851600290372E+03    0.87319E-06   -0.50102E-06  4440   0.408E-03    0.851E-03
DAV:   4    -0.851600291662E+03   -0.12906E-05   -0.40019E-06  4380   0.339E-03    0.228E-03
DAV:   5    -0.851600292112E+03   -0.44952E-06   -0.15953E-06  4280   0.321E-03    0.101E-03
DAV:   6    -0.851600291827E+03    0.28450E-06   -0.49524E-07  3800   0.184E-03
  13 F= -.85946700E+03 E0= -.85946700E+03  d E =-.319700E-03  mag=    -0.0000
       N       E                     dE             d eps       ncg     rms          rms(c)
DAV:   1    -0.851600590940E+03   -0.29883E-03   -0.15568E-02  4560   0.173E-01    0.286E-02
DAV:   2    -0.851600609259E+03   -0.18318E-04   -0.24031E-04  4720   0.210E-02    0.165E-02
DAV:   3    -0.851600608125E+03    0.11334E-05   -0.69338E-06  4840   0.502E-03    0.897E-03
DAV:   4    -0.851600609253E+03   -0.11282E-05   -0.40065E-06  4360   0.370E-03    0.238E-03
DAV:   5    -0.851600609739E+03   -0.48528E-06   -0.15472E-06  4240   0.321E-03    0.112E-03
DAV:   6    -0.851600609533E+03    0.20588E-06   -0.51517E-07  3760   0.192E-03
  14 F= -.85946731E+03 E0= -.85946731E+03  d E =-.309935E-03  mag=    -0.0000
       N       E                     dE             d eps       ncg     rms          rms(c)
DAV:   1    -0.851600895204E+03   -0.28547E-03   -0.16421E-02  4560   0.178E-01    0.279E-02
DAV:   2    -0.851600916346E+03   -0.21142E-04   -0.25399E-04  4960   0.213E-02    0.164E-02
DAV:   3    -0.851600915763E+03    0.58369E-06   -0.70379E-06  4740   0.523E-03    0.877E-03
DAV:   4    -0.851600917067E+03   -0.13043E-05   -0.39270E-06  4360   0.396E-03    0.215E-03
DAV:   5    -0.851600917624E+03   -0.55685E-06   -0.17681E-06  4360   0.355E-03    0.120E-03
DAV:   6    -0.851600917363E+03    0.26113E-06   -0.71793E-07  3680   0.236E-03
  15 F= -.85946759E+03 E0= -.85946759E+03  d E =-.281357E-03  mag=    -0.0000
       N       E                     dE             d eps       ncg     rms          rms(c)
DAV:   1    -0.851601259684E+03   -0.34206E-03   -0.21359E-02  4520   0.191E-01    0.305E-02
DAV:   2    -0.851601289403E+03   -0.29719E-04   -0.33687E-04  4960   0.220E-02    0.176E-02
DAV:   3    -0.851601289654E+03   -0.25033E-06   -0.68058E-06  4760   0.507E-03    0.934E-03
DAV:   4    -0.851601291546E+03   -0.18921E-05   -0.43347E-06  4260   0.405E-03    0.190E-03
DAV:   5    -0.851601292027E+03   -0.48133E-06   -0.17286E-06  4380   0.340E-03    0.129E-03
DAV:   6    -0.851601292087E+03   -0.59772E-07   -0.89316E-07  3800   0.266E-03
  16 F= -.85946792E+03 E0= -.85946792E+03  d E =-.330747E-03  mag=    -0.0000
       N       E                     dE             d eps       ncg     rms          rms(c)
DAV:   1    -0.851601750040E+03   -0.45801E-03   -0.34596E-02  4480   0.243E-01    0.391E-02
DAV:   2    -0.851601800708E+03   -0.50667E-04   -0.59081E-04  4960   0.286E-02    0.221E-02
DAV:   3    -0.851601800885E+03   -0.17713E-06   -0.10844E-05  4720   0.602E-03    0.119E-02
DAV:   4    -0.851601803707E+03   -0.28226E-05   -0.62811E-06  4300   0.439E-03    0.219E-03
DAV:   5    -0.851601804130E+03   -0.42297E-06   -0.15969E-06  4060   0.273E-03    0.150E-03
DAV:   6    -0.851601804416E+03   -0.28534E-06   -0.53803E-07  3740   0.205E-03
  17 F= -.85946837E+03 E0= -.85946837E+03  d E =-.448918E-03  mag=    -0.0000
       N       E                     dE             d eps       ncg     rms          rms(c)
DAV:   1    -0.851602402990E+03   -0.59886E-03   -0.59636E-02  4480   0.309E-01    0.524E-02
DAV:   2    -0.851602490558E+03   -0.87568E-04   -0.10559E-03  4840   0.367E-02    0.288E-02
DAV:   3    -0.851602490239E+03    0.31893E-06   -0.17224E-05  4840   0.739E-03    0.158E-02
DAV:   4    -0.851602495695E+03   -0.54562E-05   -0.11610E-05  4400   0.559E-03    0.306E-03
DAV:   5    -0.851602496195E+03   -0.49949E-06   -0.30740E-06  4280   0.378E-03    0.182E-03
DAV:   6    -0.851602496130E+03    0.64829E-07   -0.67265E-07  3880   0.225E-03
  18 F= -.85946898E+03 E0= -.85946898E+03  d E =-.605762E-03  mag=    -0.0000
       N       E                     dE             d eps       ncg     rms          rms(c)
DAV:   1    -0.851603319857E+03   -0.82366E-03   -0.10623E-01  4480   0.388E-01    0.704E-02
DAV:   2    -0.851603475052E+03   -0.15519E-03   -0.18860E-03  4680   0.453E-02    0.378E-02
DAV:   3    -0.851603472050E+03    0.30017E-05   -0.26308E-05  4840   0.884E-03    0.210E-02
DAV:   4    -0.851603482657E+03   -0.10607E-04   -0.22604E-05  4580   0.741E-03    0.432E-03
DAV:   5    -0.851603484167E+03   -0.15107E-05   -0.78358E-06  4520   0.654E-03    0.229E-03
DAV:   6    -0.851603482741E+03    0.14265E-05   -0.21366E-06  4400   0.408E-03    0.157E-03
DAV:   7    -0.851603483897E+03   -0.11561E-05   -0.12616E-06  4200   0.314E-03    0.101E-03
DAV:   8    -0.851603483378E+03    0.51836E-06   -0.65897E-07  3880   0.230E-03
  19 F= -.85946985E+03 E0= -.85946985E+03  d E =-.872199E-03  mag=     0.0000
       N       E                     dE             d eps       ncg     rms          rms(c)
DAV:   1    -0.851604413239E+03   -0.92934E-03   -0.17973E-01  4480   0.504E-01    0.916E-02
DAV:   2    -0.851604679826E+03   -0.26659E-03   -0.32162E-03  4720   0.594E-02    0.497E-02
DAV:   3    -0.851604669011E+03    0.10815E-04   -0.45595E-05  4920   0.112E-02    0.277E-02
DAV:   4    -0.851604683264E+03   -0.14253E-04   -0.38088E-05  4800   0.848E-03    0.590E-03
DAV:   5    -0.851604683912E+03   -0.64885E-06   -0.82403E-06  4440   0.441E-03    0.288E-03
DAV:   6    -0.851604684194E+03   -0.28124E-06   -0.44466E-07  4280   0.114E-03
  20 F= -.85947090E+03 E0= -.85947090E+03  d E =-.105205E-02  mag=     0.0000
       N       E                     dE             d eps       ncg     rms          rms(c)
DAV:   1    -0.851605610638E+03   -0.92673E-03   -0.26206E-01  4480   0.598E-01    0.112E-01
DAV:   2    -0.851605996123E+03   -0.38548E-03   -0.46147E-03  4680   0.696E-02    0.602E-02
DAV:   3    -0.851605979926E+03    0.16196E-04   -0.62897E-05  4920   0.129E-02    0.335E-02
DAV:   4    -0.851605997340E+03   -0.17414E-04   -0.54357E-05  4800   0.997E-03    0.715E-03
DAV:   5    -0.851605998791E+03   -0.14514E-05   -0.13187E-05  4680   0.601E-03    0.355E-03
DAV:   6    -0.851605999000E+03   -0.20852E-06   -0.96604E-07  4440   0.203E-03
  21 F= -.85947203E+03 E0= -.85947203E+03  d E =-.113209E-02  mag=    -0.0000
       N       E                     dE             d eps       ncg     rms          rms(c)
DAV:   1    -0.851606896891E+03   -0.89810E-03   -0.34730E-01  4480   0.707E-01    0.131E-01
DAV:   2    -0.851607410028E+03   -0.51314E-03   -0.61199E-03  4680   0.833E-02    0.703E-02
DAV:   3    -0.851607390028E+03    0.20000E-04   -0.89167E-05  4960   0.159E-02    0.389E-02
DAV:   4    -0.851607411165E+03   -0.21138E-04   -0.71580E-05  4640   0.123E-02    0.819E-03
DAV:   5    -0.851607414496E+03   -0.33304E-05   -0.19183E-05  4800   0.899E-03    0.397E-03
DAV:   6    -0.851607413349E+03    0.11466E-05   -0.29952E-06  4520   0.454E-03    0.275E-03
DAV:   7    -0.851607418730E+03   -0.53805E-05   -0.37158E-06  4440   0.522E-03    0.167E-03
DAV:   8    -0.851607416556E+03    0.21737E-05   -0.26736E-06  4500   0.467E-03    0.881E-04
DAV:   9    -0.851607417604E+03   -0.10482E-05   -0.23121E-07  3940   0.104E-03    0.619E-04
DAV:  10    -0.851607419569E+03   -0.19644E-05   -0.13022E-07  3360   0.709E-04    0.445E-04
DAV:  11    -0.851607420659E+03   -0.10901E-05   -0.63574E-08  3600   0.342E-04    0.382E-04
DAV:  12    -0.851607421390E+03   -0.73096E-06   -0.36985E-08  3440   0.375E-04
  22 F= -.85947325E+03 E0= -.85947325E+03  d E =-.121774E-02  mag=     0.0000
       N       E                     dE             d eps       ncg     rms          rms(c)
DAV:   1    -0.851608459019E+03   -0.10384E-02   -0.40241E-01  4480   0.770E-01    0.140E-01
DAV:   2    -0.851609067772E+03   -0.60875E-03   -0.70664E-03  4760   0.904E-02    0.769E-02
DAV:   3    -0.851609051718E+03    0.16054E-04   -0.10324E-04  4920   0.170E-02    0.423E-02
DAV:   4    -0.851609077580E+03   -0.25862E-04   -0.82765E-05  4760   0.128E-02    0.849E-03
DAV:   5    -0.851609078676E+03   -0.10957E-05   -0.18862E-05  5080   0.673E-03    0.426E-03
DAV:   6    -0.851609079120E+03   -0.44476E-06   -0.93476E-07  4400   0.147E-03
  23 F= -.85947469E+03 E0= -.85947469E+03  d E =-.143441E-02  mag=     0.0000
       N       E                     dE             d eps       ncg     rms          rms(c)
DAV:   1    -0.851610348447E+03   -0.12698E-02   -0.46706E-01  4480   0.842E-01    0.148E-01
DAV:   2    -0.851611062546E+03   -0.71410E-03   -0.80573E-03  4960   0.986E-02    0.840E-02
DAV:   3    -0.851611051531E+03    0.11015E-04   -0.12595E-04  5080   0.193E-02    0.455E-02
DAV:   4    -0.851611084340E+03   -0.32809E-04   -0.92829E-05  4720   0.143E-02    0.856E-03
DAV:   5    -0.851611087163E+03   -0.28226E-05   -0.19208E-05  4960   0.674E-03    0.465E-03
DAV:   6    -0.851611088596E+03   -0.14334E-05   -0.95417E-07  4480   0.168E-03    0.285E-03
DAV:   7    -0.851611091736E+03   -0.31401E-05   -0.88960E-07  4200   0.165E-03    0.138E-03
DAV:   8    -0.851611092267E+03   -0.53114E-06   -0.29579E-07  4200   0.130E-03
  24 F= -.85947646E+03 E0= -.85947646E+03  d E =-.177707E-02  mag=     0.0000
       N       E                     dE             d eps       ncg     rms          rms(c)
DAV:   1    -0.851612539433E+03   -0.14477E-02   -0.51284E-01  4480   0.923E-01    0.158E-01
DAV:   2    -0.851613287943E+03   -0.74851E-03   -0.83965E-03  4880   0.108E-01    0.908E-02
DAV:   3    -0.851613295325E+03   -0.73815E-05   -0.16066E-04  5080   0.226E-02    0.468E-02
DAV:   4    -0.851613334495E+03   -0.39170E-04   -0.82869E-05  4800   0.149E-02    0.859E-03
DAV:   5    -0.851613338653E+03   -0.41577E-05   -0.15655E-05  5060   0.669E-03    0.489E-03
DAV:   6    -0.851613341380E+03   -0.27270E-05   -0.16310E-06  4420   0.309E-03    0.230E-03
DAV:   7    -0.851613345511E+03   -0.41315E-05   -0.18197E-06  4580   0.360E-03    0.881E-04
DAV:   8    -0.851613346103E+03   -0.59141E-06   -0.11872E-06  4520   0.306E-03
  25 F= -.85947849E+03 E0= -.85947849E+03  d E =-.202724E-02  mag=     0.0000
       N       E                     dE             d eps       ncg     rms          rms(c)
DAV:   1    -0.851614277119E+03   -0.93161E-03   -0.65874E-01  4480   0.110E+00    0.180E-01
DAV:   2    -0.851615291259E+03   -0.10141E-02   -0.11485E-02  4960   0.135E-01    0.110E-01
DAV:   3    -0.851615282243E+03    0.90168E-05   -0.26867E-04  5240   0.298E-02    0.569E-02
DAV:   4    -0.851615331595E+03   -0.49352E-04   -0.13549E-04  4760   0.187E-02    0.112E-02
DAV:   5    -0.851615337136E+03   -0.55412E-05   -0.21822E-05  5040   0.732E-03    0.633E-03
DAV:   6    -0.851615340472E+03   -0.33353E-05   -0.20022E-06  4400   0.303E-03    0.262E-03
DAV:   7    -0.851615344652E+03   -0.41804E-05   -0.16440E-06  4480   0.328E-03    0.869E-04
DAV:   8    -0.851615345914E+03   -0.12624E-05   -0.11814E-06  4600   0.306E-03    0.661E-04
DAV:   9    -0.851615347978E+03   -0.20639E-05   -0.44230E-07  3720   0.178E-03    0.431E-04
DAV:  10    -0.851615349455E+03   -0.14771E-05   -0.13934E-07  3640   0.865E-04    0.316E-04
DAV:  11    -0.851615350817E+03   -0.13616E-05   -0.50971E-08  3320   0.316E-04    0.271E-04
DAV:  12    -0.851615351684E+03   -0.86759E-06   -0.32828E-08  3520   0.295E-04
  26 F= -.85948024E+03 E0= -.85948024E+03  d E =-.175368E-02  mag=    -0.0000
       N       E                     dE             d eps       ncg     rms          rms(c)
DAV:   1    -0.851614696825E+03    0.65399E-03   -0.80345E-01  4480   0.142E+00    0.211E-01
DAV:   2    -0.851615814113E+03   -0.11173E-02   -0.14409E-02  4920   0.185E-01    0.134E-01
DAV:   3    -0.851615779420E+03    0.34692E-04   -0.72777E-04  5160   0.509E-02    0.627E-02
DAV:   4    -0.851615820445E+03   -0.41025E-04   -0.13595E-04  4880   0.210E-02    0.193E-02
DAV:   5    -0.851615830692E+03   -0.10247E-04   -0.15863E-05  5120   0.692E-03    0.694E-03
DAV:   6    -0.851615835155E+03   -0.44635E-05   -0.14830E-06  4240   0.243E-03    0.306E-03
DAV:   7    -0.851615839365E+03   -0.42094E-05   -0.70709E-07  4080   0.151E-03    0.101E-03
DAV:   8    -0.851615843112E+03   -0.37476E-05   -0.32553E-07  3780   0.952E-04    0.745E-04
DAV:   9    -0.851615846356E+03   -0.32442E-05   -0.16136E-07  3500   0.709E-04    0.420E-04
DAV:  10    -0.851615848439E+03   -0.20824E-05   -0.16530E-07  3540   0.819E-04    0.329E-04
DAV:  11    -0.851615849578E+03   -0.11390E-05   -0.11085E-07  3540   0.702E-04    0.293E-04
DAV:  12    -0.851615850566E+03   -0.98843E-06   -0.49441E-08  3320   0.307E-04
  27 F= -.85948057E+03 E0= -.85948057E+03  d E =-.329112E-03  mag=    -0.0000
       N       E                     dE             d eps       ncg     rms          rms(c)
DAV:   1    -0.851618280875E+03   -0.24313E-02   -0.12772E-01  4720   0.664E-01    0.813E-02
DAV:   2    -0.851618462851E+03   -0.18198E-03   -0.32394E-03  5160   0.967E-02    0.565E-02
DAV:   3    -0.851618417481E+03    0.45370E-04   -0.19247E-04  5000   0.253E-02    0.307E-02
DAV:   4    -0.851618410399E+03    0.70824E-05   -0.33089E-05  4880   0.100E-02    0.116E-02
DAV:   5    -0.851618410451E+03   -0.52205E-07   -0.59961E-06  5060   0.497E-03    0.255E-03
DAV:   6    -0.851618410592E+03   -0.14067E-06   -0.13523E-06  4120   0.212E-03
  28 F= -.85948310E+03 E0= -.85948310E+03  d E =-.252904E-02  mag=    -0.0000
       N       E                     dE             d eps       ncg     rms          rms(c)
DAV:   1    -0.851616779634E+03    0.16308E-02   -0.12519E-01  4560   0.642E-01    0.813E-02
DAV:   2    -0.851616954492E+03   -0.17486E-03   -0.30671E-03  5200   0.929E-02    0.542E-02
DAV:   3    -0.851616915402E+03    0.39089E-04   -0.16883E-04  5160   0.237E-02    0.300E-02
DAV:   4    -0.851616909239E+03    0.61627E-05   -0.32990E-05  5120   0.101E-02    0.107E-02
DAV:   5    -0.851616909722E+03   -0.48218E-06   -0.55412E-06  5120   0.469E-03    0.268E-03
DAV:   6    -0.851616909953E+03   -0.23104E-06   -0.11062E-06  4120   0.196E-03
  29 F= -.85948155E+03 E0= -.85948155E+03  d E =0.155123E-02  mag=    -0.0000
       N       E                     dE             d eps       ncg     rms          rms(c)
DAV:   1    -0.851617754958E+03   -0.84524E-03   -0.59724E-03  4920   0.146E-01    0.177E-02
DAV:   2    -0.851617762981E+03   -0.80231E-05   -0.15112E-04  4800   0.212E-02    0.126E-02
DAV:   3    -0.851617760835E+03    0.21461E-05   -0.10474E-05  4960   0.593E-03    0.655E-03
DAV:   4    -0.851617760747E+03    0.87435E-07   -0.15013E-06  3880   0.216E-03    0.272E-03
DAV:   5    -0.851617760947E+03   -0.20010E-06   -0.36955E-07  3320   0.128E-03    0.583E-04
DAV:   6    -0.851617761039E+03   -0.91757E-07   -0.97579E-08  3520   0.603E-04
  30 F= -.85948241E+03 E0= -.85948241E+03  d E =-.855336E-03  mag=    -0.0000
       N       E                     dE             d eps       ncg     rms          rms(c)
DAV:   1    -0.851618668869E+03   -0.90792E-03   -0.18369E-02  4840   0.256E-01    0.310E-02
DAV:   2    -0.851618694404E+03   -0.25535E-04   -0.46612E-04  4720   0.372E-02    0.220E-02
DAV:   3    -0.851618687293E+03    0.71116E-05   -0.31303E-05  5120   0.103E-02    0.115E-02
DAV:   4    -0.851618686408E+03    0.88449E-06   -0.47088E-06  4520   0.377E-03    0.468E-03
DAV:   5    -0.851618686434E+03   -0.26012E-07   -0.83412E-07  3560   0.195E-03    0.946E-04
DAV:   6    -0.851618686471E+03   -0.37086E-07   -0.22289E-07  3440   0.917E-04
  31 F= -.85948334E+03 E0= -.85948334E+03  d E =-.930054E-03  mag=    -0.0000
       N       E                     dE             d eps       ncg     rms          rms(c)
DAV:   1    -0.851618859908E+03   -0.17347E-03   -0.24680E-02  4800   0.297E-01    0.363E-02
DAV:   2    -0.851618893685E+03   -0.33777E-04   -0.61921E-04  4760   0.430E-02    0.257E-02
DAV:   3    -0.851618884069E+03    0.96162E-05   -0.42839E-05  5240   0.121E-02    0.132E-02
DAV:   4    -0.851618882916E+03    0.11535E-05   -0.63039E-06  4640   0.437E-03    0.541E-03
DAV:   5    -0.851618882950E+03   -0.34277E-07   -0.10769E-06  3800   0.219E-03    0.112E-03
DAV:   6    -0.851618883009E+03   -0.59423E-07   -0.28021E-07  3480   0.105E-03
  32 F= -.85948353E+03 E0= -.85948353E+03  d E =-.193986E-03  mag=    -0.0000
       N       E                     dE             d eps       ncg     rms          rms(c)
DAV:   1    -0.851618902393E+03   -0.19443E-04   -0.34672E-05  4680   0.956E-03    0.147E-03
DAV:   2    -0.851618902473E+03   -0.79584E-07   -0.78530E-07  3840   0.140E-03    0.930E-04
DAV:   3    -0.851618902506E+03   -0.32953E-07   -0.60225E-08  3240   0.519E-04    0.546E-04
DAV:   4    -0.851618902564E+03   -0.58229E-07   -0.25990E-08  3200   0.387E-04    0.292E-04
DAV:   5    -0.851618902603E+03   -0.39174E-07   -0.21143E-08  3280   0.399E-04    0.270E-04
DAV:   6    -0.851618902614E+03   -0.10747E-07   -0.59693E-09  3200   0.230E-04
  33 F= -.85948355E+03 E0= -.85948355E+03  d E =-.175844E-04  mag=     0.0000
       N       E                     dE             d eps       ncg     rms          rms(c)
DAV:   1    -0.851618938434E+03   -0.35831E-04   -0.14463E-04  4800   0.192E-02    0.288E-03
DAV:   2    -0.851618938663E+03   -0.22935E-06   -0.31880E-06  4160   0.262E-03    0.178E-03
DAV:   3    -0.851618938651E+03    0.12071E-07   -0.12988E-07  3360   0.735E-04    0.998E-04
DAV:   4    -0.851618938669E+03   -0.17943E-07   -0.70728E-08  3160   0.490E-04    0.370E-04
DAV:   5    -0.851618938676E+03   -0.71159E-08   -0.11710E-08  3280   0.249E-04    0.277E-04
DAV:   6    -0.851618938681E+03   -0.42783E-08   -0.40937E-10  3240   0.111E-04
  34 F= -.85948358E+03 E0= -.85948358E+03  d E =-.316678E-04  mag=     0.0000
       N       E                     dE             d eps       ncg     rms          rms(c)
DAV:   1    -0.851618986892E+03   -0.48216E-04   -0.32144E-04  4640   0.280E-02    0.434E-03
DAV:   2    -0.851618987388E+03   -0.49666E-06   -0.69979E-06  4720   0.377E-03    0.264E-03
DAV:   3    -0.851618987332E+03    0.56454E-07   -0.20829E-07  3200   0.936E-04    0.146E-03
DAV:   4    -0.851618987352E+03   -0.19565E-07   -0.15198E-07  3360   0.686E-04    0.484E-04
DAV:   5    -0.851618987354E+03   -0.20154E-08   -0.29503E-08  3240   0.388E-04    0.299E-04
DAV:   6    -0.851618987354E+03   -0.18917E-09   -0.48672E-09  3240   0.175E-04
  35 F= -.85948362E+03 E0= -.85948362E+03  d E =-.415904E-04  mag=    -0.0000
       N       E                     dE             d eps       ncg     rms          rms(c)
DAV:   1    -0.851619043252E+03   -0.55898E-04   -0.56416E-04  4480   0.357E-02    0.580E-03
DAV:   2    -0.851619044114E+03   -0.86208E-06   -0.11927E-05  4800   0.475E-03    0.347E-03
DAV:   3    -0.851619044034E+03    0.79533E-07   -0.34405E-07  3720   0.115E-03    0.190E-03
DAV:   4    -0.851619044070E+03   -0.35696E-07   -0.19960E-07  3320   0.797E-04    0.593E-04
DAV:   5    -0.851619044074E+03   -0.39581E-08   -0.49698E-08  3280   0.513E-04    0.319E-04
DAV:   6    -0.851619044070E+03    0.42273E-08   -0.11261E-08  3320   0.252E-04
  36 F= -.85948367E+03 E0= -.85948367E+03  d E =-.465907E-04  mag=    -0.0000
       N       E                     dE             d eps       ncg     rms          rms(c)
DAV:   1    -0.851619104826E+03   -0.60752E-04   -0.87460E-04  4480   0.424E-02    0.730E-03
DAV:   2    -0.851619106134E+03   -0.13075E-05   -0.17838E-05  4680   0.552E-03    0.427E-03
DAV:   3    -0.851619106040E+03    0.93656E-07   -0.47670E-07  3800   0.134E-03    0.231E-03
DAV:   4    -0.851619106118E+03   -0.78042E-07   -0.27937E-07  3400   0.915E-04    0.703E-04
DAV:   5    -0.851619106124E+03   -0.59517E-08   -0.73171E-08  3160   0.629E-04    0.339E-04
DAV:   6    -0.851619106115E+03    0.90877E-08   -0.18846E-08  3280   0.317E-04
  37 F= -.85948372E+03 E0= -.85948372E+03  d E =-.485307E-04  mag=    -0.0000
       N       E                     dE             d eps       ncg     rms          rms(c)
DAV:   1    -0.851619163805E+03   -0.57681E-04   -0.12394E-03  4480   0.480E-02    0.876E-03
DAV:   2    -0.851619165628E+03   -0.18230E-05   -0.24421E-05  4680   0.611E-03    0.502E-03
DAV:   3    -0.851619165525E+03    0.10326E-06   -0.60159E-07  3820   0.147E-03    0.268E-03
DAV:   4    -0.851619165655E+03   -0.12963E-06   -0.35300E-07  3460   0.101E-03    0.804E-04
DAV:   5    -0.851619165663E+03   -0.84110E-08   -0.10405E-07  3080   0.758E-04    0.357E-04
DAV:   6    -0.851619165649E+03    0.14479E-07   -0.30143E-08  3260   0.398E-04
  38 F= -.85948376E+03 E0= -.85948376E+03  d E =-.426407E-04  mag=    -0.0000
       N       E                     dE             d eps       ncg     rms          rms(c)
DAV:   1    -0.851619227349E+03   -0.61686E-04   -0.19650E-03  4480   0.575E-02    0.112E-02
DAV:   2    -0.851619230181E+03   -0.28325E-05   -0.37121E-05  4680   0.712E-03    0.629E-03
DAV:   3    -0.851619230060E+03    0.12088E-06   -0.88958E-07  4020   0.172E-03    0.331E-03
DAV:   4    -0.851619230282E+03   -0.22149E-06   -0.45611E-07  3800   0.111E-03    0.983E-04
DAV:   5    -0.851619230293E+03   -0.10972E-07   -0.14239E-07  3320   0.854E-04    0.393E-04
DAV:   6    -0.851619230278E+03    0.14406E-07   -0.40109E-08  3180   0.474E-04
  39 F= -.85948380E+03 E0= -.85948380E+03  d E =-.422120E-04  mag=    -0.0000
       N       E                     dE             d eps       ncg     rms          rms(c)
DAV:   1    -0.851619300637E+03   -0.70344E-04   -0.30572E-03  4480   0.681E-02    0.141E-02
DAV:   2    -0.851619304936E+03   -0.42987E-05   -0.55729E-05  4660   0.816E-03    0.781E-03
DAV:   3    -0.851619304835E+03    0.10094E-06   -0.12688E-06  4120   0.198E-03    0.406E-03
DAV:   4    -0.851619305192E+03   -0.35715E-06   -0.63219E-07  3900   0.125E-03    0.119E-03
DAV:   5    -0.851619305210E+03   -0.17943E-07   -0.21794E-07  3540   0.102E-03    0.444E-04
DAV:   6    -0.851619305194E+03    0.15483E-07   -0.68445E-08  3300   0.643E-04
  40 F= -.85948385E+03 E0= -.85948385E+03  d E =-.458449E-04  mag=    -0.0000
       N       E                     dE             d eps       ncg     rms          rms(c)
DAV:   1    -0.851619396689E+03   -0.91479E-04   -0.48733E-03  4480   0.823E-02    0.178E-02
DAV:   2    -0.851619403404E+03   -0.67148E-05   -0.87048E-05  4680   0.961E-03    0.977E-03
DAV:   3    -0.851619403339E+03    0.65142E-07   -0.18278E-06  4120   0.226E-03    0.508E-03
DAV:   4    -0.851619403929E+03   -0.59001E-06   -0.95026E-07  4000   0.142E-03    0.143E-03
DAV:   5    -0.851619403948E+03   -0.19507E-07   -0.30514E-07  3600   0.112E-03    0.508E-04
DAV:   6    -0.851619403956E+03   -0.76834E-08   -0.89908E-08  3360   0.756E-04
  41 F= -.85948391E+03 E0= -.85948391E+03  d E =-.614330E-04  mag=    -0.0000
       N       E                     dE             d eps       ncg     rms          rms(c)
DAV:   1    -0.851619529352E+03   -0.12540E-03   -0.79087E-03  4480   0.103E-01    0.226E-02
DAV:   2    -0.851619540183E+03   -0.10831E-04   -0.14149E-04  4680   0.120E-02    0.123E-02
DAV:   3    -0.851619540076E+03    0.10645E-06   -0.27641E-06  4240   0.273E-03    0.645E-03
DAV:   4    -0.851619541066E+03   -0.98946E-06   -0.15763E-06  4040   0.177E-03    0.173E-03
DAV:   5    -0.851619541095E+03   -0.28915E-07   -0.48623E-07  3680   0.135E-03    0.628E-04
DAV:   6    -0.851619541111E+03   -0.16473E-07   -0.11544E-07  3460   0.870E-04
  42 F= -.85948400E+03 E0= -.85948400E+03  d E =-.898274E-04  mag=    -0.0000
       N       E                     dE             d eps       ncg     rms          rms(c)
DAV:   1    -0.851619693518E+03   -0.15242E-03   -0.12758E-02  4480   0.132E-01    0.286E-02
DAV:   2    -0.851619711251E+03   -0.17733E-04   -0.23245E-04  4680   0.156E-02    0.155E-02
DAV:   3    -0.851619710861E+03    0.39003E-06   -0.43050E-06  4360   0.346E-03    0.822E-03
DAV:   4    -0.851619712443E+03   -0.15821E-05   -0.27821E-06  4160   0.236E-03    0.213E-03
DAV:   5    -0.851619712492E+03   -0.49447E-07   -0.85870E-07  3880   0.180E-03    0.818E-04
DAV:   6    -0.851619712476E+03    0.16633E-07   -0.17199E-07  3520   0.107E-03
  43 F= -.85948411E+03 E0= -.85948411E+03  d E =-.112205E-03  mag=    -0.0000
       N       E                     dE             d eps       ncg     rms          rms(c)
DAV:   1    -0.851619894669E+03   -0.18218E-03   -0.20276E-02  4480   0.167E-01    0.359E-02
DAV:   2    -0.851619923350E+03   -0.28681E-04   -0.37729E-04  4680   0.200E-02    0.194E-02
DAV:   3    -0.851619922514E+03    0.83509E-06   -0.66105E-06  4480   0.430E-03    0.104E-02
DAV:   4    -0.851619924902E+03   -0.23872E-05   -0.47958E-06  4280   0.311E-03    0.259E-03
DAV:   5    -0.851619925002E+03   -0.10076E-06   -0.15123E-06  3920   0.246E-03    0.106E-03
DAV:   6    -0.851619924898E+03    0.10424E-06   -0.28536E-07  3760   0.138E-03
  44 F= -.85948425E+03 E0= -.85948425E+03  d E =-.138988E-03  mag=    -0.0000
       N       E                     dE             d eps       ncg     rms          rms(c)
DAV:   1    -0.851620111079E+03   -0.18608E-03   -0.31186E-02  4480   0.205E-01    0.445E-02
DAV:   2    -0.851620155430E+03   -0.44351E-04   -0.58726E-04  4680   0.246E-02    0.236E-02
DAV:   3    -0.851620154164E+03    0.12659E-05   -0.96823E-06  4640   0.513E-03    0.128E-02
DAV:   4    -0.851620157672E+03   -0.35077E-05   -0.77203E-06  4360   0.390E-03    0.308E-03
DAV:   5    -0.851620157908E+03   -0.23581E-06   -0.25280E-06  3960   0.328E-03    0.134E-03
DAV:   6    -0.851620157627E+03    0.28051E-06   -0.49608E-07  3800   0.185E-03
  45 F= -.85948439E+03 E0= -.85948439E+03  d E =-.142042E-03  mag=    -0.0000
       N       E                     dE             d eps       ncg     rms          rms(c)
DAV:   1    -0.851620365071E+03   -0.20716E-03   -0.43435E-02  4480   0.239E-01    0.528E-02
DAV:   2    -0.851620427097E+03   -0.62025E-04   -0.81988E-04  4860   0.286E-02    0.277E-02
DAV:   3    -0.851620425835E+03    0.12613E-05   -0.13053E-05  4720   0.590E-03    0.150E-02
DAV:   4    -0.851620430673E+03   -0.48375E-05   -0.10649E-05  4400   0.455E-03    0.352E-03
DAV:   5    -0.851620431130E+03   -0.45673E-06   -0.37473E-06  4200   0.407E-03    0.164E-03
DAV:   6    -0.851620430586E+03    0.54335E-06   -0.78979E-07  3760   0.237E-03
  46 F= -.85948455E+03 E0= -.85948455E+03  d E =-.163565E-03  mag=    -0.0000
       N       E                     dE             d eps       ncg     rms          rms(c)
DAV:   1    -0.851620665776E+03   -0.23465E-03   -0.55872E-02  4480   0.274E-01    0.603E-02
DAV:   2    -0.851620747267E+03   -0.81491E-04   -0.10642E-03  4780   0.330E-02    0.315E-02
DAV:   3    -0.851620746206E+03    0.10612E-05   -0.16896E-05  4840   0.678E-03    0.169E-02
DAV:   4    -0.851620752603E+03   -0.63965E-05   -0.13510E-05  4400   0.519E-03    0.395E-03
DAV:   5    -0.851620753248E+03   -0.64549E-06   -0.48298E-06  4200   0.467E-03    0.186E-03
DAV:   6    -0.851620752512E+03    0.73615E-06   -0.10097E-06  3800   0.269E-03
  47 F= -.85948475E+03 E0= -.85948475E+03  d E =-.192972E-03  mag=    -0.0000
       N       E                     dE             d eps       ncg     rms          rms(c)
DAV:   1    -0.851621033557E+03   -0.28031E-03   -0.62308E-02  4480   0.299E-01    0.643E-02
DAV:   2    -0.851621128303E+03   -0.94746E-04   -0.11944E-03  4720   0.365E-02    0.343E-02
DAV:   3    -0.851621127984E+03    0.31876E-06   -0.20358E-05  4860   0.780E-03    0.182E-02
DAV:   4    -0.851621135530E+03   -0.75459E-05   -0.14488E-05  4500   0.566E-03    0.430E-03
DAV:   5    -0.851621136292E+03   -0.76193E-06   -0.52448E-06  4320   0.504E-03    0.189E-03
DAV:   6    -0.851621135541E+03    0.75093E-06   -0.12636E-06  4080   0.306E-03
  48 F= -.85948499E+03 E0= -.85948499E+03  d E =-.237844E-03  mag=    -0.0000
       N       E                     dE             d eps       ncg     rms          rms(c)
DAV:   1    -0.851621518337E+03   -0.38205E-03   -0.63779E-02  4480   0.312E-01    0.660E-02
DAV:   2    -0.851621615630E+03   -0.97293E-04   -0.11918E-03  4700   0.381E-02    0.361E-02
DAV:   3    -0.851621616790E+03   -0.11600E-05   -0.22730E-05  5000   0.848E-03    0.186E-02
DAV:   4    -0.851621624762E+03   -0.79716E-05   -0.13723E-05  4620   0.570E-03    0.447E-03
DAV:   5    -0.851621625521E+03   -0.75911E-06   -0.48229E-06  4560   0.489E-03    0.185E-03
DAV:   6    -0.851621625250E+03    0.27096E-06   -0.15486E-06  4380   0.344E-03
  49 F= -.85948532E+03 E0= -.85948532E+03  d E =-.334301E-03  mag=    -0.0000
       N       E                     dE             d eps       ncg     rms          rms(c)
DAV:   1    -0.851622131847E+03   -0.50633E-03   -0.63308E-02  4480   0.323E-01    0.663E-02
DAV:   2    -0.851622225125E+03   -0.93277E-04   -0.11386E-03  4840   0.397E-02    0.377E-02
DAV:   3    -0.851622226921E+03   -0.17966E-05   -0.25491E-05  5060   0.920E-03    0.187E-02
DAV:   4    -0.851622234499E+03   -0.75781E-05   -0.13945E-05  4640   0.580E-03    0.457E-03
DAV:   5    -0.851622235269E+03   -0.76957E-06   -0.43676E-06  4560   0.449E-03    0.189E-03
DAV:   6    -0.851622235573E+03   -0.30436E-06   -0.14326E-06  4320   0.334E-03
  50 F= -.85948577E+03 E0= -.85948577E+03  d E =-.454995E-03  mag=    -0.0000
       N       E                     dE             d eps       ncg     rms          rms(c)
DAV:   1    -0.851622793348E+03   -0.55808E-03   -0.64454E-02  4480   0.335E-01    0.668E-02
DAV:   2    -0.851622884692E+03   -0.91344E-04   -0.11328E-03  5040   0.414E-02    0.391E-02
DAV:   3    -0.851622886563E+03   -0.18709E-05   -0.26576E-05  5040   0.955E-03    0.189E-02
DAV:   4    -0.851622893899E+03   -0.73365E-05   -0.16362E-05  4640   0.634E-03    0.448E-03
DAV:   5    -0.851622895399E+03   -0.14996E-05   -0.54734E-06  4640   0.533E-03    0.204E-03
DAV:   6    -0.851622895105E+03    0.29366E-06   -0.16476E-06  4420   0.360E-03
  51 F= -.85948629E+03 E0= -.85948629E+03  d E =-.515950E-03  mag=    -0.0000
       N       E                     dE             d eps       ncg     rms          rms(c)
DAV:   1    -0.851623524199E+03   -0.62880E-03   -0.57120E-02  4480   0.328E-01    0.641E-02
DAV:   2    -0.851623599805E+03   -0.75606E-04   -0.93927E-04  5040   0.406E-02    0.377E-02
DAV:   3    -0.851623605377E+03   -0.55715E-05   -0.25406E-05  4920   0.983E-03    0.167E-02
DAV:   4    -0.851623611753E+03   -0.63763E-05   -0.13099E-05  4680   0.647E-03    0.391E-03
DAV:   5    -0.851623614263E+03   -0.25101E-05   -0.57001E-06  4680   0.631E-03    0.192E-03
DAV:   6    -0.851623613224E+03    0.10387E-05   -0.23334E-06  4320   0.430E-03    0.118E-03
DAV:   7    -0.851623614784E+03   -0.15595E-05   -0.58447E-07  4040   0.209E-03    0.735E-04
DAV:   8    -0.851623615827E+03   -0.10428E-05   -0.21890E-07  3520   0.124E-03    0.527E-04
DAV:   9    -0.851623618023E+03   -0.21965E-05   -0.99667E-08  3360   0.387E-04    0.510E-04
DAV:  10    -0.851623619405E+03   -0.13822E-05   -0.39920E-08  3440   0.412E-04    0.425E-04
DAV:  11    -0.851623620390E+03   -0.98424E-06   -0.39536E-08  3360   0.391E-04
  52 F= -.85948689E+03 E0= -.85948689E+03  d E =-.602820E-03  mag=    -0.0000
       N       E                     dE             d eps       ncg     rms          rms(c)
DAV:   1    -0.851624263854E+03   -0.64445E-03   -0.51071E-02  4480   0.327E-01    0.606E-02
DAV:   2    -0.851624324989E+03   -0.61134E-04   -0.72181E-04  4720   0.398E-02    0.375E-02
DAV:   3    -0.851624333161E+03   -0.81724E-05   -0.27944E-05  4880   0.105E-02    0.127E-02
DAV:   4    -0.851624336243E+03   -0.30816E-05   -0.82145E-06  4840   0.447E-03    0.361E-03
DAV:   5    -0.851624336476E+03   -0.23314E-06   -0.12499E-06  4200   0.215E-03    0.142E-03
DAV:   6    -0.851624337050E+03   -0.57399E-06   -0.20450E-07  3560   0.948E-04
  53 F= -.85948753E+03 E0= -.85948753E+03  d E =-.634063E-03  mag=    -0.0000
       N       E                     dE             d eps       ncg     rms          rms(c)
DAV:   1    -0.851625105265E+03   -0.76879E-03   -0.60194E-02  4480   0.353E-01    0.634E-02
DAV:   2    -0.851625167674E+03   -0.62409E-04   -0.71580E-04  4920   0.412E-02    0.406E-02
DAV:   3    -0.851625177020E+03   -0.93464E-05   -0.40862E-05  4880   0.128E-02    0.947E-03
DAV:   4    -0.851625179489E+03   -0.24689E-05   -0.99461E-06  4980   0.480E-03    0.409E-03
DAV:   5    -0.851625180570E+03   -0.10804E-05   -0.11421E-06  4260   0.226E-03    0.161E-03
DAV:   6    -0.851625182064E+03   -0.14946E-05   -0.53849E-07  3940   0.183E-03    0.765E-04
DAV:   7    -0.851625183119E+03   -0.10550E-05   -0.36775E-07  3780   0.160E-03    0.601E-04
DAV:   8    -0.851625184201E+03   -0.10817E-05   -0.15511E-07  3380   0.956E-04    0.481E-04
DAV:   9    -0.851625185649E+03   -0.14476E-05   -0.62665E-08  3400   0.390E-04    0.415E-04
DAV:  10    -0.851625186887E+03   -0.12382E-05   -0.40760E-08  3360   0.302E-04    0.407E-04
DAV:  11    -0.851625187396E+03   -0.50929E-06   -0.19197E-08  3480   0.236E-04
  54 F= -.85948835E+03 E0= -.85948835E+03  d E =-.820038E-03  mag=    -0.0000
       N       E                     dE             d eps       ncg     rms          rms(c)
DAV:   1    -0.851626102344E+03   -0.91546E-03   -0.95253E-02  4480   0.429E-01    0.768E-02
DAV:   2    -0.851626212364E+03   -0.11002E-03   -0.12556E-03  4760   0.502E-02    0.491E-02
DAV:   3    -0.851626220162E+03   -0.77978E-05   -0.56537E-05  4880   0.141E-02    0.159E-02
DAV:   4    -0.851626225419E+03   -0.52576E-05   -0.16330E-05  5000   0.578E-03    0.501E-03
DAV:   5    -0.851626226174E+03   -0.75450E-06   -0.15463E-06  4380   0.224E-03    0.192E-03
DAV:   6    -0.851626227175E+03   -0.10010E-05   -0.33190E-07  3800   0.102E-03    0.760E-04
DAV:   7    -0.851626228392E+03   -0.12170E-05   -0.12480E-07  3340   0.631E-04    0.535E-04
DAV:   8    -0.851626229227E+03   -0.83524E-06   -0.99498E-08  3560   0.665E-04
  55 F= -.85948942E+03 E0= -.85948942E+03  d E =-.106947E-02  mag=    -0.0000
       N       E                     dE             d eps       ncg     rms          rms(c)
DAV:   1    -0.851627351036E+03   -0.11226E-02   -0.12597E-01  4480   0.494E-01    0.896E-02
DAV:   2    -0.851627500782E+03   -0.14975E-03   -0.16014E-03  4800   0.573E-02    0.567E-02
DAV:   3    -0.851627518302E+03   -0.17520E-04   -0.66884E-05  4920   0.162E-02    0.172E-02
DAV:   4    -0.851627525040E+03   -0.67381E-05   -0.18667E-05  5220   0.665E-03    0.549E-03
DAV:   5    -0.851627526513E+03   -0.14728E-05   -0.21792E-06  4400   0.308E-03    0.213E-03
DAV:   6    -0.851627528367E+03   -0.18547E-05   -0.77556E-07  4160   0.199E-03    0.922E-04
DAV:   7    -0.851627530206E+03   -0.18388E-05   -0.75795E-07  3820   0.215E-03    0.668E-04
DAV:   8    -0.851627530975E+03   -0.76842E-06   -0.39392E-07  3920   0.151E-03
  56 F= -.85949080E+03 E0= -.85949080E+03  d E =-.137890E-02  mag=    -0.0000
       N       E                     dE             d eps       ncg     rms          rms(c)
DAV:   1    -0.851628679604E+03   -0.11494E-02   -0.17486E-01  4480   0.589E-01    0.107E-01
DAV:   2    -0.851628883445E+03   -0.20384E-03   -0.22196E-03  4880   0.690E-02    0.677E-02
DAV:   3    -0.851628908247E+03   -0.24802E-04   -0.88324E-05  4960   0.186E-02    0.225E-02
DAV:   4    -0.851628918506E+03   -0.10259E-04   -0.24995E-05  5200   0.792E-03    0.632E-03
DAV:   5    -0.851628921085E+03   -0.25794E-05   -0.30409E-06  4440   0.369E-03    0.244E-03
DAV:   6    -0.851628923913E+03   -0.28279E-05   -0.75848E-07  3920   0.159E-03    0.108E-03
DAV:   7    -0.851628926620E+03   -0.27074E-05   -0.21850E-07  3560   0.991E-04    0.637E-04
DAV:   8    -0.851628928978E+03   -0.23576E-05   -0.27476E-07  3600   0.124E-03    0.501E-04
DAV:   9    -0.851628930319E+03   -0.13412E-05   -0.19860E-07  3600   0.107E-03    0.422E-04
DAV:  10    -0.851628931655E+03   -0.13356E-05   -0.72917E-08  3360   0.417E-04    0.385E-04
DAV:  11    -0.851628932635E+03   -0.98040E-06   -0.39157E-08  3400   0.219E-04
  57 F= -.85949228E+03 E0= -.85949228E+03  d E =-.148571E-02  mag=     0.0000
       N       E                     dE             d eps       ncg     rms          rms(c)
DAV:   1    -0.851629889193E+03   -0.95754E-03   -0.27610E-01  4480   0.739E-01    0.131E-01
DAV:   2    -0.851630225461E+03   -0.33627E-03   -0.38533E-03  4800   0.884E-02    0.853E-02
DAV:   3    -0.851630233373E+03   -0.79122E-05   -0.18670E-04  5080   0.257E-02    0.299E-02
DAV:   4    -0.851630250226E+03   -0.16853E-04   -0.54187E-05  4960   0.107E-02    0.981E-03
DAV:   5    -0.851630252568E+03   -0.23419E-05   -0.72496E-06  4760   0.468E-03    0.397E-03
DAV:   6    -0.851630255667E+03   -0.30988E-05   -0.11631E-06  4120   0.194E-03    0.161E-03
DAV:   7    -0.851630258223E+03   -0.25556E-05   -0.29184E-07  3660   0.105E-03    0.780E-04
DAV:   8    -0.851630261045E+03   -0.28220E-05   -0.30351E-07  3780   0.106E-03    0.717E-04
DAV:   9    -0.851630262686E+03   -0.16416E-05   -0.22594E-07  3680   0.112E-03    0.488E-04
DAV:  10    -0.851630264004E+03   -0.13179E-05   -0.12873E-07  3440   0.683E-04    0.431E-04
DAV:  11    -0.851630264975E+03   -0.97074E-06   -0.42531E-08  3440   0.301E-04
  58 F= -.85949367E+03 E0= -.85949367E+03  d E =-.138592E-02  mag=    -0.0000
       N       E                     dE             d eps       ncg     rms          rms(c)
DAV:   1    -0.851631155128E+03   -0.89112E-03   -0.34276E-01  4480   0.883E-01    0.154E-01
DAV:   2    -0.851631594633E+03   -0.43951E-03   -0.52195E-03  4920   0.110E-01    0.982E-02
DAV:   3    -0.851631618662E+03   -0.24029E-04   -0.23984E-04  5000   0.310E-02    0.370E-02
DAV:   4    -0.851631640943E+03   -0.22281E-04   -0.60014E-05  5000   0.132E-02    0.110E-02
DAV:   5    -0.851631642982E+03   -0.20389E-05   -0.11314E-05  5040   0.642E-03    0.453E-03
DAV:   6    -0.851631645834E+03   -0.28519E-05   -0.17198E-06  4360   0.236E-03    0.196E-03
DAV:   7    -0.851631648487E+03   -0.26531E-05   -0.30309E-07  3700   0.104E-03    0.911E-04
DAV:   8    -0.851631651295E+03   -0.28074E-05   -0.28674E-07  3840   0.928E-04    0.676E-04
DAV:   9    -0.851631653629E+03   -0.23341E-05   -0.27897E-07  3680   0.113E-03    0.470E-04
DAV:  10    -0.851631654727E+03   -0.10977E-05   -0.19840E-07  3600   0.917E-04    0.422E-04
DAV:  11    -0.851631655668E+03   -0.94174E-06   -0.54920E-08  3440   0.363E-04
  59 F= -.85949502E+03 E0= -.85949502E+03  d E =-.135018E-02  mag=    -0.0000
       N       E                     dE             d eps       ncg     rms          rms(c)
DAV:   1    -0.851631118965E+03    0.53576E-03   -0.97256E-01  4480   0.144E+00    0.239E-01
DAV:   2    -0.851632505289E+03   -0.13863E-02   -0.18460E-02  5000   0.187E-01    0.156E-01
DAV:   3    -0.851632365740E+03    0.13955E-03   -0.60259E-04  5200   0.448E-02    0.779E-02
DAV:   4    -0.851632409800E+03   -0.44060E-04   -0.31379E-04  4880   0.267E-02    0.179E-02
DAV:   5    -0.851632416229E+03   -0.64286E-05   -0.41221E-05  4960   0.989E-03    0.835E-03
DAV:   6    -0.851632419747E+03   -0.35181E-05   -0.31264E-06  4560   0.282E-03    0.422E-03
DAV:   7    -0.851632425374E+03   -0.56273E-05   -0.14476E-06  4120   0.199E-03    0.161E-03
DAV:   8    -0.851632427199E+03   -0.18248E-05   -0.25795E-07  4220   0.869E-04    0.848E-04
DAV:   9    -0.851632431817E+03   -0.46182E-05   -0.27751E-07  3720   0.678E-04    0.769E-04
DAV:  10    -0.851632435248E+03   -0.34306E-05   -0.16582E-07  3480   0.821E-04    0.499E-04
DAV:  11    -0.851632437291E+03   -0.20428E-05   -0.19178E-07  3640   0.947E-04    0.473E-04
DAV:  12    -0.851632438726E+03   -0.14355E-05   -0.11162E-07  3400   0.723E-04    0.425E-04
DAV:  13    -0.851632439682E+03   -0.95552E-06   -0.39360E-08  3440   0.304E-04
  60 F= -.85949556E+03 E0= -.85949556E+03  d E =-.546934E-03  mag=     0.0000
       N       E                     dE             d eps       ncg     rms          rms(c)
DAV:   1    -0.851634533173E+03   -0.20944E-02   -0.13291E-01  4880   0.611E-01    0.793E-02
DAV:   2    -0.851634781279E+03   -0.24811E-03   -0.37046E-03  4840   0.875E-02    0.603E-02
DAV:   3    -0.851634731073E+03    0.50205E-04   -0.12229E-04  5320   0.199E-02    0.362E-02
DAV:   4    -0.851634718008E+03    0.13066E-04   -0.53243E-05  4920   0.120E-02    0.914E-03
DAV:   5    -0.851634719448E+03   -0.14399E-05   -0.99494E-06  5020   0.466E-03    0.303E-03
DAV:   6    -0.851634719818E+03   -0.37094E-06   -0.39919E-07  3760   0.126E-03
  61 F= -.85949783E+03 E0= -.85949783E+03  d E =-.226947E-02  mag=     0.0000
       N       E                     dE             d eps       ncg     rms          rms(c)
DAV:   1    -0.851633114015E+03    0.16054E-02   -0.91058E-02  4840   0.517E-01    0.674E-02
DAV:   2    -0.851633285866E+03   -0.17185E-03   -0.25239E-03  5160   0.741E-02    0.504E-02
DAV:   3    -0.851633253373E+03    0.32492E-04   -0.91422E-05  5320   0.174E-02    0.296E-02
DAV:   4    -0.851633246854E+03    0.65193E-05   -0.33695E-05  4960   0.995E-03    0.770E-03
DAV:   5    -0.851633248188E+03   -0.13340E-05   -0.60357E-06  4840   0.381E-03    0.257E-03
DAV:   6    -0.851633248683E+03   -0.49493E-06   -0.27469E-07  3680   0.108E-03
  62 F= -.85949631E+03 E0= -.85949631E+03  d E =0.152495E-02  mag=     0.0000
       N       E                     dE             d eps       ncg     rms          rms(c)
DAV:   1    -0.851634073232E+03   -0.82504E-03   -0.71177E-03  4800   0.140E-01    0.185E-02
DAV:   2    -0.851634085737E+03   -0.12505E-04   -0.18766E-04  4920   0.200E-02    0.138E-02
DAV:   3    -0.851634083314E+03    0.24229E-05   -0.67048E-06  4920   0.467E-03    0.801E-03
DAV:   4    -0.851634083040E+03    0.27367E-06   -0.27687E-06  4280   0.274E-03    0.204E-03
DAV:   5    -0.851634083271E+03   -0.23024E-06   -0.49215E-07  3880   0.122E-03    0.776E-04
DAV:   6    -0.851634083416E+03   -0.14516E-06   -0.69207E-08  3380   0.644E-04
  63 F= -.85949713E+03 E0= -.85949713E+03  d E =-.823650E-03  mag=     0.0000
       N       E                     dE             d eps       ncg     rms          rms(c)
DAV:   1    -0.851634957155E+03   -0.87388E-03   -0.22045E-02  4720   0.247E-01    0.326E-02
DAV:   2    -0.851634995778E+03   -0.38623E-04   -0.58332E-04  4760   0.351E-02    0.242E-02
DAV:   3    -0.851634987586E+03    0.81920E-05   -0.20007E-05  5280   0.807E-03    0.141E-02
DAV:   4    -0.851634985835E+03    0.17509E-05   -0.89097E-06  4920   0.486E-03    0.345E-03
DAV:   5    -0.851634986091E+03   -0.25534E-06   -0.14420E-06  3760   0.199E-03    0.126E-03
DAV:   6    -0.851634986198E+03   -0.10752E-06   -0.15404E-07  3380   0.101E-03
  64 F= -.85949801E+03 E0= -.85949801E+03  d E =-.880976E-03  mag=     0.0000
       N       E                     dE             d eps       ncg     rms          rms(c)
DAV:   1    -0.851635100072E+03   -0.11398E-03   -0.30116E-02  4720   0.286E-01    0.385E-02
DAV:   2    -0.851635152279E+03   -0.52207E-04   -0.78703E-04  5000   0.407E-02    0.282E-02
DAV:   3    -0.851635141267E+03    0.11013E-04   -0.26959E-05  5360   0.939E-03    0.163E-02
DAV:   4    -0.851635139115E+03    0.21518E-05   -0.12305E-05  4920   0.574E-03    0.393E-03
DAV:   5    -0.851635139477E+03   -0.36213E-06   -0.20444E-06  4120   0.253E-03    0.151E-03
DAV:   6    -0.851635139634E+03   -0.15675E-06   -0.27109E-07  3440   0.143E-03
  65 F= -.85949813E+03 E0= -.85949813E+03  d E =-.120713E-03  mag=     0.0000
       N       E                     dE             d eps       ncg     rms          rms(c)
DAV:   1    -0.851635159375E+03   -0.19898E-04   -0.33737E-05  4760   0.931E-03    0.140E-03
DAV:   2    -0.851635159471E+03   -0.95810E-07   -0.10195E-06  4000   0.191E-03    0.104E-03
DAV:   3    -0.851635159511E+03   -0.40061E-07   -0.11968E-07  3400   0.943E-04    0.681E-04
DAV:   4    -0.851635159696E+03   -0.18578E-06   -0.13527E-07  3260   0.100E-03    0.448E-04
DAV:   5    -0.851635159662E+03    0.34030E-07   -0.75151E-08  3360   0.739E-04    0.401E-04
DAV:   6    -0.851635159748E+03   -0.85471E-07   -0.23777E-09  3160   0.138E-04
  66 F= -.85949815E+03 E0= -.85949815E+03  d E =-.183323E-04  mag=    -0.0000
       N       E                     dE             d eps       ncg     rms          rms(c)
DAV:   1    -0.851635195150E+03   -0.35487E-04   -0.12979E-04  4860   0.181E-02    0.262E-03
DAV:   2    -0.851635195452E+03   -0.30213E-06   -0.34739E-06  4180   0.255E-03    0.185E-03
DAV:   3    -0.851635195434E+03    0.17390E-07   -0.11019E-07  3400   0.659E-04    0.115E-03
DAV:   4    -0.851635195458E+03   -0.23756E-07   -0.80648E-08  3120   0.510E-04    0.443E-04
DAV:   5    -0.851635195473E+03   -0.14959E-07   -0.15089E-08  3400   0.244E-04    0.405E-04
DAV:   6    -0.851635195485E+03   -0.11634E-07   -0.24365E-10  3280   0.116E-04
  67 F= -.85949818E+03 E0= -.85949818E+03  d E =-.322413E-04  mag=    -0.0000
       N       E                     dE             d eps       ncg     rms          rms(c)
DAV:   1    -0.851635240076E+03   -0.44603E-04   -0.26199E-04  4760   0.256E-02    0.375E-03
DAV:   2    -0.851635240635E+03   -0.55932E-06   -0.70044E-06  4600   0.361E-03    0.260E-03
DAV:   3    -0.851635240565E+03    0.69376E-07   -0.17543E-07  3520   0.831E-04    0.157E-03
DAV:   4    -0.851635240562E+03    0.34561E-08   -0.16015E-07  3280   0.698E-04    0.493E-04
DAV:   5    -0.851635240566E+03   -0.42055E-08   -0.29974E-08  3320   0.332E-04    0.420E-04
DAV:   6    -0.851635240570E+03   -0.37689E-08   -0.27881E-09  3280   0.155E-04
  68 F= -.85949822E+03 E0= -.85949822E+03  d E =-.397634E-04  mag=    -0.0000
       N       E                     dE             d eps       ncg     rms          rms(c)
DAV:   1    -0.851635288742E+03   -0.48176E-04   -0.41052E-04  4480   0.317E-02    0.474E-03
DAV:   2    -0.851635289595E+03   -0.85230E-06   -0.10823E-05  4680   0.446E-03    0.322E-03
DAV:   3    -0.851635289490E+03    0.10494E-06   -0.24708E-07  3680   0.977E-04    0.192E-03
DAV:   4    -0.851635289487E+03    0.32014E-08   -0.22691E-07  3440   0.835E-04    0.540E-04
DAV:   5    -0.851635289490E+03   -0.32232E-08   -0.48026E-08  3200   0.432E-04    0.436E-04
DAV:   6    -0.851635289492E+03   -0.17826E-08   -0.72902E-09  3280   0.216E-04
  69 F= -.85949827E+03 E0= -.85949827E+03  d E =-.417086E-04  mag=    -0.0000
       N       E                     dE             d eps       ncg     rms          rms(c)
DAV:   1    -0.851635335518E+03   -0.46028E-04   -0.54452E-04  4480   0.361E-02    0.556E-03
DAV:   2    -0.851635336615E+03   -0.10972E-05   -0.13891E-05  4760   0.503E-03    0.365E-03
DAV:   3    -0.851635336496E+03    0.11903E-06   -0.33476E-07  3800   0.111E-03    0.213E-03
DAV:   4    -0.851635336506E+03   -0.10012E-07   -0.26015E-07  3640   0.894E-04    0.589E-04
DAV:   5    -0.851635336510E+03   -0.43947E-08   -0.55633E-08  3080   0.492E-04    0.447E-04
DAV:   6    -0.851635336511E+03   -0.81491E-09   -0.11413E-08  3320   0.262E-04
  70 F= -.85949830E+03 E0= -.85949830E+03  d E =-.378277E-04  mag=    -0.0000
       N       E                     dE             d eps       ncg     rms          rms(c)
DAV:   1    -0.851635379270E+03   -0.42760E-04   -0.65538E-04  4480   0.386E-02    0.623E-03
DAV:   2    -0.851635380536E+03   -0.12653E-05   -0.15883E-05  4720   0.530E-03    0.391E-03
DAV:   3    -0.851635380428E+03    0.10741E-06   -0.37025E-07  3880   0.118E-03    0.222E-03
DAV:   4    -0.851635380460E+03   -0.31607E-07   -0.27903E-07  3680   0.928E-04    0.615E-04
DAV:   5    -0.851635380465E+03   -0.53551E-08   -0.64916E-08  3040   0.554E-04    0.453E-04
DAV:   6    -0.851635380465E+03   -0.80036E-10   -0.15567E-08  3320   0.301E-04
  71 F= -.85949834E+03 E0= -.85949834E+03  d E =-.326899E-04  mag=    -0.0000
       N       E                     dE             d eps       ncg     rms          rms(c)
DAV:   1    -0.851635426192E+03   -0.45727E-04   -0.92569E-04  4480   0.440E-02    0.759E-03
DAV:   2    -0.851635427870E+03   -0.16778E-05   -0.20833E-05  4680   0.589E-03    0.451E-03
DAV:   3    -0.851635427779E+03    0.90673E-07   -0.45481E-07  3880   0.130E-03    0.248E-03
DAV:   4    -0.851635427851E+03   -0.71544E-07   -0.34082E-07  3600   0.100E-03    0.687E-04
DAV:   5    -0.851635427858E+03   -0.71959E-08   -0.82534E-08  3160   0.642E-04    0.462E-04
DAV:   6    -0.851635427856E+03    0.24593E-08   -0.21560E-08  3160   0.342E-04
  72 F= -.85949837E+03 E0= -.85949837E+03  d E =-.324658E-04  mag=    -0.0000
       N       E                     dE             d eps       ncg     rms          rms(c)
DAV:   1    -0.851635483233E+03   -0.55375E-04   -0.13232E-03  4480   0.497E-02    0.926E-03
DAV:   2    -0.851635485444E+03   -0.22111E-05   -0.27251E-05  4720   0.640E-03    0.523E-03
DAV:   3    -0.851635485397E+03    0.47636E-07   -0.55303E-07  4000   0.141E-03    0.278E-03
DAV:   4    -0.851635485533E+03   -0.13626E-06   -0.36699E-07  3680   0.104E-03    0.738E-04
DAV:   5    -0.851635485550E+03   -0.17368E-07   -0.11676E-07  3200   0.803E-04    0.470E-04
DAV:   6    -0.851635485536E+03    0.13999E-07   -0.36475E-08  3040   0.457E-04
  73 F= -.85949841E+03 E0= -.85949841E+03  d E =-.382057E-04  mag=    -0.0000
       N       E                     dE             d eps       ncg     rms          rms(c)
DAV:   1    -0.851635559252E+03   -0.73702E-04   -0.19618E-03  4480   0.576E-02    0.114E-02
DAV:   2    -0.851635562303E+03   -0.30513E-05   -0.37383E-05  4680   0.713E-03    0.628E-03
DAV:   3    -0.851635562295E+03    0.85274E-08   -0.71416E-07  4000   0.157E-03    0.325E-03
DAV:   4    -0.851635562523E+03   -0.22860E-06   -0.48121E-07  3880   0.113E-03    0.845E-04
DAV:   5    -0.851635562550E+03   -0.26892E-07   -0.16403E-07  3240   0.931E-04    0.495E-04
DAV:   6    -0.851635562538E+03    0.11969E-07   -0.63853E-08  3160   0.633E-04
  74 F= -.85949846E+03 E0= -.85949846E+03  d E =-.522665E-04  mag=    -0.0000
       N       E                     dE             d eps       ncg     rms          rms(c)
DAV:   1    -0.851635666170E+03   -0.10362E-03   -0.31317E-03  4480   0.719E-02    0.143E-02
DAV:   2    -0.851635670896E+03   -0.47261E-05   -0.58346E-05  4680   0.880E-03    0.796E-03
DAV:   3    -0.851635670857E+03    0.39028E-07   -0.11284E-06  4200   0.193E-03    0.410E-03
DAV:   4    -0.851635671220E+03   -0.36363E-06   -0.75383E-07  3960   0.136E-03    0.103E-03
DAV:   5    -0.851635671253E+03   -0.32880E-07   -0.23969E-07  3520   0.105E-03    0.555E-04
DAV:   6    -0.851635671257E+03   -0.33178E-08   -0.78267E-08  3320   0.719E-04
  75 F= -.85949854E+03 E0= -.85949854E+03  d E =-.774086E-04  mag=    -0.0000
       N       E                     dE             d eps       ncg     rms          rms(c)
DAV:   1    -0.851635806708E+03   -0.13546E-03   -0.52372E-03  4480   0.940E-02    0.183E-02
DAV:   2    -0.851635814644E+03   -0.79360E-05   -0.98989E-05  4680   0.116E-02    0.104E-02
DAV:   3    -0.851635814438E+03    0.20665E-06   -0.20004E-06  4280   0.258E-03    0.539E-03
DAV:   4    -0.851635815017E+03   -0.57949E-06   -0.13781E-06  4000   0.185E-03    0.133E-03
DAV:   5    -0.851635815083E+03   -0.65804E-07   -0.44929E-07  3760   0.142E-03    0.672E-04
DAV:   6    -0.851635815055E+03    0.27707E-07   -0.11065E-07  3300   0.874E-04
  76 F= -.85949864E+03 E0= -.85949864E+03  d E =-.104339E-03  mag=    -0.0000
       N       E                     dE             d eps       ncg     rms          rms(c)
DAV:   1    -0.851635970493E+03   -0.15541E-03   -0.86318E-03  4480   0.121E-01    0.234E-02
DAV:   2    -0.851635983615E+03   -0.13122E-04   -0.16481E-04  4680   0.151E-02    0.134E-02
DAV:   3    -0.851635983137E+03    0.47831E-06   -0.34400E-06  4460   0.340E-03    0.699E-03
DAV:   4    -0.851635984077E+03   -0.94017E-06   -0.23409E-06  4120   0.245E-03    0.170E-03
DAV:   5    -0.851635984216E+03   -0.13924E-06   -0.80907E-07  3880   0.199E-03    0.817E-04
DAV:   6    -0.851635984112E+03    0.10407E-06   -0.20288E-07  3400   0.120E-03
  77 F= -.85949876E+03 E0= -.85949876E+03  d E =-.119397E-03  mag=    -0.0000
       N       E                     dE             d eps       ncg     rms          rms(c)
DAV:   1    -0.851636149824E+03   -0.16561E-03   -0.13752E-02  4480   0.151E-01    0.297E-02
DAV:   2    -0.851636170620E+03   -0.20796E-04   -0.26075E-04  4680   0.187E-02    0.168E-02
DAV:   3    -0.851636169915E+03    0.70513E-06   -0.53155E-06  4600   0.417E-03    0.878E-03
DAV:   4    -0.851636171424E+03   -0.15091E-05   -0.36258E-06  4160   0.300E-03    0.212E-03
DAV:   5    -0.851636171643E+03   -0.21890E-06   -0.12867E-06  3960   0.252E-03    0.979E-04
DAV:   6    -0.851636171471E+03    0.17285E-06   -0.34015E-07  3560   0.157E-03
  78 F= -.85949889E+03 E0= -.85949889E+03  d E =-.125095E-03  mag=    -0.0000
       N       E                     dE             d eps       ncg     rms          rms(c)
DAV:   1    -0.851636355075E+03   -0.18343E-03   -0.21067E-02  4480   0.183E-01    0.370E-02
DAV:   2    -0.851636386461E+03   -0.31386E-04   -0.39220E-04  4680   0.223E-02    0.207E-02
DAV:   3    -0.851636385705E+03    0.75680E-06   -0.78157E-06  4720   0.498E-03    0.108E-02
DAV:   4    -0.851636388082E+03   -0.23777E-05   -0.51223E-06  4300   0.348E-03    0.260E-03
DAV:   5    -0.851636388348E+03   -0.26578E-06   -0.17778E-06  4000   0.288E-03    0.114E-03
DAV:   6    -0.851636388205E+03    0.14318E-06   -0.51573E-07  3760   0.195E-03
  79 F= -.85949903E+03 E0= -.85949903E+03  d E =-.139167E-03  mag=    -0.0000
       N       E                     dE             d eps       ncg     rms          rms(c)
DAV:   1    -0.851636617027E+03   -0.22868E-03   -0.32721E-02  4480   0.227E-01    0.464E-02
DAV:   2    -0.851636665418E+03   -0.48390E-04   -0.60494E-04  4700   0.276E-02    0.257E-02
DAV:   3    -0.851636664453E+03    0.96489E-06   -0.12079E-05  4900   0.612E-03    0.133E-02
DAV:   4    -0.851636668108E+03   -0.36549E-05   -0.74655E-06  4240   0.411E-03    0.323E-03
DAV:   5    -0.851636668367E+03   -0.25934E-06   -0.23920E-06  4000   0.317E-03    0.135E-03
DAV:   6    -0.851636668329E+03    0.37457E-07   -0.61263E-07  3840   0.212E-03
  80 F= -.85949921E+03 E0= -.85949921E+03  d E =-.183865E-03  mag=    -0.0000
       N       E                     dE             d eps       ncg     rms          rms(c)
DAV:   1    -0.851636934387E+03   -0.26602E-03   -0.52204E-02  4480   0.288E-01    0.587E-02
DAV:   2    -0.851637011536E+03   -0.77149E-04   -0.96615E-04  4680   0.349E-02    0.325E-02
DAV:   3    -0.851637009758E+03    0.17786E-05   -0.19427E-05  4920   0.776E-03    0.169E-02
DAV:   4    -0.851637015442E+03   -0.56842E-05   -0.11837E-05  4540   0.518E-03    0.409E-03
DAV:   5    -0.851637015791E+03   -0.34928E-06   -0.36518E-06  4180   0.391E-03    0.167E-03
DAV:   6    -0.851637015726E+03    0.65302E-07   -0.86368E-07  3880   0.252E-03
  81 F= -.85949944E+03 E0= -.85949944E+03  d E =-.227614E-03  mag=     0.0000
       N       E                     dE             d eps       ncg     rms          rms(c)
DAV:   1    -0.851637282029E+03   -0.26624E-03   -0.83600E-02  4480   0.360E-01    0.742E-02
DAV:   2    -0.851637404842E+03   -0.12281E-03   -0.15384E-03  4700   0.434E-02    0.410E-02
DAV:   3    -0.851637401471E+03    0.33707E-05   -0.30372E-05  5000   0.960E-03    0.213E-02
DAV:   4    -0.851637410293E+03   -0.88216E-05   -0.19020E-05  4560   0.648E-03    0.514E-03
DAV:   5    -0.851637410821E+03   -0.52789E-06   -0.58464E-06  4360   0.489E-03    0.209E-03
DAV:   6    -0.851637410714E+03    0.10646E-06   -0.13732E-06  4320   0.318E-03
  82 F= -.85949968E+03 E0= -.85949968E+03  d E =-.245333E-03  mag=    -0.0000
       N       E                     dE             d eps       ncg     rms          rms(c)
DAV:   1    -0.851637678995E+03   -0.26817E-03   -0.13319E-01  4480   0.450E-01    0.934E-02
DAV:   2    -0.851637872120E+03   -0.19313E-03   -0.24325E-03  4780   0.540E-02    0.517E-02
DAV:   3    -0.851637866074E+03    0.60460E-05   -0.47242E-05  5020   0.118E-02    0.270E-02
DAV:   4    -0.851637879129E+03   -0.13054E-04   -0.31044E-05  4620   0.810E-03    0.641E-03
DAV:   5    -0.851637879896E+03   -0.76769E-06   -0.94022E-06  4520   0.604E-03    0.264E-03
DAV:   6    -0.851637879737E+03    0.15974E-06   -0.20255E-06  4480   0.382E-03
  83 F= -.85949996E+03 E0= -.85949996E+03  d E =-.282710E-03  mag=     0.0000
       N       E                     dE             d eps       ncg     rms          rms(c)
DAV:   1    -0.851638248513E+03   -0.36862E-03   -0.20573E-01  4480   0.557E-01    0.115E-01
DAV:   2    -0.851638545587E+03   -0.29707E-03   -0.37966E-03  4960   0.672E-02    0.635E-02
DAV:   3    -0.851638534382E+03    0.11205E-04   -0.70467E-05  5040   0.144E-02    0.336E-02
DAV:   4    -0.851638552882E+03   -0.18499E-04   -0.51551E-05  4600   0.103E-02    0.775E-03
DAV:   5    -0.851638554260E+03   -0.13780E-05   -0.15720E-05  4600   0.783E-03    0.339E-03
DAV:   6    -0.851638553304E+03    0.95547E-06   -0.28258E-06  4440   0.450E-03
  84 F= -.85950042E+03 E0= -.85950042E+03  d E =-.450729E-03  mag=     0.0000
       N       E                     dE             d eps       ncg     rms          rms(c)
DAV:   1    -0.851639042004E+03   -0.48774E-03   -0.29308E-01  4480   0.664E-01    0.137E-01
DAV:   2    -0.851639460023E+03   -0.41802E-03   -0.54724E-03  5000   0.807E-02    0.747E-02
DAV:   3    -0.851639442283E+03    0.17740E-04   -0.97502E-05  5000   0.168E-02    0.399E-02
DAV:   4    -0.851639467175E+03   -0.24892E-04   -0.78298E-05  4680   0.128E-02    0.890E-03
DAV:   5    -0.851639470613E+03   -0.34381E-05   -0.26250E-05  4680   0.107E-02    0.428E-03
DAV:   6    -0.851639466907E+03    0.37057E-05   -0.47227E-06  4400   0.588E-03    0.260E-03
DAV:   7    -0.851639469979E+03   -0.30712E-05   -0.26167E-06  4480   0.408E-03    0.205E-03
DAV:   8    -0.851639469042E+03    0.93657E-06   -0.13918E-06  4440   0.324E-03
  85 F= -.85950108E+03 E0= -.85950108E+03  d E =-.664882E-03  mag=    -0.0000
       N       E                     dE             d eps       ncg     rms          rms(c)
DAV:   1    -0.851640112829E+03   -0.64285E-03   -0.31692E-01  4480   0.721E-01    0.142E-01
DAV:   2    -0.851640561316E+03   -0.44849E-03   -0.58596E-03  4840   0.878E-02    0.784E-02
DAV:   3    -0.851640542763E+03    0.18553E-04   -0.11095E-04  5080   0.182E-02    0.413E-02
DAV:   4    -0.851640568087E+03   -0.25324E-04   -0.81043E-05  4760   0.128E-02    0.919E-03
DAV:   5    -0.851640568314E+03   -0.22729E-06   -0.21498E-05  4840   0.730E-03    0.433E-03
DAV:   6    -0.851640568818E+03   -0.50435E-06   -0.12469E-06  4500   0.185E-03
  86 F= -.85950193E+03 E0= -.85950193E+03  d E =-.847505E-03  mag=    -0.0000
       N       E                     dE             d eps       ncg     rms          rms(c)
DAV:   1    -0.851640598286E+03   -0.29972E-04   -0.31086E-04  4720   0.254E-02    0.401E-03
DAV:   2    -0.851640599331E+03   -0.10450E-05   -0.62088E-06  4960   0.349E-03    0.239E-03
DAV:   3    -0.851640599862E+03   -0.53132E-06   -0.22706E-07  3480   0.111E-03    0.136E-03
DAV:   4    -0.851640600925E+03   -0.10628E-05   -0.27155E-07  3840   0.117E-03    0.484E-04
DAV:   5    -0.851640601269E+03   -0.34423E-06   -0.19011E-07  3680   0.120E-03    0.407E-04
DAV:   6    -0.851640601714E+03   -0.44498E-06   -0.51996E-08  3400   0.565E-04
  87 F= -.85950197E+03 E0= -.85950197E+03  d E =-.379846E-04  mag=    -0.0000
       N       E                     dE             d eps       ncg     rms          rms(c)
DAV:   1    -0.851640646768E+03   -0.45498E-04   -0.10671E-03  4840   0.467E-02    0.836E-03
DAV:   2    -0.851640648204E+03   -0.14366E-05   -0.22141E-05  5040   0.621E-03    0.425E-03
DAV:   3    -0.851640648265E+03   -0.60725E-07   -0.66631E-07  4200   0.143E-03    0.237E-03
DAV:   4    -0.851640648567E+03   -0.30248E-06   -0.28509E-07  3600   0.921E-04    0.654E-04
DAV:   5    -0.851640648708E+03   -0.14063E-06   -0.57525E-08  3540   0.512E-04    0.426E-04
DAV:   6    -0.851640648808E+03   -0.10030E-06   -0.17581E-08  3200   0.315E-04
  88 F= -.85950202E+03 E0= -.85950202E+03  d E =-.566473E-04  mag=    -0.0000
       N       E                     dE             d eps       ncg     rms          rms(c)
DAV:   1    -0.851640701787E+03   -0.53079E-04   -0.19230E-03  4680   0.615E-02    0.112E-02
DAV:   2    -0.851640704099E+03   -0.23126E-05   -0.38944E-05  5240   0.804E-03    0.571E-03
DAV:   3    -0.851640704017E+03    0.81964E-07   -0.10842E-06  4320   0.182E-03    0.317E-03
DAV:   4    -0.851640704225E+03   -0.20754E-06   -0.52359E-07  3880   0.123E-03    0.823E-04
DAV:   5    -0.851640704275E+03   -0.49818E-07   -0.10756E-07  3480   0.752E-04    0.493E-04
DAV:   6    -0.851640704301E+03   -0.26310E-07   -0.39502E-08  3360   0.462E-04
  89 F= -.85950209E+03 E0= -.85950209E+03  d E =-.687992E-04  mag=     0.0000
       N       E                     dE             d eps       ncg     rms          rms(c)
DAV:   1    -0.851640764499E+03   -0.60224E-04   -0.25445E-03  4480   0.695E-02    0.127E-02
DAV:   2    -0.851640767574E+03   -0.30751E-05   -0.49213E-05  5120   0.881E-03    0.660E-03
DAV:   3    -0.851640767493E+03    0.81440E-07   -0.12170E-06  4080   0.194E-03    0.364E-03
DAV:   4    -0.851640767765E+03   -0.27241E-06   -0.70281E-07  4000   0.140E-03    0.884E-04
DAV:   5    -0.851640767795E+03   -0.29439E-07   -0.16128E-07  3640   0.932E-04    0.535E-04
DAV:   6    -0.851640767799E+03   -0.45911E-08   -0.54800E-08  3340   0.536E-04
  90 F= -.85950217E+03 E0= -.85950217E+03  d E =-.793924E-04  mag=    -0.0000
       N       E                     dE             d eps       ncg     rms          rms(c)
DAV:   1    -0.851640845017E+03   -0.77223E-04   -0.28367E-03  4480   0.744E-02    0.132E-02
DAV:   2    -0.851640848531E+03   -0.35137E-05   -0.51654E-05  4920   0.917E-03    0.717E-03
DAV:   3    -0.851640848500E+03    0.30406E-07   -0.11883E-06  4080   0.201E-03    0.387E-03
DAV:   4    -0.851640848845E+03   -0.34498E-06   -0.79785E-07  4080   0.154E-03    0.906E-04
DAV:   5    -0.851640848885E+03   -0.39196E-07   -0.23715E-07  3640   0.119E-03    0.532E-04
DAV:   6    -0.851640848863E+03    0.21493E-07   -0.77528E-08  3200   0.664E-04
  91 F= -.85950227E+03 E0= -.85950227E+03  d E =-.982225E-04  mag=     0.0000
       N       E                     dE             d eps       ncg     rms          rms(c)
DAV:   1    -0.851640943627E+03   -0.94743E-04   -0.28918E-03  4480   0.795E-02    0.131E-02
DAV:   2    -0.851640947282E+03   -0.36544E-05   -0.48924E-05  4880   0.969E-03    0.765E-03
DAV:   3    -0.851640947301E+03   -0.19048E-07   -0.12526E-06  3960   0.224E-03    0.388E-03
DAV:   4    -0.851640947649E+03   -0.34838E-06   -0.78945E-07  4080   0.166E-03    0.924E-04
DAV:   5    -0.851640947748E+03   -0.98786E-07   -0.34068E-07  3760   0.149E-03    0.527E-04
DAV:   6    -0.851640947665E+03    0.82939E-07   -0.11113E-07  3280   0.868E-04
  92 F= -.85950238E+03 E0= -.85950238E+03  d E =-.115750E-03  mag=     0.0000
       N       E                     dE             d eps       ncg     rms          rms(c)
DAV:   1    -0.851641081894E+03   -0.13415E-03   -0.34878E-03  4480   0.922E-02    0.141E-02
DAV:   2    -0.851641086129E+03   -0.42348E-05   -0.53521E-05  4840   0.111E-02    0.897E-03
DAV:   3    -0.851641086235E+03   -0.10657E-06   -0.21203E-06  4120   0.305E-03    0.374E-03
DAV:   4    -0.851641086545E+03   -0.30956E-06   -0.78775E-07  3980   0.180E-03    0.107E-03
DAV:   5    -0.851641086650E+03   -0.10481E-06   -0.32321E-07  3520   0.149E-03    0.560E-04
DAV:   6    -0.851641086652E+03   -0.19354E-08   -0.25407E-07  3520   0.136E-03
  93 F= -.85950254E+03 E0= -.85950254E+03  d E =-.154669E-03  mag=     0.0000
       N       E                     dE             d eps       ncg     rms          rms(c)
DAV:   1    -0.851641265969E+03   -0.17932E-03   -0.50586E-03  4480   0.111E-01    0.169E-02
DAV:   2    -0.851641271721E+03   -0.57520E-05   -0.74737E-05  4840   0.133E-02    0.108E-02
DAV:   3    -0.851641271870E+03   -0.14899E-06   -0.36666E-06  4280   0.385E-03    0.395E-03
DAV:   4    -0.851641272162E+03   -0.29277E-06   -0.91014E-07  3720   0.173E-03    0.124E-03
DAV:   5    -0.851641272234E+03   -0.71530E-07   -0.16405E-07  3320   0.936E-04    0.619E-04
DAV:   6    -0.851641272336E+03   -0.10196E-06   -0.13599E-07  3320   0.979E-04
  94 F= -.85950274E+03 E0= -.85950274E+03  d E =-.197622E-03  mag=     0.0000
       N       E                     dE             d eps       ncg     rms          rms(c)
DAV:   1    -0.851641510262E+03   -0.23803E-03   -0.79168E-03  4480   0.135E-01    0.210E-02
DAV:   2    -0.851641519256E+03   -0.89944E-05   -0.11761E-04  4800   0.161E-02    0.132E-02
DAV:   3    -0.851641519339E+03   -0.82735E-07   -0.45619E-06  4480   0.422E-03    0.510E-03
DAV:   4    -0.851641519830E+03   -0.49105E-06   -0.14650E-06  4100   0.205E-03    0.134E-03
DAV:   5    -0.851641519930E+03   -0.10011E-06   -0.22632E-07  3420   0.115E-03    0.658E-04
DAV:   6    -0.851641520027E+03   -0.97389E-07   -0.15521E-07  3200   0.104E-03
  95 F= -.85950299E+03 E0= -.85950299E+03  d E =-.253168E-03  mag=    -0.0000
       N       E                     dE             d eps       ncg     rms          rms(c)
DAV:   1    -0.851641826544E+03   -0.30661E-03   -0.12572E-02  4480   0.169E-01    0.264E-02
DAV:   2    -0.851641841300E+03   -0.14756E-04   -0.18847E-04  4760   0.201E-02    0.165E-02
DAV:   3    -0.851641841222E+03    0.78042E-07   -0.64785E-06  4600   0.507E-03    0.656E-03
DAV:   4    -0.851641842051E+03   -0.82881E-06   -0.24711E-06  4320   0.263E-03    0.172E-03
DAV:   5    -0.851641842234E+03   -0.18356E-06   -0.53789E-07  3760   0.172E-03    0.752E-04
DAV:   6    -0.851641842325E+03   -0.90360E-07   -0.28176E-07  3600   0.144E-03
  96 F= -.85950331E+03 E0= -.85950331E+03  d E =-.318038E-03  mag=     0.0000
       N       E                     dE             d eps       ncg     rms          rms(c)
DAV:   1    -0.851642208138E+03   -0.36590E-03   -0.19816E-02  4480   0.211E-01    0.340E-02
DAV:   2    -0.851642230680E+03   -0.22543E-04   -0.29685E-04  4800   0.251E-02    0.211E-02
DAV:   3    -0.851642230545E+03    0.13532E-06   -0.12676E-05  4620   0.693E-03    0.825E-03
DAV:   4    -0.851642231715E+03   -0.11697E-05   -0.34399E-06  4480   0.330E-03    0.242E-03
DAV:   5    -0.851642231953E+03   -0.23820E-06   -0.70683E-07  3920   0.196E-03    0.106E-03
DAV:   6    -0.851642232362E+03   -0.40919E-06   -0.65668E-07  3760   0.222E-03
  97 F= -.85950368E+03 E0= -.85950368E+03  d E =-.371218E-03  mag=     0.0000
       N       E                     dE             d eps       ncg     rms          rms(c)
DAV:   1    -0.851642637714E+03   -0.40576E-03   -0.33905E-02  4480   0.268E-01    0.450E-02
DAV:   2    -0.851642677349E+03   -0.39635E-04   -0.51991E-04  4880   0.319E-02    0.276E-02
DAV:   3    -0.851642676530E+03    0.81898E-06   -0.20328E-05  4900   0.853E-03    0.115E-02
DAV:   4    -0.851642678685E+03   -0.21548E-05   -0.57916E-06  4720   0.402E-03    0.328E-03
DAV:   5    -0.851642678971E+03   -0.28641E-06   -0.11553E-06  4100   0.216E-03    0.133E-03
DAV:   6    -0.851642679438E+03   -0.46645E-06   -0.59332E-07  3760   0.208E-03
  98 F= -.85950409E+03 E0= -.85950409E+03  d E =-.408238E-03  mag=    -0.0000
       N       E                     dE             d eps       ncg     rms          rms(c)
DAV:   1    -0.851643114040E+03   -0.43507E-03   -0.59081E-02  4480   0.346E-01    0.597E-02
DAV:   2    -0.851643190408E+03   -0.76368E-04   -0.97615E-04  4840   0.417E-02    0.353E-02
DAV:   3    -0.851643188293E+03    0.21148E-05   -0.25944E-05  5000   0.973E-03    0.166E-02
DAV:   4    -0.851643192875E+03   -0.45816E-05   -0.12299E-05  4760   0.576E-03    0.409E-03
DAV:   5    -0.851643193295E+03   -0.41984E-06   -0.33343E-06  4040   0.377E-03    0.174E-03
DAV:   6    -0.851643193509E+03   -0.21472E-06   -0.10093E-06  4120   0.272E-03
  99 F= -.85950453E+03 E0= -.85950453E+03  d E =-.446623E-03  mag=    -0.0000
       N       E                     dE             d eps       ncg     rms          rms(c)
[...]
DAV:   4    -0.851674479794E+03   -0.41457E-06   -0.82188E-07  3960   0.151E-03    0.101E-03
DAV:   5    -0.851674479802E+03   -0.75452E-08   -0.27129E-07  3600   0.110E-03    0.478E-04
DAV:   6    -0.851674479776E+03    0.25808E-07   -0.60169E-08  3160   0.622E-04
 250 F= -.85953027E+03 E0= -.85953027E+03  d E =0.214670E-04  mag=    -0.0000
       N       E                     dE             d eps       ncg     rms          rms(c)
DAV:   1    -0.851674471270E+03    0.85314E-05   -0.52594E-03  4480   0.963E-02    0.177E-02
DAV:   2    -0.851674478206E+03   -0.69361E-05   -0.97707E-05  4680   0.118E-02    0.977E-03
DAV:   3    -0.851674477879E+03    0.32732E-06   -0.20284E-06  3980   0.259E-03    0.522E-03
DAV:   4    -0.851674478513E+03   -0.63351E-06   -0.13414E-06  3960   0.192E-03    0.122E-03
DAV:   5    -0.851674478561E+03   -0.48021E-07   -0.48636E-07  3760   0.151E-03    0.581E-04
DAV:   6    -0.851674478490E+03    0.70198E-07   -0.11111E-07  3060   0.860E-04
 251 F= -.85953024E+03 E0= -.85953024E+03  d E =0.331324E-04  mag=    -0.0000
       N       E                     dE             d eps       ncg     rms          rms(c)
DAV:   1    -0.851674462752E+03    0.15808E-04   -0.74137E-03  4480   0.115E-01    0.211E-02
DAV:   2    -0.851674472300E+03   -0.95479E-05   -0.13446E-04  4640   0.140E-02    0.117E-02
DAV:   3    -0.851674471910E+03    0.39030E-06   -0.29162E-06  4100   0.311E-03    0.617E-03
DAV:   4    -0.851674472770E+03   -0.85969E-06   -0.18366E-06  3960   0.227E-03    0.144E-03
DAV:   5    -0.851674472851E+03   -0.81796E-07   -0.68410E-07  3760   0.182E-03    0.661E-04
DAV:   6    -0.851674472763E+03    0.88825E-07   -0.19299E-07  3400   0.114E-03
 252 F= -.85953019E+03 E0= -.85953019E+03  d E =0.435315E-04  mag=     0.0000
       N       E                     dE             d eps       ncg     rms          rms(c)
DAV:   1    -0.851674464121E+03    0.87303E-05   -0.10463E-02  4480   0.139E-01    0.251E-02
DAV:   2    -0.851674477377E+03   -0.13256E-04   -0.18726E-04  4800   0.168E-02    0.141E-02
DAV:   3    -0.851674476837E+03    0.54060E-06   -0.43006E-06  4320   0.375E-03    0.737E-03
DAV:   4    -0.851674477991E+03   -0.11540E-05   -0.24991E-06  3960   0.260E-03    0.172E-03
DAV:   5    -0.851674478064E+03   -0.73094E-07   -0.84040E-07  3840   0.193E-03    0.756E-04
DAV:   6    -0.851674477997E+03    0.66291E-07   -0.20677E-07  3560   0.119E-03
 253 F= -.85953015E+03 E0= -.85953015E+03  d E =0.393218E-04  mag=    -0.0000
       N       E                     dE             d eps       ncg     rms          rms(c)
DAV:   1    -0.851674473750E+03    0.43137E-05   -0.14678E-02  4480   0.167E-01    0.297E-02
DAV:   2    -0.851674492184E+03   -0.18434E-04   -0.26194E-04  4880   0.202E-02    0.168E-02
DAV:   3    -0.851674491353E+03    0.83070E-06   -0.61878E-06  4480   0.453E-03    0.877E-03
DAV:   4    -0.851674492928E+03   -0.15745E-05   -0.35770E-06  4120   0.313E-03    0.204E-03
DAV:   5    -0.851674493054E+03   -0.12659E-06   -0.12106E-06  3960   0.234E-03    0.897E-04
DAV:   6    -0.851674492938E+03    0.11596E-06   -0.29465E-07  3600   0.144E-03
 254 F= -.85953012E+03 E0= -.85953012E+03  d E =0.385983E-04  mag=     0.0000
       N       E                     dE             d eps       ncg     rms          rms(c)
DAV:   1    -0.851674490506E+03    0.25480E-05   -0.19050E-02  4480   0.195E-01    0.337E-02
DAV:   2    -0.851674513856E+03   -0.23350E-04   -0.33277E-04  4840   0.235E-02    0.193E-02
DAV:   3    -0.851674512847E+03    0.10092E-05   -0.83424E-06  4640   0.535E-03    0.987E-03
DAV:   4    -0.851674514860E+03   -0.20129E-05   -0.44957E-06  4120   0.359E-03    0.229E-03
DAV:   5    -0.851674515054E+03   -0.19396E-06   -0.15771E-06  3920   0.272E-03    0.101E-03
DAV:   6    -0.851674514913E+03    0.14121E-06   -0.44225E-07  3760   0.178E-03
 255 F= -.85953008E+03 E0= -.85953008E+03  d E =0.394480E-04  mag=    -0.0000
       N       E                     dE             d eps       ncg     rms          rms(c)
DAV:   1    -0.851674530662E+03   -0.15608E-04   -0.22923E-02  4480   0.222E-01    0.367E-02
DAV:   2    -0.851674557936E+03   -0.27274E-04   -0.39019E-04  4800   0.267E-02    0.213E-02
DAV:   3    -0.851674556907E+03    0.10291E-05   -0.10772E-05  4720   0.624E-03    0.106E-02
DAV:   4    -0.851674559227E+03   -0.23203E-05   -0.51875E-06  4680   0.393E-03    0.254E-03
DAV:   5    -0.851674559433E+03   -0.20571E-06   -0.16346E-06  3960   0.282E-03    0.110E-03
DAV:   6    -0.851674559394E+03    0.38694E-07   -0.55491E-07  3760   0.201E-03
 256 F= -.85953006E+03 E0= -.85953006E+03  d E =0.188363E-04  mag=    -0.0000
       N       E                     dE             d eps       ncg     rms          rms(c)
DAV:   1    -0.851674590590E+03   -0.31157E-04   -0.26296E-02  4480   0.246E-01    0.389E-02
DAV:   2    -0.851674620690E+03   -0.30100E-04   -0.43576E-04  4800   0.296E-02    0.230E-02
DAV:   3    -0.851674619624E+03    0.10656E-05   -0.13201E-05  4920   0.706E-03    0.110E-02
DAV:   4    -0.851674622084E+03   -0.24596E-05   -0.57420E-06  4680   0.421E-03    0.268E-03
DAV:   5    -0.851674622347E+03   -0.26277E-06   -0.17293E-06  4000   0.294E-03    0.116E-03
DAV:   6    -0.851674622364E+03   -0.17448E-07   -0.63811E-07  3840   0.217E-03
 257 F= -.85953006E+03 E0= -.85953006E+03  d E =-.425323E-05  mag=     0.0000
       N       E                     dE             d eps       ncg     rms          rms(c)
DAV:   1    -0.851674678978E+03   -0.56631E-04   -0.28662E-02  4480   0.268E-01    0.397E-02
DAV:   2    -0.851674708369E+03   -0.29391E-04   -0.44330E-04  4840   0.319E-02    0.243E-02
DAV:   3    -0.851674707232E+03    0.11368E-05   -0.16050E-05  4820   0.799E-03    0.108E-02
DAV:   4    -0.851674709461E+03   -0.22290E-05   -0.62387E-06  4800   0.445E-03    0.278E-03
DAV:   5    -0.851674709796E+03   -0.33481E-06   -0.17384E-06  4000   0.306E-03    0.121E-03
DAV:   6    -0.851674709916E+03   -0.11985E-06   -0.81095E-07  3840   0.245E-03
 258 F= -.85953010E+03 E0= -.85953010E+03  d E =-.371726E-04  mag=    -0.0000
       N       E                     dE             d eps       ncg     rms          rms(c)
DAV:   1    -0.851674803446E+03   -0.93650E-04   -0.29633E-02  4480   0.289E-01    0.389E-02
DAV:   2    -0.851674828412E+03   -0.24966E-04   -0.40636E-04  4840   0.339E-02    0.254E-02
DAV:   3    -0.851674827140E+03    0.12726E-05   -0.23721E-05  4840   0.101E-02    0.812E-03
DAV:   4    -0.851674828644E+03   -0.15044E-05   -0.65651E-06  4800   0.440E-03    0.293E-03
DAV:   5    -0.851674828979E+03   -0.33463E-06   -0.11073E-06  3960   0.262E-03    0.126E-03
DAV:   6    -0.851674829648E+03   -0.66873E-06   -0.11472E-06  4160   0.291E-03
 259 F= -.85953018E+03 E0= -.85953018E+03  d E =-.843743E-04  mag=    -0.0000
       N       E                     dE             d eps       ncg     rms          rms(c)
DAV:   1    -0.851674953882E+03   -0.12490E-03   -0.34157E-02  4480   0.318E-01    0.403E-02
DAV:   2    -0.851674979499E+03   -0.25617E-04   -0.44371E-04  4840   0.370E-02    0.269E-02
DAV:   3    -0.851674977938E+03    0.15610E-05   -0.32515E-05  4840   0.121E-02    0.615E-03
DAV:   4    -0.851674979172E+03   -0.12337E-05   -0.85181E-06  4840   0.463E-03    0.299E-03
DAV:   5    -0.851674979575E+03   -0.40280E-06   -0.75882E-07  3800   0.210E-03    0.117E-03
DAV:   6    -0.851674980083E+03   -0.50809E-06   -0.61934E-07  3640   0.215E-03
 260 F= -.85953032E+03 E0= -.85953032E+03  d E =-.140440E-03  mag=     0.0000
       N       E                     dE             d eps       ncg     rms          rms(c)
DAV:   1    -0.851675130345E+03   -0.15077E-03   -0.43913E-02  4480   0.363E-01    0.445E-02
DAV:   2    -0.851675163041E+03   -0.32695E-04   -0.57206E-04  4880   0.420E-02    0.300E-02
DAV:   3    -0.851675160394E+03    0.26472E-05   -0.42758E-05  4840   0.139E-02    0.649E-03
DAV:   4    -0.851675161844E+03   -0.14508E-05   -0.11396E-05  4880   0.559E-03    0.332E-03
DAV:   5    -0.851675162656E+03   -0.81161E-06   -0.13250E-06  3800   0.305E-03    0.123E-03
DAV:   6    -0.851675163152E+03   -0.49621E-06   -0.13674E-06  4280   0.326E-03
 261 F= -.85953053E+03 E0= -.85953053E+03  d E =-.205327E-03  mag=    -0.0000
       N       E                     dE             d eps       ncg     rms          rms(c)
DAV:   1    -0.851675334766E+03   -0.17211E-03   -0.61850E-02  4480   0.426E-01    0.527E-02
DAV:   2    -0.851675382139E+03   -0.47372E-04   -0.81912E-04  4880   0.495E-02    0.353E-02
DAV:   3    -0.851675377093E+03    0.50457E-05   -0.53448E-05  4900   0.152E-02    0.965E-03
DAV:   4    -0.851675379769E+03   -0.26760E-05   -0.14100E-05  4960   0.595E-03    0.398E-03
DAV:   5    -0.851675380585E+03   -0.81606E-06   -0.15612E-06  4140   0.302E-03    0.148E-03
DAV:   6    -0.851675381487E+03   -0.90251E-06   -0.12457E-06  4280   0.305E-03
 262 F= -.85953080E+03 E0= -.85953080E+03  d E =-.273428E-03  mag=     0.0000
       N       E                     dE             d eps       ncg     rms          rms(c)
DAV:   1    -0.851675552459E+03   -0.17187E-03   -0.85696E-02  4480   0.502E-01    0.631E-02
DAV:   2    -0.851675622957E+03   -0.70498E-04   -0.12022E-03  4920   0.595E-02    0.415E-02
DAV:   3    -0.851675615504E+03    0.74530E-05   -0.68801E-05  5020   0.174E-02    0.136E-02
DAV:   4    -0.851675620001E+03   -0.44965E-05   -0.19609E-05  4980   0.737E-03    0.482E-03
DAV:   5    -0.851675621128E+03   -0.11269E-05   -0.28317E-06  4400   0.409E-03    0.186E-03
DAV:   6    -0.851675622251E+03   -0.11235E-05   -0.19606E-06  4520   0.387E-03    0.887E-04
DAV:   7    -0.851675622378E+03   -0.12643E-06   -0.12610E-06  4320   0.313E-03
 263 F= -.85953114E+03 E0= -.85953114E+03  d E =-.338527E-03  mag=     0.0000
       N       E                     dE             d eps       ncg     rms          rms(c)
DAV:   1    -0.851675789511E+03   -0.16726E-03   -0.11733E-01  4480   0.594E-01    0.748E-02
DAV:   2    -0.851675889479E+03   -0.99968E-04   -0.17092E-03  4920   0.716E-02    0.493E-02
DAV:   3    -0.851675878754E+03    0.10725E-04   -0.10150E-04  5040   0.211E-02    0.159E-02
DAV:   4    -0.851675884875E+03   -0.61207E-05   -0.27598E-05  5040   0.834E-03    0.580E-03
DAV:   5    -0.851675885817E+03   -0.94208E-06   -0.26815E-06  4220   0.346E-03    0.219E-03
DAV:   6    -0.851675886908E+03   -0.10910E-05   -0.80440E-07  3900   0.216E-03    0.821E-04
DAV:   7    -0.851675887639E+03   -0.73160E-06   -0.42786E-07  3780   0.179E-03
 264 F= -.85953151E+03 E0= -.85953151E+03  d E =-.370479E-03  mag=    -0.0000
       N       E                     dE             d eps       ncg     rms          rms(c)
DAV:   1    -0.851675969602E+03   -0.82694E-04   -0.16073E-01  4480   0.715E-01    0.873E-02
DAV:   2    -0.851676105654E+03   -0.13605E-03   -0.23769E-03  4920   0.872E-02    0.590E-02
DAV:   3    -0.851676088972E+03    0.16682E-04   -0.20099E-04  4920   0.296E-02    0.151E-02
DAV:   4    -0.851676093398E+03   -0.44263E-05   -0.46347E-05  4940   0.112E-02    0.764E-03
DAV:   5    -0.851676095204E+03   -0.18054E-05   -0.47941E-06  4900   0.453E-03    0.283E-03
DAV:   6    -0.851676096575E+03   -0.13710E-05   -0.20261E-06  4420   0.405E-03    0.125E-03
DAV:   7    -0.851676097419E+03   -0.84424E-06   -0.18526E-06  4400   0.379E-03
 265 F= -.85953183E+03 E0= -.85953183E+03  d E =-.321122E-03  mag=    -0.0000
       N       E                     dE             d eps       ncg     rms          rms(c)
DAV:   1    -0.851675508378E+03    0.58820E-03   -0.28320E-01  4480   0.980E-01    0.116E-01
DAV:   2    -0.851675783524E+03   -0.27515E-03   -0.48689E-03  4920   0.126E-01    0.804E-02
DAV:   3    -0.851675728486E+03    0.55038E-04   -0.41871E-04  4960   0.412E-02    0.266E-02
DAV:   4    -0.851675735537E+03   -0.70517E-05   -0.80428E-05  5040   0.147E-02    0.123E-02
DAV:   5    -0.851675738292E+03   -0.27544E-05   -0.71702E-06  5040   0.480E-03    0.428E-03
DAV:   6    -0.851675739222E+03   -0.93022E-06   -0.11634E-06  3900   0.261E-03
 266 F= -.85953155E+03 E0= -.85953155E+03  d E =0.284559E-03  mag=    -0.0000
       N       E                     dE             d eps       ncg     rms          rms(c)
DAV:   1    -0.851676545798E+03   -0.80751E-03   -0.47018E-02  4620   0.420E-01    0.499E-02
DAV:   2    -0.851676603222E+03   -0.57424E-04   -0.11185E-03  5040   0.609E-02    0.347E-02
DAV:   3    -0.851676583960E+03    0.19262E-04   -0.92800E-05  4960   0.181E-02    0.164E-02
DAV:   4    -0.851676582475E+03    0.14848E-05   -0.13204E-05  4880   0.691E-03    0.709E-03
DAV:   5    -0.851676583210E+03   -0.73460E-06   -0.27720E-06  4520   0.416E-03    0.171E-03
DAV:   6    -0.851676583408E+03   -0.19892E-06   -0.14716E-06  4260   0.345E-03
 267 F= -.85953238E+03 E0= -.85953238E+03  d E =-.835179E-03  mag=     0.0000
       N       E                     dE             d eps       ncg     rms          rms(c)
DAV:   1    -0.851676592755E+03   -0.95456E-05   -0.11146E-04  4860   0.184E-02    0.248E-03
DAV:   2    -0.851676593015E+03   -0.26038E-06   -0.23311E-06  4400   0.278E-03    0.160E-03
DAV:   3    -0.851676593159E+03   -0.14380E-06   -0.24726E-07  3500   0.129E-03    0.837E-04
DAV:   4    -0.851676593401E+03   -0.24139E-06   -0.19410E-07  3620   0.119E-03    0.402E-04
DAV:   5    -0.851676593427E+03   -0.26470E-07   -0.11542E-07  3540   0.947E-04    0.343E-04
DAV:   6    -0.851676593517E+03   -0.89894E-07   -0.13005E-08  3360   0.296E-04
 268 F= -.85953239E+03 E0= -.85953239E+03  d E =-.616793E-05  mag=     0.0000
       N       E                     dE             d eps       ncg     rms          rms(c)
DAV:   1    -0.851676605946E+03   -0.12519E-04   -0.44872E-04  4880   0.353E-02    0.493E-03
DAV:   2    -0.851676606575E+03   -0.62833E-06   -0.86826E-06  5160   0.455E-03    0.308E-03
DAV:   3    -0.851676606543E+03    0.31760E-07   -0.29290E-07  3400   0.114E-03    0.159E-03
DAV:   4    -0.851676606616E+03   -0.73131E-07   -0.17907E-07  3240   0.802E-04    0.492E-04
DAV:   5    -0.851676606641E+03   -0.24775E-07   -0.38888E-08  3440   0.418E-04    0.345E-04
DAV:   6    -0.851676606654E+03   -0.12762E-07   -0.59789E-09  3360   0.184E-04
 269 F= -.85953239E+03 E0= -.85953239E+03  d E =-.450000E-05  mag=     0.0000
       N       E                     dE             d eps       ncg     rms          rms(c)
DAV:   1    -0.851676612877E+03   -0.62364E-05   -0.97296E-04  4640   0.495E-02    0.734E-03
DAV:   2    -0.851676614158E+03   -0.12810E-05   -0.18048E-05  5000   0.620E-03    0.447E-03
DAV:   3    -0.851676614069E+03    0.89742E-07   -0.60129E-07  4100   0.154E-03    0.228E-03
DAV:   4    -0.851676614149E+03   -0.80763E-07   -0.25668E-07  3380   0.965E-04    0.618E-04
DAV:   5    -0.851676614158E+03   -0.82946E-08   -0.66319E-08  3380   0.545E-04    0.384E-04
DAV:   6    -0.851676614162E+03   -0.44020E-08   -0.17078E-08  3300   0.302E-04
 270 F= -.85953239E+03 E0= -.85953239E+03  d E =0.658563E-05  mag=     0.0000
       N       E                     dE             d eps       ncg     rms          rms(c)
DAV:   1    -0.851676616489E+03   -0.23315E-05   -0.15569E-03  4480   0.600E-02    0.941E-03
DAV:   2    -0.851676618483E+03   -0.19936E-05   -0.27629E-05  5080   0.730E-03    0.563E-03
DAV:   3    -0.851676618379E+03    0.10425E-06   -0.84008E-07  3980   0.180E-03    0.281E-03
DAV:   4    -0.851676618523E+03   -0.14476E-06   -0.38306E-07  3800   0.113E-03    0.775E-04
DAV:   5    -0.851676618529E+03   -0.61555E-08   -0.98571E-08  3340   0.684E-04    0.419E-04
DAV:   6    -0.851676618540E+03   -0.10201E-07   -0.40539E-08  3280   0.474E-04
 271 F= -.85953237E+03 E0= -.85953237E+03  d E =0.152606E-04  mag=     0.0000
       N       E                     dE             d eps       ncg     rms          rms(c)
DAV:   1    -0.851676620894E+03   -0.23649E-05   -0.23286E-03  4480   0.709E-02    0.116E-02
DAV:   2    -0.851676623868E+03   -0.29738E-05   -0.40792E-05  4920   0.849E-03    0.682E-03
DAV:   3    -0.851676623750E+03    0.11815E-06   -0.11246E-06  3980   0.204E-03    0.342E-03
DAV:   4    -0.851676623981E+03   -0.23056E-06   -0.53773E-07  3920   0.127E-03    0.908E-04
DAV:   5    -0.851676623985E+03   -0.44602E-08   -0.13356E-07  3280   0.752E-04    0.451E-04
DAV:   6    -0.851676624007E+03   -0.21711E-07   -0.46245E-08  3260   0.513E-04
 272 F= -.85953235E+03 E0= -.85953235E+03  d E =0.191143E-04  mag=     0.0000
       N       E                     dE             d eps       ncg     rms          rms(c)
DAV:   1    -0.851676628239E+03   -0.42540E-05   -0.33302E-03  4480   0.834E-02    0.139E-02
DAV:   2    -0.851676632555E+03   -0.43161E-05   -0.59308E-05  4880   0.100E-02    0.810E-03
DAV:   3    -0.851676632373E+03    0.18198E-06   -0.15332E-06  4000   0.235E-03    0.412E-03
DAV:   4    -0.851676632715E+03   -0.34179E-06   -0.78036E-07  4080   0.151E-03    0.105E-03
DAV:   5    -0.851676632723E+03   -0.81709E-08   -0.20584E-07  3400   0.893E-04    0.504E-04
DAV:   6    -0.851676632749E+03   -0.25721E-07   -0.50317E-08  3280   0.548E-04
 273 F= -.85953233E+03 E0= -.85953233E+03  d E =0.206213E-04  mag=     0.0000
       N       E                     dE             d eps       ncg     rms          rms(c)
DAV:   1    -0.851676632866E+03   -0.14337E-06   -0.56868E-03  4480   0.108E-01    0.182E-02
DAV:   2    -0.851676640318E+03   -0.74518E-05   -0.10356E-04  4840   0.132E-02    0.105E-02
DAV:   3    -0.851676639976E+03    0.34221E-06   -0.25762E-06  4120   0.302E-03    0.543E-03
DAV:   4    -0.851676640550E+03   -0.57445E-06   -0.13931E-06  4080   0.201E-03    0.132E-03
DAV:   5    -0.851676640565E+03   -0.14799E-07   -0.38929E-07  3680   0.120E-03    0.616E-04
DAV:   6    -0.851676640584E+03   -0.18226E-07   -0.64421E-08  3320   0.638E-04
 274 F= -.85953230E+03 E0= -.85953230E+03  d E =0.292890E-04  mag=     0.0000
       N       E                     dE             d eps       ncg     rms          rms(c)
DAV:   1    -0.851676630146E+03    0.10419E-04   -0.89141E-03  4480   0.134E-01    0.228E-02
DAV:   2    -0.851676641677E+03   -0.11531E-04   -0.16205E-04  4880   0.164E-02    0.131E-02
DAV:   3    -0.851676641196E+03    0.48018E-06   -0.39645E-06  4320   0.372E-03    0.679E-03
DAV:   4    -0.851676642101E+03   -0.90457E-06   -0.21672E-06  3980   0.248E-03    0.161E-03
DAV:   5    -0.851676642134E+03   -0.32764E-07   -0.62524E-07  3800   0.155E-03    0.733E-04
DAV:   6    -0.851676642151E+03   -0.17426E-07   -0.11188E-07  3380   0.859E-04
 275 F= -.85953226E+03 E0= -.85953226E+03  d E =0.436573E-04  mag=     0.0000
       N       E                     dE             d eps       ncg     rms          rms(c)
DAV:   1    -0.851676632903E+03    0.92305E-05   -0.13240E-02  4480   0.164E-01    0.278E-02
DAV:   2    -0.851676649760E+03   -0.16857E-04   -0.23854E-04  4800   0.198E-02    0.159E-02
DAV:   3    -0.851676649092E+03    0.66808E-06   -0.57964E-06  4600   0.445E-03    0.822E-03
DAV:   4    -0.851676650447E+03   -0.13550E-05   -0.30784E-06  4040   0.291E-03    0.191E-03
DAV:   5    -0.851676650486E+03   -0.38992E-07   -0.87961E-07  3920   0.180E-03    0.855E-04
DAV:   6    -0.851676650509E+03   -0.23050E-07   -0.14025E-07  3460   0.973E-04
 276 F= -.85953221E+03 E0= -.85953221E+03  d E =0.451741E-04  mag=     0.0000
       N       E                     dE             d eps       ncg     rms          rms(c)
DAV:   1    -0.851676649674E+03    0.81260E-06   -0.19267E-02  4480   0.198E-01    0.333E-02
DAV:   2    -0.851676674300E+03   -0.24626E-04   -0.34814E-04  4800   0.241E-02    0.191E-02
DAV:   3    -0.851676673144E+03    0.11563E-05   -0.84203E-06  4760   0.535E-03    0.991E-03
DAV:   4    -0.851676675087E+03   -0.19437E-05   -0.44892E-06  4160   0.348E-03    0.227E-03
DAV:   5    -0.851676675148E+03   -0.60987E-07   -0.12722E-06  4080   0.213E-03    0.102E-03
DAV:   6    -0.851676675161E+03   -0.12311E-07   -0.17643E-07  3600   0.110E-03
 277 F= -.85953218E+03 E0= -.85953218E+03  d E =0.378936E-04  mag=     0.0000
