unknown system                          
           1
    17.271038    0.000000    0.000000
    -8.635519   14.957158    0.000000
     0.000000    0.000000   15.000000
   C    H    O 
    88    10     1
Direct configuration=     1
   0.00084224  0.00045191  0.49871214
   0.00030269  0.14303777  0.49760750
   0.00004461  0.28582187  0.49770228
   0.00030061  0.42886689  0.49845507
   0.00082871  0.57197785  0.49983753
   0.00180571  0.71519490  0.50060965
   0.00180543  0.85822942  0.50008153
   0.14398468  0.00081387  0.50104681
   0.14335893  0.14336930  0.50199707
   0.14237902  0.28544468  0.50391846
   0.14240888  0.42852286  0.50421738
   0.14337141  0.57161104  0.50274109
   0.14396050  0.71477664  0.50162402
   0.14416137  0.85788117  0.50079271
   0.28650066  0.00035136  0.50189260
   0.28626978  0.14306708  0.50498356
   0.28596413  0.28710555  0.51180737
   0.28369757  0.42756113  0.51748477
   0.28600393  0.57054514  0.51269568
   0.28630176  0.71487244  0.50564498
   0.28651338  0.85781126  0.50203940
   0.42942684  0.00056036  0.50131855
   0.42912604  0.14301470  0.50305310
   0.42730425  0.28260932  0.50726937
   0.42734790  0.71645795  0.50857751
   0.42914757  0.85778969  0.50342646
   0.57206667  0.00065570  0.49992101
   0.57209314  0.14308347  0.49978961
   0.57285159  0.28637686  0.50283254
   0.57291761  0.85810441  0.50287291
   0.71496946  0.00043613  0.49817342
   0.71503042  0.14332210  0.49688966
   0.71496780  0.28613241  0.49853137
   0.71452324  0.42825881  0.50236574
   0.71864276  0.57418911  0.50527659
   0.71857567  0.71600792  0.50417070
   0.71456330  0.85786662  0.50135219
   0.85791913  0.00049466  0.49754298
   0.85752440  0.14313034  0.49570689
   0.85750706  0.28594614  0.49617700
   0.85791722  0.42900080  0.49857713
   0.85852697  0.57241541  0.50142709
   0.86006983  0.71583806  0.50216011
   0.85850683  0.85767542  0.50045201
   0.04828059  0.09568373  0.49900194
   0.04729262  0.23792225  0.49909240
   0.04731269  0.38098580  0.49947828
   0.04827774  0.52419554  0.49997386
   0.04881009  0.66730083  0.50056288
   0.04908751  0.81035133  0.50045500
   0.04882281  0.95311831  0.49976570
   0.19109604  0.09558982  0.50286938
   0.19038430  0.23833862  0.50547804
   0.18884183  0.38020450  0.50778248
   0.19043832  0.52368184  0.50595782
   0.19110571  0.66713535  0.50353047
   0.19156038  0.81018040  0.50148665
   0.19156542  0.95298889  0.50124751
   0.33403943  0.09570653  0.50332017
   0.33436414  0.23824618  0.50843769
   0.32965186  0.37945946  0.52071946
   0.32953764  0.52166217  0.52170671
   0.33440994  0.66782677  0.50960025
   0.33405774  0.81002072  0.50368108
   0.33404522  0.95285779  0.50166603
   0.47695459  0.09553552  0.50124916
   0.47610176  0.23809064  0.50442776
   0.47617423  0.80973150  0.50504895
   0.47694024  0.95308360  0.50136363
   0.61960600  0.09562195  0.49857709
   0.61988307  0.23834648  0.50008960
   0.62165528  0.37963969  0.50416373
   0.62170039  0.81362013  0.50336594
   0.61988947  0.95316844  0.50014509
   0.76255252  0.09579408  0.49641421
   0.76253647  0.23835996  0.49671807
   0.76274972  0.38128270  0.49953393
   0.76273680  0.52551470  0.50320834
   0.76482847  0.66822230  0.50413859
   0.76273965  0.80876702  0.50207318
   0.76274359  0.95306268  0.49876492
   0.90514645  0.09530701  0.49634617
   0.90494038  0.23826324  0.49585051
   0.90512760  0.38141202  0.49723733
   0.90569908  0.52452981  0.49977174
   0.90659435  0.66756462  0.50146594
   0.90660420  0.81064545  0.50080550
   0.90570677  0.95272949  0.49861498
   0.46318728  0.35517038  0.50828533
   0.40192533  0.41825920  0.52826023
   0.40138876  0.55521738  0.53308263
   0.64593888  0.67643654  0.50423655
   0.64602417  0.54106543  0.50720322
   0.58563722  0.41609529  0.50716967
   0.58584182  0.74113274  0.50534107
   0.46356003  0.68011770  0.51013913
   0.46600117  0.54840594  0.40977224
   0.52267457  0.50606678  0.38299101
   0.51563953  0.54099949  0.42995804
Direct configuration=     2
   0.00082733  0.00045027  0.49871456
   0.00029738  0.14307477  0.49761824
   0.00006395  0.28582714  0.49770790
   0.00029376  0.42885032  0.49846960
   0.00081530  0.57198287  0.49984685
   0.00183223  0.71521243  0.50062277
   0.00179857  0.85821244  0.50008646
   0.14399940  0.00080093  0.50105755
   0.14339443  0.14341512  0.50199173
   0.14238462  0.28544729  0.50392909
   0.14242027  0.42851533  0.50426492
   0.14338777  0.57161957  0.50275593
   0.14397922  0.71482113  0.50164670
   0.14416371  0.85786854  0.50080070
   0.28648675  0.00032650  0.50190015
   0.28628084  0.14306884  0.50496686
   0.28595493  0.28712848  0.51177983
   0.28371421  0.42755357  0.51744420
   0.28599755  0.57052105  0.51269631
   0.28632746  0.71488644  0.50566651
   0.28650247  0.85779309  0.50205316
   0.42939686  0.00055519  0.50133524
   0.42912612  0.14301768  0.50304727
   0.42730595  0.28259546  0.50729271
   0.42735278  0.71649503  0.50865353
   0.42913090  0.85777381  0.50345460
   0.57205145  0.00065960  0.49992796
   0.57210296  0.14310846  0.49979406
   0.57285656  0.28637595  0.50284537
   0.57293214  0.85809171  0.50292926
   0.71498537  0.00042369  0.49819483
   0.71504894  0.14334478  0.49688589
   0.71496594  0.28613500  0.49853052
   0.71451766  0.42825695  0.50237825
   0.71862859  0.57418144  0.50526129
   0.71856748  0.71602309  0.50417279
   0.71457383  0.85786689  0.50139055
   0.85787772  0.00048210  0.49754751
   0.85750571  0.14311163  0.49571948
   0.85748884  0.28593769  0.49615836
   0.85787921  0.42897748  0.49857052
   0.85850379  0.57240465  0.50142384
   0.86007589  0.71586339  0.50215799
   0.85846105  0.85765579  0.50046142
   0.04829726  0.09571948  0.49900912
   0.04731862  0.23794324  0.49909707
   0.04733977  0.38100775  0.49949220
   0.04827885  0.52419647  0.49999692
   0.04883746  0.66730915  0.50057192
   0.04912639  0.81036712  0.50045664
   0.04882633  0.95310001  0.49976430
   0.19105733  0.09557232  0.50286354
   0.19038164  0.23836359  0.50549437
   0.18884249  0.38019908  0.50775401
   0.19045681  0.52369499  0.50598109
   0.19108464  0.66713255  0.50356156
   0.19154664  0.81016409  0.50150389
   0.19154085  0.95296518  0.50125042
   0.33401979  0.09568066  0.50328581
   0.33434125  0.23825251  0.50845052
   0.32966552  0.37946750  0.52064624
   0.32957239  0.52167119  0.52165229
   0.33439210  0.66780935  0.50963837
   0.33403482  0.81002573  0.50370237
   0.33402680  0.95282808  0.50167462
   0.47696717  0.09553208  0.50125396
   0.47611127  0.23809130  0.50442010
   0.47619105  0.80973279  0.50510664
   0.47692212  0.95307768  0.50137674
   0.61961554  0.09564529  0.49857659
   0.61990200  0.23836588  0.50007697
   0.62168221  0.37965087  0.50416858
   0.62171997  0.81360877  0.50343143
   0.61990277  0.95315630  0.50017499
   0.76253935  0.09578060  0.49643740
   0.76251674  0.23838291  0.49672006
   0.76276683  0.38129027  0.49954003
   0.76272918  0.52549382  0.50323027
   0.76481499  0.66822195  0.50414962
   0.76274027  0.80876942  0.50209445
   0.76273280  0.95304274  0.49878503
   0.90514654  0.09530235  0.49636295
   0.90494915  0.23827026  0.49589094
   0.90512351  0.38143506  0.49724629
   0.90567282  0.52449628  0.49977520
   0.90659317  0.66756091  0.50147858
   0.90659615  0.81066610  0.50081533
   0.90567792  0.95271049  0.49862741
   0.46318386  0.35516569  0.50829512
   0.40194735  0.41830003  0.52812693
   0.40141891  0.55519600  0.53297438
   0.64593180  0.67643522  0.50423410
   0.64601581  0.54106354  0.50720744
   0.58563035  0.41608956  0.50719850
   0.58584125  0.74113700  0.50541152
   0.46356052  0.68012467  0.51023104
   0.46590488  0.54849771  0.40882110
   0.52297274  0.50594853  0.38274693
   0.51547693  0.54097161  0.42942397
Direct configuration=     3
   0.00081926  0.00045487  0.49871871
   0.00030383  0.14310640  0.49763276
   0.00009322  0.28585139  0.49771998
   0.00029462  0.42885771  0.49849285
   0.00080652  0.57197562  0.49986135
   0.00186151  0.71522171  0.50064121
   0.00179926  0.85820258  0.50009285
   0.14399050  0.00078701  0.50107272
   0.14340595  0.14344661  0.50198737
   0.14239387  0.28546025  0.50393729
   0.14244328  0.42852666  0.50432766
   0.14339284  0.57162756  0.50277694
   0.14398843  0.71483169  0.50168068
   0.14417217  0.85785763  0.50081230
   0.28645197  0.00028488  0.50190740
   0.28625888  0.14306098  0.50494231
   0.28594411  0.28715087  0.51174203
   0.28372845  0.42755729  0.51737862
   0.28600457  0.57050795  0.51269904
   0.28631728  0.71487877  0.50569771
   0.28647254  0.85776723  0.50207404
   0.42937606  0.00054506  0.50135636
   0.42912368  0.14300660  0.50303510
   0.42728858  0.28258247  0.50732425
   0.42734830  0.71650366  0.50876788
   0.42911965  0.85776377  0.50349260
   0.57204645  0.00066432  0.49993902
   0.57211897  0.14313018  0.49979891
   0.57287644  0.28638764  0.50286036
   0.57295941  0.85807837  0.50301315
   0.71498686  0.00040551  0.49822483
   0.71505771  0.14336622  0.49688297
   0.71496987  0.28615984  0.49852872
   0.71453415  0.42825668  0.50239569
   0.71862006  0.57417227  0.50524190
   0.71855702  0.71602941  0.50417281
   0.71458244  0.85785727  0.50144773
   0.85785587  0.00046888  0.49755436
   0.85749418  0.14310017  0.49574307
   0.85748186  0.28595100  0.49614147
   0.85785585  0.42896725  0.49856265
   0.85848813  0.57238894  0.50142080
   0.86007438  0.71588082  0.50215609
   0.85843136  0.85764380  0.50047363
   0.04830222  0.09575985  0.49901844
   0.04734076  0.23797260  0.49910456
   0.04735923  0.38101254  0.49951509
   0.04827372  0.52419494  0.50002821
   0.04885078  0.66732619  0.50058394
   0.04914429  0.81037035  0.50046019
   0.04882338  0.95308070  0.49976334
   0.19105160  0.09556844  0.50285399
   0.19039308  0.23839775  0.50551096
   0.18885891  0.38019647  0.50772415
   0.19047309  0.52369340  0.50601678
   0.19109839  0.66715573  0.50360353
   0.19155180  0.81017447  0.50152888
   0.19153475  0.95293851  0.50125669
   0.33400968  0.09565641  0.50323900
   0.33432842  0.23826020  0.50846643
   0.32969516  0.37949099  0.52054532
   0.32960482  0.52165949  0.52157512
   0.33439046  0.66780587  0.50969332
   0.33403008  0.81003027  0.50373081
   0.33399817  0.95279755  0.50168696
   0.47696944  0.09553593  0.50126221
   0.47612180  0.23809005  0.50441445
   0.47620892  0.80974967  0.50519102
   0.47689172  0.95306433  0.50139468
   0.61962678  0.09566883  0.49857370
   0.61991036  0.23838646  0.50006518
   0.62168002  0.37964852  0.50417779
   0.62174425  0.81359971  0.50352858
   0.61991110  0.95314686  0.50021902
   0.76252692  0.09576908  0.49646811
   0.76250707  0.23840041  0.49671896
   0.76275313  0.38128246  0.49954844
   0.76270355  0.52548353  0.50325474
   0.76480112  0.66822672  0.50416077
   0.76272402  0.80876765  0.50212523
   0.76271646  0.95302107  0.49881280
   0.90512739  0.09529372  0.49638653
   0.90494948  0.23826790  0.49594366
   0.90510709  0.38143054  0.49725519
   0.90564199  0.52447586  0.49978076
   0.90660031  0.66757267  0.50149378
   0.90658161  0.81068092  0.50082867
   0.90563649  0.95269541  0.49864383
   0.46317739  0.35515381  0.50830963
   0.40197652  0.41835543  0.52793366
   0.40146943  0.55517065  0.53281740
   0.64592056  0.67643513  0.50422934
   0.64599892  0.54105844  0.50721247
   0.58562709  0.41607805  0.50723897
   0.58583835  0.74113462  0.50551330
   0.46355490  0.68014267  0.51036355
   0.46585785  0.54859459  0.40746490
   0.52337682  0.50582639  0.38243455
   0.51520154  0.54092066  0.42860604
Direct configuration=     4
   0.00081511  0.00046670  0.49872507
   0.00031092  0.14312460  0.49765182
   0.00010924  0.28587834  0.49773992
   0.00029984  0.42887455  0.49852355
   0.00080053  0.57196253  0.49988054
   0.00187584  0.71522099  0.50066348
   0.00180272  0.85819988  0.50010017
   0.14396492  0.00077679  0.50108748
   0.14339044  0.14345728  0.50198698
   0.14240635  0.28548548  0.50394301
   0.14246685  0.42854583  0.50439121
   0.14339029  0.57163513  0.50280682
   0.14398753  0.71480963  0.50172491
   0.14417713  0.85785366  0.50082525
   0.28642067  0.00024568  0.50191146
   0.28621912  0.14304585  0.50491170
   0.28594787  0.28717194  0.51170356
   0.28374302  0.42757246  0.51729049
   0.28603728  0.57051142  0.51270642
   0.28628656  0.71486046  0.50573778
   0.28644343  0.85774723  0.50210242
   0.42936492  0.00053138  0.50137807
   0.42911748  0.14298568  0.50301496
   0.42726094  0.28257108  0.50736316
   0.42734062  0.71649306  0.50890680
   0.42912493  0.85777140  0.50353499
   0.57205173  0.00066591  0.49995485
   0.57213322  0.14314373  0.49980102
   0.57289652  0.28640758  0.50287472
   0.57299179  0.85807210  0.50311789
   0.71497010  0.00039053  0.49826158
   0.71505036  0.14337405  0.49688753
   0.71497232  0.28619153  0.49852424
   0.71455065  0.42825508  0.50241930
   0.71861572  0.57417597  0.50522338
   0.71854040  0.71601820  0.50417171
   0.71459085  0.85784777  0.50151283
   0.85785588  0.00046103  0.49756554
   0.85748967  0.14310451  0.49578150
   0.85749143  0.28597544  0.49613592
   0.85785332  0.42897056  0.49855581
   0.85848300  0.57238513  0.50142198
   0.86006287  0.71588271  0.50215794
   0.85842934  0.85765292  0.50048605
   0.04829225  0.09578710  0.49902937
   0.04734946  0.23799521  0.49911291
   0.04737001  0.38101371  0.49954976
   0.04827046  0.52419616  0.50006411
   0.04884635  0.66733461  0.50060044
   0.04912685  0.81035425  0.50046611
   0.04880919  0.95307420  0.49976467
   0.19107051  0.09557809  0.50284112
   0.19041252  0.23842898  0.50552423
   0.18889274  0.38020853  0.50770095
   0.19048219  0.52368452  0.50606488
   0.19113275  0.66718482  0.50365012
   0.19156504  0.81019332  0.50155671
   0.19153829  0.95291625  0.50126853
   0.33400577  0.09564055  0.50318583
   0.33432389  0.23825529  0.50848216
   0.32973142  0.37952559  0.52042447
   0.32963367  0.52163849  0.52148009
   0.33440247  0.66781534  0.50976355
   0.33403751  0.81001687  0.50376467
   0.33396449  0.95277237  0.50170466
   0.47696239  0.09554204  0.50127473
   0.47612362  0.23808633  0.50441493
   0.47621696  0.80976488  0.50529408
   0.47687066  0.95305488  0.50141373
   0.61963194  0.09567833  0.49857178
   0.61991062  0.23839659  0.50005738
   0.62166311  0.37964132  0.50419324
   0.62175408  0.81358307  0.50365290
   0.61990693  0.95314313  0.50027574
   0.76252465  0.09577063  0.49650446
   0.76251684  0.23841279  0.49671539
   0.76271863  0.38127068  0.49955878
   0.76267883  0.52548746  0.50327527
   0.76479128  0.66823454  0.50416734
   0.76269566  0.80875853  0.50216350
   0.76270163  0.95300356  0.49884820
   0.90510446  0.09529145  0.49641659
   0.90494531  0.23826544  0.49600216
   0.90509038  0.38140903  0.49726084
   0.90562374  0.52448239  0.49978461
   0.90661521  0.66759496  0.50150932
   0.90657123  0.81068414  0.50084235
   0.90560815  0.95269606  0.49865967
   0.46316754  0.35513518  0.50832859
   0.40201382  0.41842072  0.52769622
   0.40153525  0.55514388  0.53262174
   0.64590533  0.67643723  0.50422109
   0.64597716  0.54105171  0.50721692
   0.58562729  0.41606372  0.50728746
   0.58583363  0.74112243  0.50563857
   0.46354473  0.68016838  0.51052698
   0.46589372  0.54865073  0.40580019
   0.52382953  0.50575395  0.38209418
   0.51479771  0.54080907  0.42752867
Direct configuration=     5
   0.00080302  0.00048190  0.49873296
   0.00029549  0.14312837  0.49767526
   0.00009217  0.28588651  0.49777067
   0.00030282  0.42887468  0.49855415
   0.00079252  0.57195988  0.49990202
   0.00185702  0.71521223  0.50068660
   0.00179243  0.85819608  0.50010698
   0.14394592  0.00077376  0.50109836
   0.14336722  0.14345424  0.50199379
   0.14242244  0.28551797  0.50394280
   0.14248045  0.42855244  0.50443926
   0.14339538  0.57164010  0.50284860
   0.14398681  0.71479340  0.50177587
   0.14416200  0.85784837  0.50083980
   0.28641733  0.00023640  0.50190841
   0.28620809  0.14303287  0.50488006
   0.28598444  0.28719396  0.51167350
   0.28376654  0.42758596  0.51718476
   0.28609019  0.57052446  0.51272090
   0.28628417  0.71485745  0.50578593
   0.28644742  0.85773997  0.50213798
   0.42935938  0.00052410  0.50139737
   0.42910500  0.14297189  0.50298558
   0.42725530  0.28255907  0.50741081
   0.42733828  0.71650143  0.50906156
   0.42914636  0.85778692  0.50357809
   0.57205286  0.00065864  0.49997543
   0.57212776  0.14314121  0.49980025
   0.57288581  0.28641386  0.50288565
   0.57299521  0.85807446  0.50323914
   0.71494614  0.00039109  0.49830565
   0.71503846  0.14336930  0.49690193
   0.71495927  0.28619056  0.49851851
   0.71452738  0.42825364  0.50245022
   0.71860114  0.57419792  0.50521275
   0.71851923  0.71599443  0.50416633
   0.71458521  0.85783877  0.50158109
   0.85785676  0.00046874  0.49758216
   0.85748736  0.14312347  0.49584101
   0.85750614  0.28597807  0.49614933
   0.85785766  0.42897657  0.49855121
   0.85848411  0.57241491  0.50143058
   0.86004777  0.71587153  0.50216602
   0.85843926  0.85767101  0.50049943
   0.04827472  0.09577785  0.49904176
   0.04734511  0.23800857  0.49912333
   0.04737684  0.38103556  0.49959898
   0.04827438  0.52420538  0.50010074
   0.04883250  0.66730710  0.50062058
   0.04910141  0.81033641  0.50047733
   0.04878397  0.95309104  0.49976985
   0.19106081  0.09558297  0.50282585
   0.19041971  0.23843726  0.50552948
   0.18892801  0.38024255  0.50769026
   0.19048974  0.52369190  0.50611778
   0.19114300  0.66717968  0.50368712
   0.19155529  0.81017760  0.50158742
   0.19152076  0.95290577  0.50128717
   0.33398890  0.09562678  0.50313417
   0.33430609  0.23822954  0.50849614
   0.32976201  0.37956171  0.52028730
   0.32967273  0.52164296  0.52137714
   0.33441019  0.66782388  0.50984384
   0.33403913  0.80998399  0.50380258
   0.33394440  0.95275835  0.50173129
   0.47695506  0.09553300  0.50129026
   0.47610645  0.23807987  0.50442533
   0.47621598  0.80975925  0.50540426
   0.47688310  0.95306523  0.50142924
   0.61962305  0.09566388  0.49857163
   0.61991071  0.23839656  0.50005651
   0.62167469  0.37965083  0.50421721
   0.62174795  0.81356051  0.50379019
   0.61988973  0.95314147  0.50034233
   0.76251935  0.09577582  0.49654413
   0.76253827  0.23842575  0.49670848
   0.76270863  0.38128380  0.49956764
   0.76268160  0.52549746  0.50328637
   0.76478685  0.66823433  0.50416234
   0.76267925  0.80873869  0.50220152
   0.76270480  0.95300213  0.49888504
   0.90509964  0.09530072  0.49645316
   0.90494766  0.23828008  0.49606020
   0.90509666  0.38140989  0.49726019
   0.90563074  0.52450613  0.49978430
   0.90662262  0.66760665  0.50152251
   0.90657200  0.81067702  0.50085287
   0.90563382  0.95272233  0.49866724
   0.46315277  0.35511190  0.50835091
   0.40205905  0.41848743  0.52743778
   0.40160093  0.55511345  0.53239996
   0.64588312  0.67643806  0.50420613
   0.64595862  0.54104635  0.50721778
   0.58562470  0.41605233  0.50733784
   0.58582532  0.74109480  0.50577468
   0.46353647  0.68018742  0.51070635
   0.46595572  0.54860487  0.40392399
   0.52425976  0.50575770  0.38170502
   0.51441308  0.54072218  0.42637801
Direct configuration=     6
   0.00079470  0.00049867  0.49874015
   0.00027028  0.14312510  0.49770263
   0.00006358  0.28588236  0.49781365
   0.00030991  0.42887496  0.49858188
   0.00079226  0.57196467  0.49991962
   0.00182259  0.71519093  0.50070257
   0.00177059  0.85820156  0.50011184
   0.14394464  0.00078049  0.50109910
   0.14335740  0.14344878  0.50200791
   0.14243698  0.28554224  0.50393400
   0.14248260  0.42855992  0.50446450
   0.14340946  0.57163499  0.50290126
   0.14398050  0.71478339  0.50182208
   0.14412298  0.85782879  0.50085799
   0.28642530  0.00025397  0.50189637
   0.28622332  0.14302584  0.50485248
   0.28602809  0.28720058  0.51165844
   0.28380534  0.42760633  0.51706949
   0.28612654  0.57053819  0.51274252
   0.28631936  0.71485828  0.50583640
   0.28647558  0.85772690  0.50217929
   0.42935668  0.00052306  0.50141247
   0.42909410  0.14298492  0.50295426
   0.42726171  0.28253667  0.50746222
   0.42733931  0.71653160  0.50920062
   0.42914647  0.85777992  0.50361484
   0.57204307  0.00064944  0.49999923
   0.57210107  0.14311539  0.49979826
   0.57284797  0.28639780  0.50289261
   0.57295097  0.85806125  0.50336460
   0.71494122  0.00040567  0.49835302
   0.71503672  0.14336811  0.49692274
   0.71495474  0.28616580  0.49851218
   0.71450171  0.42827840  0.50248566
   0.71858070  0.57420140  0.50520814
   0.71850304  0.71597452  0.50415382
   0.71456640  0.85782955  0.50164441
   0.85786486  0.00049396  0.49760197
   0.85748370  0.14314537  0.49592073
   0.85751224  0.28596661  0.49618271
   0.85786436  0.42899259  0.49854791
   0.85849088  0.57245758  0.50144599
   0.86004509  0.71586194  0.50217958
   0.85844870  0.85767353  0.50051221
   0.04825510  0.09575947  0.49905126
   0.04733241  0.23801617  0.49913781
   0.04738041  0.38106366  0.49965686
   0.04828276  0.52421338  0.50013246
   0.04882031  0.66726978  0.50064652
   0.04908420  0.81033256  0.50049441
   0.04875874  0.95311392  0.49977983
   0.19101230  0.09556918  0.50280766
   0.19041625  0.23843089  0.50552553
   0.18893782  0.38027975  0.50769507
   0.19051330  0.52371793  0.50616773
   0.19111713  0.66713942  0.50371094
   0.19152591  0.81013206  0.50162153
   0.19148255  0.95291615  0.50130732
   0.33396749  0.09561988  0.50309516
   0.33429576  0.23820085  0.50850959
   0.32979783  0.37959314  0.52016032
   0.32974003  0.52168589  0.52128010
   0.33441489  0.66782602  0.50993028
   0.33404958  0.80997874  0.50384440
   0.33396020  0.95275447  0.50175802
   0.47694683  0.09550937  0.50130431
   0.47607925  0.23806761  0.50444688
   0.47621810  0.80975049  0.50551125
   0.47691874  0.95308789  0.50143970
   0.61960178  0.09563734  0.49857472
   0.61989504  0.23838350  0.50006426
   0.62167478  0.37965559  0.50424598
   0.62173488  0.81355309  0.50391467
   0.61986983  0.95313441  0.50041404
   0.76250681  0.09578125  0.49658857
   0.76254497  0.23842673  0.49670162
   0.76273145  0.38131291  0.49957065
   0.76269733  0.52552309  0.50328722
   0.76478116  0.66822763  0.50414513
   0.76269971  0.80873247  0.50222634
   0.76271301  0.95301875  0.49891130
   0.90510695  0.09532478  0.49649768
   0.90495379  0.23830233  0.49610729
   0.90512514  0.38144100  0.49725225
   0.90564538  0.52452198  0.49978582
   0.90660259  0.66760363  0.50153214
   0.90657135  0.81066398  0.50085677
   0.90567595  0.95275177  0.49866703
   0.46313607  0.35509111  0.50837478
   0.40210366  0.41854073  0.52719772
   0.40165241  0.55508486  0.53217699
   0.64585351  0.67643441  0.50418018
   0.64594629  0.54104478  0.50721158
   0.58561878  0.41605009  0.50737969
   0.58581403  0.74105315  0.50589977
   0.46353371  0.68018962  0.51087510
   0.46593946  0.54838921  0.40203248
   0.52458890  0.50584487  0.38121791
   0.51421928  0.54072754  0.42547794
Direct configuration=     7
   0.00079713  0.00049854  0.49873905
   0.00027373  0.14312645  0.49770236
   0.00006852  0.28588536  0.49781483
   0.00031127  0.42887847  0.49858167
   0.00079349  0.57196300  0.49991902
   0.00182440  0.71519035  0.50070192
   0.00177149  0.85820389  0.50011174
   0.14394128  0.00078064  0.50109808
   0.14335654  0.14344841  0.50200830
   0.14243540  0.28554044  0.50393330
   0.14248282  0.42856319  0.50446251
   0.14340831  0.57163334  0.50290213
   0.14397871  0.71478073  0.50182043
   0.14412503  0.85782950  0.50085878
   0.28642229  0.00025172  0.50189565
   0.28621835  0.14302441  0.50485296
   0.28602414  0.28719819  0.51166035
   0.28380616  0.42760908  0.51707026
   0.28612321  0.57053822  0.51274372
   0.28631628  0.71485570  0.50583671
   0.28647185  0.85772543  0.50217931
   0.42935847  0.00052274  0.50141209
   0.42909293  0.14298205  0.50295438
   0.42725817  0.28253583  0.50746229
   0.42734014  0.71652942  0.50919879
   0.42914735  0.85778065  0.50361412
   0.57204381  0.00065008  0.49999964
   0.57210075  0.14311374  0.49979849
   0.57284916  0.28639717  0.50289273
   0.57295247  0.85806043  0.50336435
   0.71494212  0.00040487  0.49835380
   0.71503595  0.14336849  0.49692328
   0.71495715  0.28616905  0.49851204
   0.71450685  0.42828030  0.50248570
   0.71858237  0.57419946  0.50520830
   0.71850457  0.71597644  0.50415257
   0.71456782  0.85783053  0.50164293
   0.85786648  0.00049398  0.49760229
   0.85748364  0.14314470  0.49592263
   0.85751150  0.28597058  0.49618385
   0.85786599  0.42899379  0.49854764
   0.85849003  0.57245261  0.50144620
   0.86004495  0.71586287  0.50217974
   0.85845017  0.85767296  0.50051133
   0.04825627  0.09576355  0.49905156
   0.04733258  0.23801599  0.49913866
   0.04737947  0.38106020  0.49965752
   0.04828309  0.52421218  0.50013191
   0.04882080  0.66727447  0.50064704
   0.04908405  0.81033280  0.50049498
   0.04876035  0.95311139  0.49977990
   0.19101574  0.09557013  0.50280767
   0.19041831  0.23843246  0.50552509
   0.18893688  0.38027794  0.50769587
   0.19051434  0.52371525  0.50616616
   0.19111956  0.66714245  0.50371027
   0.19152827  0.81013490  0.50162231
   0.19148492  0.95291593  0.50130757
   0.33397112  0.09562140  0.50309617
   0.33429938  0.23820385  0.50851041
   0.32979875  0.37959025  0.52016160
   0.32973968  0.52168606  0.52128123
   0.33441721  0.66782645  0.50992928
   0.33405199  0.80998141  0.50384453
   0.33396137  0.95275600  0.50175717
   0.47694473  0.09551121  0.50130325
   0.47608049  0.23806685  0.50444788
   0.47621599  0.80975290  0.50551098
   0.47691502  0.95308439  0.50143943
   0.61960299  0.09563969  0.49857478
   0.61989253  0.23838187  0.50006496
   0.62166983  0.37965285  0.50424631
   0.62173208  0.81355257  0.50391364
   0.61987022  0.95313291  0.50041437
   0.76250761  0.09578203  0.49658996
   0.76254295  0.23842426  0.49670238
   0.76272915  0.38131060  0.49957071
   0.76269566  0.52552453  0.50328683
   0.76478025  0.66822706  0.50414388
   0.76270018  0.80873440  0.50222433
   0.76271195  0.95301932  0.49891079
   0.90510480  0.09532445  0.49649925
   0.90495224  0.23829990  0.49610718
   0.90512366  0.38143967  0.49725189
   0.90564392  0.52452220  0.49978609
   0.90660154  0.66760385  0.50153199
   0.90656988  0.81066386  0.50085609
   0.90566959  0.95274882  0.49866650
   0.46313586  0.35509093  0.50837507
   0.40210351  0.41853866  0.52720143
   0.40165313  0.55508718  0.53217780
   0.64585362  0.67643440  0.50417851
   0.64594625  0.54104470  0.50721060
   0.58561824  0.41605117  0.50737825
   0.58581474  0.74105403  0.50589759
   0.46353323  0.68018872  0.51087283
   0.46593561  0.54836549  0.40204552
   0.52457843  0.50585683  0.38120619
   0.51423632  0.54074215  0.42550600
Direct configuration=     8
   0.00080094  0.00049822  0.49873732
   0.00027980  0.14312905  0.49770186
   0.00007739  0.28589053  0.49781721
   0.00031365  0.42888450  0.49858128
   0.00079580  0.57196021  0.49991789
   0.00182751  0.71518952  0.50070068
   0.00177300  0.85820783  0.50011156
   0.14393547  0.00078088  0.50109608
   0.14335530  0.14344805  0.50200911
   0.14243255  0.28553711  0.50393195
   0.14248280  0.42856815  0.50445843
   0.14340647  0.57163035  0.50290388
   0.14397562  0.71477627  0.50181723
   0.14412887  0.85783089  0.50086038
   0.28641712  0.00024784  0.50189423
   0.28620979  0.14302204  0.50485393
   0.28601701  0.28719380  0.51166411
   0.28380780  0.42761396  0.51707171
   0.28611718  0.57053828  0.51274612
   0.28631113  0.71485138  0.50583737
   0.28646534  0.85772303  0.50217939
   0.42936167  0.00052220  0.50141130
   0.42909172  0.14297838  0.50295484
   0.42725205  0.28253432  0.50746243
   0.42734188  0.71652571  0.50919526
   0.42914876  0.85778195  0.50361278
   0.57204510  0.00065114  0.50000048
   0.57209991  0.14311075  0.49979894
   0.57285108  0.28639573  0.50289303
   0.57295494  0.85805887  0.50336397
   0.71494382  0.00040353  0.49835540
   0.71503457  0.14336914  0.49692437
   0.71496117  0.28617463  0.49851177
   0.71451561  0.42828350  0.50248582
   0.71858520  0.57419596  0.50520860
   0.71850774  0.71597986  0.50415057
   0.71457024  0.85783239  0.50164006
   0.85786919  0.00049406  0.49760297
   0.85748345  0.14314346  0.49592644
   0.85750996  0.28597754  0.49618611
   0.85786880  0.42899586  0.49854711
   0.85848913  0.57244437  0.50144634
   0.86004457  0.71586451  0.50218004
   0.85845261  0.85767178  0.50050959
   0.04825856  0.09577095  0.49905216
   0.04733308  0.23801568  0.49914036
   0.04737786  0.38105428  0.49965888
   0.04828386  0.52421009  0.50013089
   0.04882170  0.66728277  0.50064803
   0.04908391  0.81033337  0.50049614
   0.04876330  0.95310689  0.49978003
   0.19102157  0.09557172  0.50280767
   0.19042178  0.23843507  0.50552421
   0.18893505  0.38027471  0.50769741
   0.19051611  0.52371047  0.50616309
   0.19112366  0.66714762  0.50370901
   0.19153234  0.81013980  0.50162387
   0.19148893  0.95291592  0.50130759
   0.33397730  0.09562402  0.50309814
   0.33430545  0.23820910  0.50851206
   0.32980028  0.37958486  0.52016402
   0.32973903  0.52168672  0.52128340
   0.33442020  0.66782615  0.50992758
   0.33405602  0.80998553  0.50384450
   0.33396344  0.95275873  0.50175549
   0.47694093  0.09551433  0.50130115
   0.47608255  0.23806528  0.50444989
   0.47621213  0.80975715  0.50551057
   0.47690845  0.95307812  0.50143892
   0.61960513  0.09564387  0.49857494
   0.61988816  0.23837883  0.50006634
   0.62166122  0.37964810  0.50424696
   0.62172715  0.81355161  0.50391169
   0.61987106  0.95313019  0.50041509
   0.76250897  0.09578341  0.49659277
   0.76253920  0.23841996  0.49670389
   0.76272588  0.38130700  0.49957047
   0.76269283  0.52552689  0.50328604
   0.76477856  0.66822598  0.50414141
   0.76270122  0.80873813  0.50222036
   0.76271015  0.95302037  0.49890983
   0.90510120  0.09532386  0.49650240
   0.90494962  0.23829583  0.49610706
   0.90512116  0.38143771  0.49725121
   0.90564148  0.52452243  0.49978664